/*--------------------------------*- C++ -*----------------------------------*\
  =========                 |
  \\      /  F ield         | OpenFOAM: The Open Source CFD Toolbox
   \\    /   O peration     | Website:  https://openfoam.org
    \\  /    A nd           | Version:  10
     \\/     M anipulation  |
\*---------------------------------------------------------------------------*/
FoamFile
{
    format      ascii;
    class       volScalarField;
    location    "0.2";
    object      s;
}
// * * * * * * * * * * * * * * * * * * * * * * * * * * * * * * * * * * * * * //

dimensions      [0 0 1 0 0 0 0];

internalField   nonuniform List<scalar> 
400
(
-7.72986e-13
-3.65647e-12
-5.88009e-11
1.39756e-09
7.57236e-09
9.3033e-09
4.87126e-09
4.05192e-09
-3.08267e-09
-8.059e-09
-2.24184e-07
-1.33965e-06
-1.03572e-06
1.68278e-06
-5.92034e-07
9.29088e-08
-7.38476e-09
2.31516e-10
-1.10943e-12
-6.88862e-14
-6.2562e-12
4.72882e-09
1.44948e-08
-5.12342e-07
-1.94863e-06
-2.01808e-06
-9.64899e-07
-5.30098e-07
3.49344e-06
1.22921e-05
1.12275e-05
-9.30254e-06
-1.52557e-05
-5.00551e-06
8.63285e-06
-2.47065e-06
2.49986e-07
-7.93086e-09
4.77207e-11
-1.78076e-14
-1.48763e-09
-6.44351e-07
-3.39657e-07
3.67226e-05
0.000110188
9.98791e-05
3.14644e-05
2.98256e-05
6.18649e-05
9.01053e-05
0.000184793
0.000207559
-7.93976e-05
-0.000127252
8.13151e-05
-2.02408e-05
2.51739e-06
-1.35443e-07
2.07273e-09
-3.98289e-12
1.81009e-07
2.35049e-05
-4.49038e-06
-0.00084698
-0.00220921
-0.00195142
-0.000561605
-0.000336117
-0.0010581
-0.000753632
0.000558977
0.000780854
0.000105124
-7.02372e-05
-0.000138729
6.56707e-05
-9.13961e-06
3.66302e-07
-1.58236e-09
-8.82476e-12
-3.08855e-06
-0.00029585
1.56706e-05
0.00694758
0.0176838
0.0173614
0.00457385
-0.00682326
-0.00783174
-0.00388579
-0.00223661
-0.000129908
0.00251004
0.000167253
-0.00112537
0.00049662
-8.80867e-05
6.27328e-06
-1.37802e-07
5.16855e-10
-2.33379e-06
0.00111187
0.00138591
-0.0128797
-0.0444284
-0.0682244
-0.0528435
-0.00880107
0.0108671
-0.00723424
-0.015391
0.00104217
0.00581229
-0.00104634
-0.00141071
0.000856797
-0.000198309
1.94283e-05
-6.35287e-07
3.71615e-09
0.000156024
0.0011352
-0.00628215
-0.0397226
-0.0497893
0.0355736
0.154712
0.15996
0.0435767
-0.0381607
-0.0191939
0.00833985
0.00324209
-0.00214959
-0.000372728
0.000621578
-0.000204758
2.75861e-05
-1.29278e-06
1.12145e-08
8.5614e-05
-0.00442862
-0.0139816
0.00613138
0.132004
0.330839
0.384617
0.200461
-0.00287844
-0.0386192
0.00137917
0.00713362
-0.000528504
-0.00135232
0.000219392
0.000218901
-0.000110611
2.03927e-05
-1.38086e-06
1.84919e-08
-0.000802687
-0.014376
0.00186895
0.157947
0.432504
0.591336
0.43423
0.118421
-0.041426
-0.0223902
0.00686755
0.00358284
-0.00094325
-0.00043933
0.000167237
1.19189e-05
-1.99041e-05
5.6947e-06
-6.58326e-07
1.59013e-08
-0.00277606
-0.0231938
0.0554254
0.376147
0.707459
0.69164
0.346691
0.0304994
-0.0473313
-0.00957563
0.00598063
0.00120827
-0.000702414
6.78362e-05
3.32441e-05
-2.60167e-05
9.82937e-06
-1.57592e-06
-3.76498e-08
6.1497e-09
-0.00564904
-0.0250999
0.142158
0.593124
0.868765
0.653629
0.230425
-0.0152069
-0.0380059
-0.00354167
0.00397746
-9.60714e-05
-0.000304653
0.000143004
-2.18221e-05
1.43209e-06
3.51735e-06
-4.11178e-09
-1.03854e-07
3.91813e-09
-0.00897188
-0.0171616
0.244638
0.759117
0.915739
0.56418
0.154166
-0.0238979
-0.0276354
-0.000609325
0.0027279
-0.000711322
7.63565e-05
3.04978e-05
-6.522e-06
1.02083e-05
7.00188e-06
5.25381e-06
4.73951e-07
-6.54448e-08
-0.0125345
9.99719e-07
0.344659
0.861929
0.899735
0.492643
0.125385
-0.0188562
-0.01997
0.00242514
0.00174066
-0.000703533
0.000256582
-9.90179e-05
-4.25333e-05
1.3617e-05
3.55907e-05
2.30085e-05
6.41956e-06
-6.06599e-07
-0.0165548
0.0242727
0.433065
0.919077
0.873305
0.45993
0.121038
-0.0160149
-0.0166199
0.00339456
0.000792331
-1.94016e-05
-0.000140423
-0.000499672
-0.000297198
4.44866e-05
0.000132893
8.25125e-05
3.23291e-05
-1.84126e-06
-0.0211342
0.0549989
0.510775
0.955532
0.863455
0.459159
0.127152
-0.0158255
-0.0163382
0.00437469
0.000767737
-0.000715402
-0.00207615
-0.00205965
-0.000996325
0.000224316
0.000456279
0.000254926
0.000115944
2.35732e-06
-0.0251987
0.0935156
0.580622
0.986189
0.881212
0.494777
0.151261
-0.0208523
-0.0306098
-0.00573846
-0.00169249
-0.00917646
-0.0081399
-0.00542965
-0.00185737
0.00116666
0.0014513
0.00071258
0.000339956
4.534e-05
-0.0255016
0.139038
0.63409
1.01129
0.944885
0.622506
0.298879
0.0787967
-0.0188448
-0.0463708
-0.0443677
-0.027503
-0.0137023
-0.00565803
0.000856353
0.00508495
0.00420108
0.00183711
0.000867046
0.00022131
-0.0190779
0.169588
0.613824
0.94353
0.973273
0.822001
0.615489
0.422396
0.271113
0.164469
0.0939089
0.0512604
0.0297435
0.0221695
0.0204603
0.0173135
0.0105183
0.00429288
0.00198493
0.000698116
-0.0145376
0.12728
0.37791
0.55623
0.625743
0.617445
0.56475
0.491242
0.411694
0.335111
0.26625
0.20452
0.150718
0.105296
0.0682689
0.039575
0.0195071
0.00833032
0.00408245
0.00165757
-0.0151658
0.0167112
0.0542181
0.0805438
0.0948696
0.0997553
0.0979117
0.0915797
0.0824798
0.0718981
0.0608717
0.0505489
0.0412514
0.0330675
0.0259966
0.0199926
0.0149733
0.0107807
0.00703812
0.00304412
)
;

boundaryField
{
    movingWall
    {
        type            zeroGradient;
    }
    fixedWalls
    {
        type            zeroGradient;
    }
    frontAndBack
    {
        type            empty;
    }
}


// ************************************************************************* //
