/*--------------------------------*- C++ -*----------------------------------*\
  =========                 |
  \\      /  F ield         | OpenFOAM: The Open Source CFD Toolbox
   \\    /   O peration     | Website:  https://openfoam.org
    \\  /    A nd           | Version:  10
     \\/     M anipulation  |
\*---------------------------------------------------------------------------*/
FoamFile
{
    format      ascii;
    class       volScalarField;
    location    "0.38";
    object      beta;
}
// * * * * * * * * * * * * * * * * * * * * * * * * * * * * * * * * * * * * * //

dimensions      [0 0 0 0 0 0 0];

internalField   uniform 0;

boundaryField
{
    frontAndBack
    {
        type            empty;
    }
    inlet
    {
        type            calculated;
        value           uniform 0;
    }
    outlet
    {
        type            calculated;
        value           uniform 0;
    }
    substrate
    {
        type            calculated;
        value           nonuniform List<scalar> 
400
(
0.00265327
0.00287575
0.00308654
0.00329102
0.00349175
0.00368999
0.00388635
0.00408105
0.00427413
0.0044655
0.00465495
0.00484227
0.00502721
0.00520949
0.00538886
0.00556505
0.00573784
0.005907
0.00607234
0.00623369
0.00639088
0.00654381
0.00669237
0.00683649
0.00697611
0.00711119
0.00724174
0.00736775
0.00748924
0.00760626
0.00771885
0.00782709
0.00793103
0.00803078
0.00812642
0.00821804
0.00830575
0.00838967
0.00846989
0.00854654
0.00861973
0.00868958
0.0087562
0.00881972
0.00888024
0.00893788
0.00899276
0.00904498
0.00909467
0.00914191
0.00918682
0.0092295
0.00927005
0.00930856
0.00934512
0.00937983
0.00941276
0.00944401
0.00947365
0.00950176
0.00952842
0.00955369
0.00957764
0.00960033
0.00962184
0.00964221
0.00966151
0.00967979
0.0096971
0.0097135
0.00972902
0.00974371
0.00975761
0.00977078
0.00978324
0.00979503
0.00980618
0.00981674
0.00982672
0.00983617
0.00984511
0.00985356
0.00986156
0.00986912
0.00987628
0.00988304
0.00988944
0.00989549
0.00990121
0.00990662
0.00991174
0.00991658
0.00992115
0.00992547
0.00992956
0.00993343
0.00993708
0.00994053
0.0099438
0.00994688
0.0099498
0.00995256
0.00995516
0.00995763
0.00995996
0.00996216
0.00996424
0.00996621
0.00996806
0.00996982
0.00997148
0.00997305
0.00997453
0.00997594
0.00997726
0.00997851
0.00997969
0.00998081
0.00998187
0.00998287
0.00998381
0.0099847
0.00998555
0.00998634
0.0099871
0.00998781
0.00998848
0.00998911
0.00998971
0.00999028
0.00999082
0.00999132
0.0099918
0.00999225
0.00999268
0.00999309
0.00999347
0.00999383
0.00999417
0.00999449
0.00999479
0.00999508
0.00999535
0.00999561
0.00999585
0.00999608
0.0099963
0.0099965
0.0099967
0.00999688
0.00999705
0.00999721
0.00999737
0.00999751
0.00999765
0.00999778
0.0099979
0.00999802
0.00999813
0.00999823
0.00999833
0.00999842
0.00999851
0.00999859
0.00999867
0.00999875
0.00999882
0.00999888
0.00999894
0.009999
0.00999906
0.00999911
0.00999916
0.00999921
0.00999925
0.00999929
0.00999933
0.00999937
0.0099994
0.00999944
0.00999947
0.0099995
0.00999953
0.00999955
0.00999958
0.0099996
0.00999962
0.00999964
0.00999966
0.00999968
0.0099997
0.00999972
0.00999973
0.00999975
0.00999976
0.00999978
0.00999979
0.0099998
0.00999981
0.00999982
0.00999983
0.00999984
0.00999985
0.00999986
0.00999987
0.00999987
0.00999988
0.00999989
0.00999989
0.0099999
0.00999991
0.00999991
0.00999992
0.00999992
0.00999993
0.00999993
0.00999993
0.00999994
0.00999994
0.00999994
0.00999995
0.00999995
0.00999995
0.00999996
0.00999996
0.00999996
0.00999996
0.00999996
0.00999997
0.00999997
0.00999997
0.00999997
0.00999997
0.00999998
0.00999998
0.00999998
0.00999998
0.00999998
0.00999998
0.00999998
0.00999998
0.00999998
0.00999999
0.00999999
0.00999999
0.00999999
0.00999999
0.00999999
0.00999999
0.00999999
0.00999999
0.00999999
0.00999999
0.00999999
0.00999999
0.00999999
0.00999999
0.00999999
0.00999999
0.00999999
0.01
0.01
0.01
0.01
0.01
0.01
0.01
0.01
0.01
0.01
0.01
0.01
0.01
0.01
0.01
0.01
0.01
0.01
0.01
0.01
0.01
0.01
0.01
0.01
0.01
0.01
0.01
0.01
0.01
0.01
0.01
0.01
0.01
0.01
0.01
0.01
0.01
0.01
0.01
0.01
0.01
0.01
0.01
0.01
0.01
0.01
0.01
0.01
0.01
0.01
0.01
0.01
0.01
0.01
0.01
0.01
0.01
0.01
0.01
0.01
0.01
0.01
0.01
0.01
0.01
0.01
0.01
0.01
0.01
0.01
0.01
0.01
0.01
0.01
0.01
0.01
0.01
0.01
0.01
0.01
0.01
0.01
0.01
0.01
0.01
0.01
0.01
0.01
0.01
0.01
0.01
0.01
0.01
0.01
0.01
0.01
0.01
0.01
0.01
0.01
0.01
0.01
0.01
0.01
0.01
0.01
0.01
0.01
0.01
0.01
0.01
0.01
0.01
0.01
0.01
0.01
0.01
0.01
0.01
0.01
0.01
0.01
0.01
0.01
0.01
0.01
0.01
0.01
0.01
0.01
0.01
0.01
0.01
0.01
0.01
0.01
0.01
0.01
0.01
0.01
)
;
    }
    Wall
    {
        type            calculated;
        value           nonuniform List<scalar> 
400
(
0.00265328
0.00287576
0.00308653
0.00329101
0.00349175
0.00368999
0.00388635
0.00408106
0.00427414
0.0044655
0.00465495
0.00484227
0.00502721
0.00520948
0.00538885
0.00556504
0.00573782
0.00590698
0.00607232
0.00623366
0.00639085
0.00654378
0.00669234
0.00683645
0.00697607
0.00711115
0.00724169
0.0073677
0.00748919
0.00760621
0.0077188
0.00782704
0.00793098
0.00803073
0.00812637
0.00821799
0.0083057
0.00838962
0.00846984
0.00854649
0.00861968
0.00868953
0.00875616
0.00881967
0.00888019
0.00893784
0.00899272
0.00904494
0.00909463
0.00914187
0.00918678
0.00922946
0.00927001
0.00930852
0.00934509
0.00937979
0.00941273
0.00944398
0.00947362
0.00950174
0.00952839
0.00955366
0.00957761
0.00960031
0.00962182
0.00964219
0.00966149
0.00967978
0.00969709
0.00971348
0.009729
0.00974369
0.0097576
0.00977076
0.00978322
0.00979501
0.00980617
0.00981673
0.00982671
0.00983616
0.0098451
0.00985356
0.00986155
0.00986912
0.00987627
0.00988304
0.00988944
0.00989549
0.00990121
0.00990662
0.00991174
0.00991657
0.00992115
0.00992547
0.00992956
0.00993342
0.00993708
0.00994053
0.00994379
0.00994688
0.0099498
0.00995256
0.00995516
0.00995763
0.00995996
0.00996216
0.00996424
0.0099662
0.00996806
0.00996982
0.00997148
0.00997305
0.00997453
0.00997593
0.00997726
0.00997851
0.00997969
0.00998081
0.00998187
0.00998287
0.00998381
0.0099847
0.00998555
0.00998634
0.0099871
0.00998781
0.00998848
0.00998911
0.00998971
0.00999028
0.00999082
0.00999132
0.0099918
0.00999225
0.00999268
0.00999309
0.00999347
0.00999383
0.00999417
0.00999449
0.00999479
0.00999508
0.00999535
0.00999561
0.00999585
0.00999608
0.0099963
0.0099965
0.0099967
0.00999688
0.00999705
0.00999721
0.00999737
0.00999751
0.00999765
0.00999778
0.0099979
0.00999802
0.00999813
0.00999823
0.00999833
0.00999842
0.00999851
0.00999859
0.00999867
0.00999875
0.00999882
0.00999888
0.00999894
0.009999
0.00999906
0.00999911
0.00999916
0.00999921
0.00999925
0.00999929
0.00999933
0.00999937
0.0099994
0.00999944
0.00999947
0.0099995
0.00999953
0.00999955
0.00999958
0.0099996
0.00999962
0.00999964
0.00999966
0.00999968
0.0099997
0.00999972
0.00999973
0.00999975
0.00999976
0.00999978
0.00999979
0.0099998
0.00999981
0.00999982
0.00999983
0.00999984
0.00999985
0.00999986
0.00999987
0.00999987
0.00999988
0.00999989
0.00999989
0.0099999
0.00999991
0.00999991
0.00999992
0.00999992
0.00999993
0.00999993
0.00999993
0.00999994
0.00999994
0.00999994
0.00999995
0.00999995
0.00999995
0.00999996
0.00999996
0.00999996
0.00999996
0.00999996
0.00999997
0.00999997
0.00999997
0.00999997
0.00999997
0.00999998
0.00999998
0.00999998
0.00999998
0.00999998
0.00999998
0.00999998
0.00999998
0.00999998
0.00999999
0.00999999
0.00999999
0.00999999
0.00999999
0.00999999
0.00999999
0.00999999
0.00999999
0.00999999
0.00999999
0.00999999
0.00999999
0.00999999
0.00999999
0.00999999
0.00999999
0.00999999
0.01
0.01
0.01
0.01
0.01
0.01
0.01
0.01
0.01
0.01
0.01
0.01
0.01
0.01
0.01
0.01
0.01
0.01
0.01
0.01
0.01
0.01
0.01
0.01
0.01
0.01
0.01
0.01
0.01
0.01
0.01
0.01
0.01
0.01
0.01
0.01
0.01
0.01
0.01
0.01
0.01
0.01
0.01
0.01
0.01
0.01
0.01
0.01
0.01
0.01
0.01
0.01
0.01
0.01
0.01
0.01
0.01
0.01
0.01
0.01
0.01
0.01
0.01
0.01
0.01
0.01
0.01
0.01
0.01
0.01
0.01
0.01
0.01
0.01
0.01
0.01
0.01
0.01
0.01
0.01
0.01
0.01
0.01
0.01
0.01
0.01
0.01
0.01
0.01
0.01
0.01
0.01
0.01
0.01
0.01
0.01
0.01
0.01
0.01
0.01
0.01
0.01
0.01
0.01
0.01
0.01
0.01
0.01
0.01
0.01
0.01
0.01
0.01
0.01
0.01
0.01
0.01
0.01
0.01
0.01
0.01
0.01
0.01
0.01
0.01
0.01
0.01
0.01
0.01
0.01
0.01
0.01
0.01
0.01
0.01
0.01
0.01
0.01
0.01
0.01
)
;
    }
}


// ************************************************************************* //
