/*--------------------------------*- C++ -*----------------------------------*\
  =========                 |
  \\      /  F ield         | OpenFOAM: The Open Source CFD Toolbox
   \\    /   O peration     | Website:  https://openfoam.org
    \\  /    A nd           | Version:  10
     \\/     M anipulation  |
\*---------------------------------------------------------------------------*/
FoamFile
{
    format      ascii;
    class       volScalarField;
    location    "0.76";
    object      N1;
}
// * * * * * * * * * * * * * * * * * * * * * * * * * * * * * * * * * * * * * //

dimensions      [0 0 0 0 0 0 0];

internalField   nonuniform List<scalar> 
8000
(
9.20533e-13
2.75785e-12
4.58529e-12
6.39779e-12
8.19104e-12
9.96126e-12
1.17051e-11
1.34197e-11
1.51024e-11
1.67511e-11
1.83639e-11
1.99391e-11
2.14754e-11
2.29718e-11
2.44275e-11
2.58418e-11
2.72144e-11
2.85451e-11
2.98338e-11
3.10806e-11
3.22859e-11
3.34499e-11
3.45733e-11
3.56564e-11
3.67001e-11
3.77049e-11
3.86717e-11
3.96014e-11
4.04946e-11
4.13524e-11
4.21756e-11
4.29652e-11
4.37219e-11
4.44469e-11
4.5141e-11
4.5805e-11
4.644e-11
4.70467e-11
4.76261e-11
4.81791e-11
4.87063e-11
4.92088e-11
4.96872e-11
5.01423e-11
5.05749e-11
5.09857e-11
5.13753e-11
5.17446e-11
5.2094e-11
5.24243e-11
5.27361e-11
5.30299e-11
5.33063e-11
5.35658e-11
5.3809e-11
5.40363e-11
5.42482e-11
5.44452e-11
5.46278e-11
5.47962e-11
5.49511e-11
5.50926e-11
5.52213e-11
5.53374e-11
5.54414e-11
5.55335e-11
5.5614e-11
5.56833e-11
5.57416e-11
5.57892e-11
5.58265e-11
5.58536e-11
5.58708e-11
5.58783e-11
5.58764e-11
5.58653e-11
5.58452e-11
5.58163e-11
5.57788e-11
5.5733e-11
5.56789e-11
5.56168e-11
5.55468e-11
5.54692e-11
5.5384e-11
5.52915e-11
5.51918e-11
5.50851e-11
5.49714e-11
5.4851e-11
5.47239e-11
5.45904e-11
5.44505e-11
5.43044e-11
5.41522e-11
5.39941e-11
5.38301e-11
5.36604e-11
5.34851e-11
5.33043e-11
5.31181e-11
5.29267e-11
5.27301e-11
5.25285e-11
5.2322e-11
5.21107e-11
5.18946e-11
5.1674e-11
5.14488e-11
5.12192e-11
5.09854e-11
5.07473e-11
5.05052e-11
5.0259e-11
5.00089e-11
4.97551e-11
4.94975e-11
4.92363e-11
4.89716e-11
4.87034e-11
4.8432e-11
4.81572e-11
4.78794e-11
4.75984e-11
4.73145e-11
4.70278e-11
4.67382e-11
4.6446e-11
4.61511e-11
4.58537e-11
4.55539e-11
4.52517e-11
4.49473e-11
4.46406e-11
4.43319e-11
4.40212e-11
4.37085e-11
4.33941e-11
4.30778e-11
4.27599e-11
4.24403e-11
4.21193e-11
4.17968e-11
4.14729e-11
4.11478e-11
4.08215e-11
4.0494e-11
4.01655e-11
3.9836e-11
3.95057e-11
3.91744e-11
3.88425e-11
3.85099e-11
3.81766e-11
3.78428e-11
3.75086e-11
3.7174e-11
3.6839e-11
3.65038e-11
3.61684e-11
3.58329e-11
3.54973e-11
3.51617e-11
3.48262e-11
3.44909e-11
3.41557e-11
3.38208e-11
3.34862e-11
3.3152e-11
3.28182e-11
3.24849e-11
3.21522e-11
3.18201e-11
3.14887e-11
3.11579e-11
3.0828e-11
3.04989e-11
3.01706e-11
2.98433e-11
2.95169e-11
2.91916e-11
2.88674e-11
2.85443e-11
2.82223e-11
2.79016e-11
2.75821e-11
2.7264e-11
2.69471e-11
2.66317e-11
2.63176e-11
2.60051e-11
2.5694e-11
2.53845e-11
2.50766e-11
2.47702e-11
2.44655e-11
2.41625e-11
2.38612e-11
2.35617e-11
2.32639e-11
2.29679e-11
2.26738e-11
2.23815e-11
2.20911e-11
2.18026e-11
2.15161e-11
2.12316e-11
2.0949e-11
2.06684e-11
2.03899e-11
2.01134e-11
1.9839e-11
1.95667e-11
1.92965e-11
1.90284e-11
1.87625e-11
1.84987e-11
1.82371e-11
1.79777e-11
1.77205e-11
1.74655e-11
1.72128e-11
1.69622e-11
1.6714e-11
1.6468e-11
1.62242e-11
1.59828e-11
1.57436e-11
1.55067e-11
1.52721e-11
1.50398e-11
1.48098e-11
1.45821e-11
1.43567e-11
1.41336e-11
1.39128e-11
1.36944e-11
1.34783e-11
1.32645e-11
1.3053e-11
1.28438e-11
1.26369e-11
1.24324e-11
1.22301e-11
1.20301e-11
1.18325e-11
1.16371e-11
1.1444e-11
1.12532e-11
1.10647e-11
1.08785e-11
1.06945e-11
1.05128e-11
1.03333e-11
1.0156e-11
9.98101e-12
9.80821e-12
9.63763e-12
9.46924e-12
9.30304e-12
9.13902e-12
8.97717e-12
8.81747e-12
8.65992e-12
8.5045e-12
8.3512e-12
8.2e-12
8.0509e-12
7.90388e-12
7.75892e-12
7.61602e-12
7.47516e-12
7.33632e-12
7.19948e-12
7.06465e-12
6.93179e-12
6.80089e-12
6.67195e-12
6.54494e-12
6.41984e-12
6.29665e-12
6.17534e-12
6.0559e-12
5.93831e-12
5.82256e-12
5.70862e-12
5.59649e-12
5.48615e-12
5.37757e-12
5.27075e-12
5.16566e-12
5.06229e-12
4.96062e-12
4.86063e-12
4.76231e-12
4.66564e-12
4.5706e-12
4.47717e-12
4.38534e-12
4.29509e-12
4.2064e-12
4.11925e-12
4.03364e-12
3.94953e-12
3.86691e-12
3.78578e-12
3.70609e-12
3.62785e-12
3.55104e-12
3.47563e-12
3.40161e-12
3.32896e-12
3.25767e-12
3.18772e-12
3.11909e-12
3.05177e-12
2.98574e-12
2.92098e-12
2.85747e-12
2.79521e-12
2.73417e-12
2.67434e-12
2.61571e-12
2.55825e-12
2.50195e-12
2.4468e-12
2.39278e-12
2.33987e-12
2.28807e-12
2.23735e-12
2.1877e-12
2.13911e-12
2.09156e-12
2.04504e-12
1.99953e-12
1.95502e-12
1.9115e-12
1.86895e-12
1.82735e-12
1.78671e-12
1.747e-12
1.7082e-12
1.67032e-12
1.63332e-12
1.59721e-12
1.56198e-12
1.52759e-12
1.49406e-12
1.46136e-12
1.42948e-12
1.39842e-12
1.36816e-12
1.33868e-12
1.30999e-12
1.28207e-12
1.25491e-12
1.22849e-12
1.20282e-12
1.17787e-12
1.15365e-12
1.13014e-12
1.10733e-12
1.08522e-12
1.06379e-12
1.04304e-12
1.02296e-12
1.00354e-12
9.8478e-13
9.66662e-13
9.49183e-13
9.32337e-13
9.16117e-13
9.00517e-13
8.85529e-13
8.71148e-13
8.57368e-13
8.44184e-13
8.31589e-13
8.1958e-13
8.0815e-13
7.97296e-13
7.87012e-13
7.77294e-13
7.68139e-13
7.59542e-13
7.515e-13
7.4401e-13
7.37067e-13
7.3067e-13
7.24816e-13
7.19501e-13
7.14725e-13
7.10484e-13
7.06778e-13
7.03603e-13
7.0096e-13
6.98847e-13
6.97263e-13
6.96208e-13
6.9568e-13
9.29957e-13
2.78694e-12
4.63557e-12
6.47103e-12
8.28904e-12
1.00858e-11
1.18579e-11
1.36024e-11
1.53167e-11
1.69983e-11
1.86453e-11
2.02559e-11
2.18288e-11
2.33627e-11
2.48566e-11
2.63098e-11
2.77219e-11
2.90924e-11
3.04212e-11
3.17082e-11
3.29537e-11
3.41579e-11
3.53211e-11
3.64438e-11
3.75267e-11
3.85702e-11
3.95751e-11
4.05422e-11
4.14723e-11
4.23661e-11
4.32245e-11
4.40484e-11
4.48387e-11
4.55963e-11
4.6322e-11
4.70168e-11
4.76815e-11
4.8317e-11
4.89243e-11
4.9504e-11
5.00572e-11
5.05845e-11
5.10868e-11
5.15649e-11
5.20196e-11
5.24515e-11
5.28614e-11
5.325e-11
5.36179e-11
5.39658e-11
5.42943e-11
5.4604e-11
5.48955e-11
5.51694e-11
5.54261e-11
5.56663e-11
5.58903e-11
5.60988e-11
5.6292e-11
5.64706e-11
5.66348e-11
5.67852e-11
5.69221e-11
5.70458e-11
5.71568e-11
5.72554e-11
5.73418e-11
5.74165e-11
5.74798e-11
5.75319e-11
5.7573e-11
5.76036e-11
5.76239e-11
5.7634e-11
5.76343e-11
5.76249e-11
5.76062e-11
5.75783e-11
5.75414e-11
5.74958e-11
5.74416e-11
5.73791e-11
5.73083e-11
5.72296e-11
5.7143e-11
5.70488e-11
5.6947e-11
5.68379e-11
5.67217e-11
5.65984e-11
5.64682e-11
5.63312e-11
5.61877e-11
5.60377e-11
5.58814e-11
5.57188e-11
5.55502e-11
5.53757e-11
5.51953e-11
5.50093e-11
5.48177e-11
5.46206e-11
5.44182e-11
5.42106e-11
5.39978e-11
5.37801e-11
5.35575e-11
5.33301e-11
5.3098e-11
5.28614e-11
5.26203e-11
5.23748e-11
5.21252e-11
5.18713e-11
5.16135e-11
5.13516e-11
5.1086e-11
5.08166e-11
5.05435e-11
5.02669e-11
4.99869e-11
4.97035e-11
4.94168e-11
4.9127e-11
4.88341e-11
4.85382e-11
4.82395e-11
4.79379e-11
4.76337e-11
4.73268e-11
4.70174e-11
4.67056e-11
4.63915e-11
4.60751e-11
4.57565e-11
4.54359e-11
4.51132e-11
4.47887e-11
4.44623e-11
4.41342e-11
4.38044e-11
4.34731e-11
4.31403e-11
4.2806e-11
4.24705e-11
4.21337e-11
4.17958e-11
4.14567e-11
4.11167e-11
4.07757e-11
4.04339e-11
4.00912e-11
3.97479e-11
3.9404e-11
3.90595e-11
3.87145e-11
3.83692e-11
3.80235e-11
3.76775e-11
3.73313e-11
3.6985e-11
3.66386e-11
3.62923e-11
3.5946e-11
3.55999e-11
3.52539e-11
3.49083e-11
3.45629e-11
3.4218e-11
3.38735e-11
3.35295e-11
3.31861e-11
3.28433e-11
3.25012e-11
3.21598e-11
3.18193e-11
3.14796e-11
3.11408e-11
3.08029e-11
3.04661e-11
3.01303e-11
2.97957e-11
2.94622e-11
2.91299e-11
2.87988e-11
2.84691e-11
2.81407e-11
2.78137e-11
2.74881e-11
2.71639e-11
2.68413e-11
2.65203e-11
2.62008e-11
2.5883e-11
2.55668e-11
2.52523e-11
2.49395e-11
2.46285e-11
2.43194e-11
2.4012e-11
2.37065e-11
2.34029e-11
2.31012e-11
2.28015e-11
2.25038e-11
2.2208e-11
2.19143e-11
2.16226e-11
2.13331e-11
2.10456e-11
2.07602e-11
2.0477e-11
2.01959e-11
1.9917e-11
1.96403e-11
1.93658e-11
1.90936e-11
1.88236e-11
1.85558e-11
1.82904e-11
1.80272e-11
1.77663e-11
1.75077e-11
1.72515e-11
1.69975e-11
1.6746e-11
1.64967e-11
1.62499e-11
1.60053e-11
1.57632e-11
1.55234e-11
1.5286e-11
1.5051e-11
1.48184e-11
1.45881e-11
1.43603e-11
1.41348e-11
1.39117e-11
1.3691e-11
1.34727e-11
1.32568e-11
1.30433e-11
1.28322e-11
1.26234e-11
1.2417e-11
1.2213e-11
1.20113e-11
1.18121e-11
1.16151e-11
1.14206e-11
1.12283e-11
1.10384e-11
1.08508e-11
1.06656e-11
1.04826e-11
1.0302e-11
1.01236e-11
9.94756e-12
9.77375e-12
9.60221e-12
9.43292e-12
9.26586e-12
9.10103e-12
8.93841e-12
8.77799e-12
8.61976e-12
8.4637e-12
8.3098e-12
8.15805e-12
8.00844e-12
7.86094e-12
7.71555e-12
7.57224e-12
7.43101e-12
7.29183e-12
7.1547e-12
7.0196e-12
6.88651e-12
6.75541e-12
6.62629e-12
6.49914e-12
6.37393e-12
6.25064e-12
6.12927e-12
6.0098e-12
5.8922e-12
5.77647e-12
5.66257e-12
5.55051e-12
5.44025e-12
5.33178e-12
5.22508e-12
5.12014e-12
5.01694e-12
4.91546e-12
4.81568e-12
4.71758e-12
4.62115e-12
4.52636e-12
4.43321e-12
4.34167e-12
4.25172e-12
4.16335e-12
4.07654e-12
3.99127e-12
3.90752e-12
3.82528e-12
3.74452e-12
3.66523e-12
3.5874e-12
3.511e-12
3.43602e-12
3.36243e-12
3.29023e-12
3.2194e-12
3.14991e-12
3.08175e-12
3.01491e-12
2.94936e-12
2.8851e-12
2.8221e-12
2.76035e-12
2.69982e-12
2.64052e-12
2.58241e-12
2.52548e-12
2.46972e-12
2.41512e-12
2.36165e-12
2.3093e-12
2.25805e-12
2.2079e-12
2.15882e-12
2.1108e-12
2.06383e-12
2.01789e-12
1.97297e-12
1.92905e-12
1.88612e-12
1.84417e-12
1.80318e-12
1.76313e-12
1.72403e-12
1.68585e-12
1.64858e-12
1.61221e-12
1.57672e-12
1.54211e-12
1.50835e-12
1.47545e-12
1.44339e-12
1.41215e-12
1.38173e-12
1.35212e-12
1.3233e-12
1.29526e-12
1.268e-12
1.2415e-12
1.21575e-12
1.19075e-12
1.16649e-12
1.14294e-12
1.12012e-12
1.098e-12
1.07659e-12
1.05586e-12
1.03582e-12
1.01645e-12
9.97748e-13
9.79707e-13
9.6232e-13
9.45578e-13
9.29476e-13
9.14006e-13
8.99162e-13
8.8494e-13
8.71331e-13
8.58332e-13
8.45936e-13
8.34139e-13
8.22935e-13
8.12321e-13
8.02291e-13
7.92841e-13
7.83968e-13
7.75667e-13
7.67936e-13
7.6077e-13
7.54167e-13
7.48125e-13
7.42639e-13
7.37709e-13
7.33332e-13
7.29506e-13
7.2623e-13
7.23502e-13
7.21321e-13
7.19686e-13
7.18596e-13
7.18052e-13
9.39202e-13
2.81508e-12
4.68356e-12
6.54012e-12
8.38063e-12
1.02013e-11
1.19988e-11
1.37701e-11
1.55124e-11
1.72233e-11
1.89008e-11
2.0543e-11
2.21483e-11
2.37155e-11
2.52435e-11
2.67313e-11
2.81784e-11
2.95843e-11
3.09487e-11
3.22716e-11
3.35529e-11
3.47928e-11
3.59916e-11
3.71496e-11
3.82673e-11
3.93454e-11
4.03844e-11
4.13849e-11
4.23478e-11
4.32738e-11
4.41638e-11
4.50184e-11
4.58387e-11
4.66255e-11
4.73795e-11
4.81018e-11
4.87932e-11
4.94546e-11
5.00868e-11
5.06906e-11
5.1267e-11
5.18167e-11
5.23405e-11
5.28393e-11
5.33138e-11
5.37647e-11
5.41927e-11
5.45987e-11
5.49832e-11
5.53469e-11
5.56905e-11
5.60146e-11
5.63197e-11
5.66065e-11
5.68755e-11
5.71272e-11
5.73622e-11
5.75809e-11
5.77839e-11
5.79715e-11
5.81443e-11
5.83026e-11
5.84469e-11
5.85775e-11
5.86948e-11
5.87993e-11
5.88911e-11
5.89707e-11
5.90384e-11
5.90945e-11
5.91392e-11
5.9173e-11
5.9196e-11
5.92085e-11
5.92107e-11
5.9203e-11
5.91856e-11
5.91586e-11
5.91223e-11
5.90769e-11
5.90226e-11
5.89597e-11
5.88883e-11
5.88085e-11
5.87207e-11
5.86249e-11
5.85214e-11
5.84102e-11
5.82916e-11
5.81657e-11
5.80327e-11
5.78928e-11
5.7746e-11
5.75925e-11
5.74324e-11
5.7266e-11
5.70933e-11
5.69144e-11
5.67295e-11
5.65388e-11
5.63423e-11
5.61402e-11
5.59325e-11
5.57195e-11
5.55012e-11
5.52777e-11
5.50492e-11
5.48157e-11
5.45775e-11
5.43345e-11
5.40869e-11
5.38349e-11
5.35785e-11
5.33178e-11
5.30529e-11
5.27839e-11
5.2511e-11
5.22343e-11
5.19538e-11
5.16696e-11
5.13819e-11
5.10907e-11
5.07961e-11
5.04983e-11
5.01974e-11
4.98933e-11
4.95863e-11
4.92764e-11
4.89638e-11
4.86484e-11
4.83305e-11
4.801e-11
4.76871e-11
4.73619e-11
4.70345e-11
4.6705e-11
4.63734e-11
4.60398e-11
4.57044e-11
4.53671e-11
4.50282e-11
4.46876e-11
4.43455e-11
4.4002e-11
4.36571e-11
4.33109e-11
4.29636e-11
4.26151e-11
4.22656e-11
4.19151e-11
4.15637e-11
4.12115e-11
4.08587e-11
4.05051e-11
4.0151e-11
3.97964e-11
3.94414e-11
3.90861e-11
3.87304e-11
3.83746e-11
3.80186e-11
3.76626e-11
3.73066e-11
3.69506e-11
3.65948e-11
3.62392e-11
3.58839e-11
3.55289e-11
3.51743e-11
3.48202e-11
3.44666e-11
3.41136e-11
3.37612e-11
3.34096e-11
3.30587e-11
3.27086e-11
3.23594e-11
3.20112e-11
3.16639e-11
3.13176e-11
3.09725e-11
3.06285e-11
3.02856e-11
2.99441e-11
2.96038e-11
2.92648e-11
2.89272e-11
2.85911e-11
2.82564e-11
2.79232e-11
2.75916e-11
2.72615e-11
2.69331e-11
2.66064e-11
2.62814e-11
2.59581e-11
2.56366e-11
2.53169e-11
2.49991e-11
2.46832e-11
2.43691e-11
2.40571e-11
2.3747e-11
2.34388e-11
2.31328e-11
2.28288e-11
2.25268e-11
2.2227e-11
2.19293e-11
2.16338e-11
2.13405e-11
2.10493e-11
2.07604e-11
2.04737e-11
2.01893e-11
1.99071e-11
1.96273e-11
1.93497e-11
1.90745e-11
1.88016e-11
1.85311e-11
1.82629e-11
1.79971e-11
1.77337e-11
1.74726e-11
1.7214e-11
1.69578e-11
1.67041e-11
1.64527e-11
1.62038e-11
1.59573e-11
1.57133e-11
1.54717e-11
1.52326e-11
1.49959e-11
1.47616e-11
1.45299e-11
1.43006e-11
1.40737e-11
1.38493e-11
1.36274e-11
1.34079e-11
1.31908e-11
1.29762e-11
1.27641e-11
1.25544e-11
1.23471e-11
1.21422e-11
1.19398e-11
1.17398e-11
1.15422e-11
1.13469e-11
1.11541e-11
1.09637e-11
1.07756e-11
1.05899e-11
1.04066e-11
1.02256e-11
1.00469e-11
9.87061e-12
9.69658e-12
9.52485e-12
9.35541e-12
9.18825e-12
9.02335e-12
8.86069e-12
8.70027e-12
8.54208e-12
8.38608e-12
8.23229e-12
8.08066e-12
7.93121e-12
7.78389e-12
7.63871e-12
7.49565e-12
7.35469e-12
7.21581e-12
7.079e-12
6.94423e-12
6.81151e-12
6.6808e-12
6.55209e-12
6.42536e-12
6.3006e-12
6.17778e-12
6.0569e-12
5.93793e-12
5.82085e-12
5.70565e-12
5.59231e-12
5.48081e-12
5.37113e-12
5.26326e-12
5.15717e-12
5.05285e-12
4.95028e-12
4.84944e-12
4.75032e-12
4.65288e-12
4.55713e-12
4.46303e-12
4.37056e-12
4.27972e-12
4.19048e-12
4.10283e-12
4.01674e-12
3.9322e-12
3.84918e-12
3.76768e-12
3.68767e-12
3.60914e-12
3.53206e-12
3.45642e-12
3.3822e-12
3.30938e-12
3.23795e-12
3.16789e-12
3.09918e-12
3.0318e-12
2.96574e-12
2.90098e-12
2.8375e-12
2.77529e-12
2.71432e-12
2.65459e-12
2.59607e-12
2.53876e-12
2.48262e-12
2.42766e-12
2.37385e-12
2.32117e-12
2.26961e-12
2.21916e-12
2.1698e-12
2.12152e-12
2.07429e-12
2.02811e-12
1.98297e-12
1.93884e-12
1.89571e-12
1.85358e-12
1.81242e-12
1.77222e-12
1.73297e-12
1.69466e-12
1.65727e-12
1.62079e-12
1.58521e-12
1.55051e-12
1.51669e-12
1.48373e-12
1.45162e-12
1.42035e-12
1.38991e-12
1.36029e-12
1.33147e-12
1.30344e-12
1.2762e-12
1.24973e-12
1.22403e-12
1.19909e-12
1.17489e-12
1.15143e-12
1.12869e-12
1.10668e-12
1.08537e-12
1.06477e-12
1.04486e-12
1.02564e-12
1.00709e-12
9.89218e-13
9.72008e-13
9.55456e-13
9.39554e-13
9.24295e-13
9.09675e-13
8.95686e-13
8.82323e-13
8.69581e-13
8.57454e-13
8.45938e-13
8.35026e-13
8.24716e-13
8.15002e-13
8.05881e-13
7.97348e-13
7.89401e-13
7.82035e-13
7.75247e-13
7.69036e-13
7.63397e-13
7.58329e-13
7.5383e-13
7.49897e-13
7.46529e-13
7.43725e-13
7.41483e-13
7.39802e-13
7.38682e-13
7.38122e-13
9.47831e-13
2.84121e-12
4.72783e-12
6.60343e-12
8.46404e-12
1.0306e-11
1.21259e-11
1.39207e-11
1.56877e-11
1.74243e-11
1.91285e-11
2.07983e-11
2.24321e-11
2.40284e-11
2.55861e-11
2.71042e-11
2.8582e-11
3.0019e-11
3.14146e-11
3.27688e-11
3.40815e-11
3.53527e-11
3.65826e-11
3.77716e-11
3.892e-11
4.00284e-11
4.10972e-11
4.21272e-11
4.3119e-11
4.40733e-11
4.4991e-11
4.58727e-11
4.67194e-11
4.75318e-11
4.83109e-11
4.90574e-11
4.97723e-11
5.04565e-11
5.11107e-11
5.17358e-11
5.23326e-11
5.29021e-11
5.34449e-11
5.39619e-11
5.44539e-11
5.49216e-11
5.53657e-11
5.5787e-11
5.61862e-11
5.65639e-11
5.69209e-11
5.72576e-11
5.75748e-11
5.7873e-11
5.81529e-11
5.84149e-11
5.86595e-11
5.88874e-11
5.90989e-11
5.92946e-11
5.94749e-11
5.96403e-11
5.97911e-11
5.99278e-11
6.00508e-11
6.01604e-11
6.02571e-11
6.0341e-11
6.04127e-11
6.04723e-11
6.05203e-11
6.05568e-11
6.05823e-11
6.05969e-11
6.06009e-11
6.05946e-11
6.05783e-11
6.05521e-11
6.05164e-11
6.04712e-11
6.04169e-11
6.03537e-11
6.02816e-11
6.02011e-11
6.01121e-11
6.0015e-11
5.99099e-11
5.97969e-11
5.96763e-11
5.95482e-11
5.94127e-11
5.927e-11
5.91204e-11
5.89638e-11
5.88005e-11
5.86306e-11
5.84543e-11
5.82716e-11
5.80828e-11
5.78879e-11
5.76871e-11
5.74805e-11
5.72682e-11
5.70504e-11
5.68272e-11
5.65986e-11
5.63649e-11
5.61262e-11
5.58825e-11
5.56339e-11
5.53806e-11
5.51227e-11
5.48604e-11
5.45936e-11
5.43226e-11
5.40473e-11
5.3768e-11
5.34848e-11
5.31977e-11
5.29068e-11
5.26123e-11
5.23143e-11
5.20128e-11
5.17079e-11
5.13999e-11
5.10886e-11
5.07743e-11
5.04571e-11
5.0137e-11
4.98142e-11
4.94887e-11
4.91606e-11
4.883e-11
4.84971e-11
4.81619e-11
4.78245e-11
4.7485e-11
4.71434e-11
4.68e-11
4.64547e-11
4.61077e-11
4.5759e-11
4.54087e-11
4.5057e-11
4.47038e-11
4.43494e-11
4.39937e-11
4.36369e-11
4.3279e-11
4.29201e-11
4.25604e-11
4.21998e-11
4.18384e-11
4.14764e-11
4.11139e-11
4.07508e-11
4.03873e-11
4.00234e-11
3.96592e-11
3.92949e-11
3.89304e-11
3.85658e-11
3.82013e-11
3.78368e-11
3.74724e-11
3.71083e-11
3.67445e-11
3.6381e-11
3.60179e-11
3.56553e-11
3.52932e-11
3.49318e-11
3.45709e-11
3.42109e-11
3.38516e-11
3.34931e-11
3.31355e-11
3.27789e-11
3.24233e-11
3.20688e-11
3.17153e-11
3.13631e-11
3.1012e-11
3.06623e-11
3.03138e-11
2.99667e-11
2.9621e-11
2.92768e-11
2.89341e-11
2.85929e-11
2.82534e-11
2.79154e-11
2.75791e-11
2.72446e-11
2.69117e-11
2.65807e-11
2.62515e-11
2.59242e-11
2.55987e-11
2.52752e-11
2.49536e-11
2.46341e-11
2.43165e-11
2.4001e-11
2.36876e-11
2.33763e-11
2.30672e-11
2.27602e-11
2.24553e-11
2.21527e-11
2.18523e-11
2.15542e-11
2.12583e-11
2.09648e-11
2.06735e-11
2.03846e-11
2.0098e-11
1.98138e-11
1.9532e-11
1.92526e-11
1.89755e-11
1.87009e-11
1.84288e-11
1.8159e-11
1.78917e-11
1.76269e-11
1.73646e-11
1.71047e-11
1.68473e-11
1.65924e-11
1.63401e-11
1.60902e-11
1.58428e-11
1.55979e-11
1.53556e-11
1.51157e-11
1.48784e-11
1.46436e-11
1.44113e-11
1.41815e-11
1.39542e-11
1.37295e-11
1.35072e-11
1.32875e-11
1.30702e-11
1.28555e-11
1.26432e-11
1.24335e-11
1.22262e-11
1.20214e-11
1.1819e-11
1.16191e-11
1.14217e-11
1.12267e-11
1.10341e-11
1.08439e-11
1.06562e-11
1.04709e-11
1.02879e-11
1.01074e-11
9.92916e-12
9.75331e-12
9.57981e-12
9.40864e-12
9.23978e-12
9.07322e-12
8.90896e-12
8.74696e-12
8.58723e-12
8.42974e-12
8.27449e-12
8.12144e-12
7.9706e-12
7.82194e-12
7.67544e-12
7.5311e-12
7.38889e-12
7.24879e-12
7.1108e-12
6.97489e-12
6.84104e-12
6.70924e-12
6.57948e-12
6.45172e-12
6.32596e-12
6.20218e-12
6.08035e-12
5.96047e-12
5.84251e-12
5.72645e-12
5.61227e-12
5.49996e-12
5.3895e-12
5.28087e-12
5.17405e-12
5.06902e-12
4.96576e-12
4.86426e-12
4.76449e-12
4.66643e-12
4.57007e-12
4.4754e-12
4.38238e-12
4.291e-12
4.20124e-12
4.11309e-12
4.02651e-12
3.94151e-12
3.85805e-12
3.77612e-12
3.6957e-12
3.61678e-12
3.53932e-12
3.46332e-12
3.38876e-12
3.31562e-12
3.24388e-12
3.17352e-12
3.10452e-12
3.03688e-12
2.97056e-12
2.90556e-12
2.84185e-12
2.77943e-12
2.71826e-12
2.65834e-12
2.59965e-12
2.54217e-12
2.48589e-12
2.43078e-12
2.37684e-12
2.32405e-12
2.27239e-12
2.22185e-12
2.1724e-12
2.12405e-12
2.07676e-12
2.03053e-12
1.98534e-12
1.94118e-12
1.89804e-12
1.85589e-12
1.81473e-12
1.77454e-12
1.73531e-12
1.69702e-12
1.65967e-12
1.62323e-12
1.5877e-12
1.55307e-12
1.51932e-12
1.48644e-12
1.45442e-12
1.42325e-12
1.39291e-12
1.3634e-12
1.3347e-12
1.30681e-12
1.27971e-12
1.25339e-12
1.22785e-12
1.20307e-12
1.17905e-12
1.15577e-12
1.13322e-12
1.11141e-12
1.09031e-12
1.06992e-12
1.05024e-12
1.03125e-12
1.01295e-12
9.95323e-13
9.78373e-13
9.6209e-13
9.46465e-13
9.31494e-13
9.1717e-13
9.03487e-13
8.90439e-13
8.78021e-13
8.66228e-13
8.55055e-13
8.44498e-13
8.34551e-13
8.25211e-13
8.16473e-13
8.08335e-13
8.00793e-13
7.93842e-13
7.87482e-13
7.81708e-13
7.76518e-13
7.71911e-13
7.67884e-13
7.64435e-13
7.61563e-13
7.59268e-13
7.57547e-13
7.564e-13
7.55827e-13
9.5558e-13
2.86462e-12
4.76734e-12
6.6597e-12
8.53786e-12
1.03982e-11
1.22375e-11
1.40527e-11
1.58409e-11
1.75997e-11
1.93268e-11
2.10203e-11
2.26785e-11
2.42998e-11
2.5883e-11
2.74271e-11
2.89312e-11
3.03947e-11
3.18171e-11
3.31982e-11
3.45378e-11
3.58359e-11
3.70926e-11
3.83082e-11
3.9483e-11
4.06174e-11
4.17119e-11
4.27672e-11
4.37838e-11
4.47625e-11
4.5704e-11
4.6609e-11
4.74785e-11
4.83131e-11
4.91137e-11
4.98811e-11
5.06163e-11
5.13201e-11
5.19933e-11
5.26367e-11
5.32513e-11
5.38378e-11
5.4397e-11
5.49298e-11
5.54369e-11
5.59191e-11
5.63772e-11
5.68118e-11
5.72237e-11
5.76135e-11
5.7982e-11
5.83297e-11
5.86573e-11
5.89655e-11
5.92547e-11
5.95256e-11
5.97786e-11
6.00144e-11
6.02333e-11
6.0436e-11
6.06229e-11
6.07944e-11
6.09509e-11
6.10929e-11
6.12208e-11
6.13349e-11
6.14356e-11
6.15234e-11
6.15985e-11
6.16612e-11
6.17119e-11
6.17509e-11
6.17785e-11
6.1795e-11
6.18006e-11
6.17956e-11
6.17802e-11
6.17548e-11
6.17195e-11
6.16745e-11
6.16202e-11
6.15567e-11
6.14842e-11
6.14029e-11
6.1313e-11
6.12147e-11
6.11082e-11
6.09937e-11
6.08714e-11
6.07413e-11
6.06037e-11
6.04587e-11
6.03066e-11
6.01474e-11
5.99813e-11
5.98084e-11
5.9629e-11
5.9443e-11
5.92507e-11
5.90523e-11
5.88478e-11
5.86373e-11
5.84211e-11
5.81992e-11
5.79717e-11
5.77388e-11
5.75006e-11
5.72573e-11
5.70089e-11
5.67555e-11
5.64973e-11
5.62344e-11
5.59669e-11
5.56949e-11
5.54185e-11
5.51379e-11
5.48531e-11
5.45642e-11
5.42714e-11
5.39748e-11
5.36744e-11
5.33705e-11
5.3063e-11
5.27521e-11
5.24378e-11
5.21204e-11
5.17998e-11
5.14762e-11
5.11497e-11
5.08204e-11
5.04884e-11
5.01537e-11
4.98165e-11
4.94769e-11
4.9135e-11
4.87908e-11
4.84445e-11
4.80961e-11
4.77457e-11
4.73935e-11
4.70395e-11
4.66838e-11
4.63264e-11
4.59676e-11
4.56074e-11
4.52458e-11
4.48829e-11
4.45189e-11
4.41538e-11
4.37877e-11
4.34207e-11
4.30528e-11
4.26842e-11
4.23149e-11
4.1945e-11
4.15746e-11
4.12037e-11
4.08325e-11
4.0461e-11
4.00893e-11
3.97174e-11
3.93455e-11
3.89735e-11
3.86017e-11
3.823e-11
3.78585e-11
3.74873e-11
3.71165e-11
3.67461e-11
3.63761e-11
3.60068e-11
3.5638e-11
3.52699e-11
3.49025e-11
3.4536e-11
3.41703e-11
3.38055e-11
3.34416e-11
3.30789e-11
3.27171e-11
3.23566e-11
3.19972e-11
3.16391e-11
3.12822e-11
3.09267e-11
3.05726e-11
3.02199e-11
2.98688e-11
2.95191e-11
2.9171e-11
2.88246e-11
2.84798e-11
2.81367e-11
2.77954e-11
2.74559e-11
2.71181e-11
2.67823e-11
2.64483e-11
2.61163e-11
2.57862e-11
2.54582e-11
2.51322e-11
2.48082e-11
2.44863e-11
2.41666e-11
2.3849e-11
2.35336e-11
2.32203e-11
2.29094e-11
2.26006e-11
2.22942e-11
2.199e-11
2.16882e-11
2.13887e-11
2.10915e-11
2.07968e-11
2.05044e-11
2.02145e-11
1.99269e-11
1.96418e-11
1.93592e-11
1.90791e-11
1.88014e-11
1.85262e-11
1.82535e-11
1.79833e-11
1.77157e-11
1.74506e-11
1.7188e-11
1.69279e-11
1.66704e-11
1.64155e-11
1.61631e-11
1.59133e-11
1.5666e-11
1.54213e-11
1.51792e-11
1.49397e-11
1.47027e-11
1.44682e-11
1.42364e-11
1.40071e-11
1.37803e-11
1.35561e-11
1.33345e-11
1.31154e-11
1.28989e-11
1.26849e-11
1.24734e-11
1.22644e-11
1.2058e-11
1.1854e-11
1.16526e-11
1.14537e-11
1.12572e-11
1.10632e-11
1.08717e-11
1.06826e-11
1.04959e-11
1.03117e-11
1.01299e-11
9.95052e-12
9.77351e-12
9.59887e-12
9.4266e-12
9.25668e-12
9.08909e-12
8.92382e-12
8.76086e-12
8.60019e-12
8.44179e-12
8.28565e-12
8.13176e-12
7.98009e-12
7.83063e-12
7.68337e-12
7.53828e-12
7.39536e-12
7.25457e-12
7.11591e-12
6.97936e-12
6.8449e-12
6.71251e-12
6.58217e-12
6.45387e-12
6.32758e-12
6.20329e-12
6.08099e-12
5.96064e-12
5.84223e-12
5.72575e-12
5.61117e-12
5.49848e-12
5.38765e-12
5.27867e-12
5.17151e-12
5.06617e-12
4.96261e-12
4.86082e-12
4.76078e-12
4.66248e-12
4.56589e-12
4.47099e-12
4.37776e-12
4.28619e-12
4.19625e-12
4.10793e-12
4.0212e-12
3.93606e-12
3.85247e-12
3.77043e-12
3.68991e-12
3.61089e-12
3.53335e-12
3.45728e-12
3.38266e-12
3.30946e-12
3.23768e-12
3.16729e-12
3.09828e-12
3.03063e-12
2.96431e-12
2.89932e-12
2.83563e-12
2.77322e-12
2.71209e-12
2.65221e-12
2.59357e-12
2.53615e-12
2.47993e-12
2.4249e-12
2.37104e-12
2.31834e-12
2.26677e-12
2.21633e-12
2.16699e-12
2.11875e-12
2.07159e-12
2.02549e-12
1.98043e-12
1.93641e-12
1.89341e-12
1.85142e-12
1.81042e-12
1.77039e-12
1.73133e-12
1.69322e-12
1.65605e-12
1.61981e-12
1.58447e-12
1.55004e-12
1.5165e-12
1.48383e-12
1.45203e-12
1.42108e-12
1.39097e-12
1.36169e-12
1.33323e-12
1.30559e-12
1.27874e-12
1.25268e-12
1.2274e-12
1.20289e-12
1.17914e-12
1.15614e-12
1.13388e-12
1.11235e-12
1.09155e-12
1.07147e-12
1.0521e-12
1.03343e-12
1.01545e-12
9.98155e-13
9.81542e-13
9.65602e-13
9.50328e-13
9.35715e-13
9.21755e-13
9.08443e-13
8.95774e-13
8.83743e-13
8.72344e-13
8.61573e-13
8.51425e-13
8.41896e-13
8.32982e-13
8.24679e-13
8.16984e-13
8.09893e-13
8.03404e-13
7.97513e-13
7.92219e-13
7.87518e-13
7.8341e-13
7.79891e-13
7.76961e-13
7.74619e-13
7.72864e-13
7.71694e-13
7.71109e-13
9.62265e-13
2.88478e-12
4.8013e-12
6.70793e-12
8.60098e-12
1.04769e-11
1.23325e-11
1.41647e-11
1.59706e-11
1.77479e-11
1.94942e-11
2.12075e-11
2.28859e-11
2.45281e-11
2.61326e-11
2.76983e-11
2.92244e-11
3.07101e-11
3.21548e-11
3.35584e-11
3.49204e-11
3.62409e-11
3.752e-11
3.87578e-11
3.99545e-11
4.11107e-11
4.22267e-11
4.33031e-11
4.43405e-11
4.53396e-11
4.63011e-11
4.72256e-11
4.81141e-11
4.89672e-11
4.97858e-11
5.05708e-11
5.1323e-11
5.20433e-11
5.27324e-11
5.33912e-11
5.40206e-11
5.46214e-11
5.51944e-11
5.57404e-11
5.62602e-11
5.67546e-11
5.72243e-11
5.76701e-11
5.80926e-11
5.84927e-11
5.88708e-11
5.92278e-11
5.95642e-11
5.98806e-11
6.01778e-11
6.04561e-11
6.07162e-11
6.09586e-11
6.11838e-11
6.13924e-11
6.15847e-11
6.17613e-11
6.19227e-11
6.20691e-11
6.22011e-11
6.2319e-11
6.24233e-11
6.25142e-11
6.25922e-11
6.26576e-11
6.27106e-11
6.27517e-11
6.27811e-11
6.27991e-11
6.2806e-11
6.28021e-11
6.27875e-11
6.27627e-11
6.27278e-11
6.26831e-11
6.26287e-11
6.2565e-11
6.24921e-11
6.24102e-11
6.23195e-11
6.22203e-11
6.21127e-11
6.19969e-11
6.18731e-11
6.17414e-11
6.1602e-11
6.14551e-11
6.13009e-11
6.11395e-11
6.0971e-11
6.07957e-11
6.06136e-11
6.04249e-11
6.02298e-11
6.00284e-11
5.98207e-11
5.96071e-11
5.93875e-11
5.91621e-11
5.89311e-11
5.86946e-11
5.84526e-11
5.82054e-11
5.79531e-11
5.76957e-11
5.74333e-11
5.71662e-11
5.68944e-11
5.6618e-11
5.63372e-11
5.6052e-11
5.57626e-11
5.5469e-11
5.51715e-11
5.487e-11
5.45648e-11
5.42558e-11
5.39433e-11
5.36273e-11
5.33079e-11
5.29853e-11
5.26594e-11
5.23305e-11
5.19987e-11
5.16639e-11
5.13264e-11
5.09863e-11
5.06435e-11
5.02983e-11
4.99507e-11
4.96008e-11
4.92488e-11
4.88946e-11
4.85385e-11
4.81804e-11
4.78206e-11
4.7459e-11
4.70957e-11
4.6731e-11
4.63648e-11
4.59972e-11
4.56283e-11
4.52583e-11
4.48871e-11
4.45149e-11
4.41418e-11
4.37679e-11
4.33931e-11
4.30177e-11
4.26417e-11
4.22651e-11
4.18881e-11
4.15107e-11
4.11331e-11
4.07552e-11
4.03771e-11
3.9999e-11
3.96209e-11
3.92429e-11
3.88651e-11
3.84874e-11
3.81101e-11
3.77331e-11
3.73565e-11
3.69804e-11
3.66049e-11
3.623e-11
3.58558e-11
3.54823e-11
3.51097e-11
3.47379e-11
3.43671e-11
3.39972e-11
3.36284e-11
3.32607e-11
3.28941e-11
3.25288e-11
3.21647e-11
3.18019e-11
3.14405e-11
3.10805e-11
3.0722e-11
3.0365e-11
3.00095e-11
2.96557e-11
2.93035e-11
2.8953e-11
2.86042e-11
2.82572e-11
2.7912e-11
2.75687e-11
2.72272e-11
2.68877e-11
2.65502e-11
2.62146e-11
2.58811e-11
2.55497e-11
2.52203e-11
2.48931e-11
2.45681e-11
2.42452e-11
2.39245e-11
2.36061e-11
2.329e-11
2.29761e-11
2.26646e-11
2.23553e-11
2.20485e-11
2.1744e-11
2.14419e-11
2.11423e-11
2.08451e-11
2.05503e-11
2.0258e-11
1.99682e-11
1.96808e-11
1.9396e-11
1.91137e-11
1.8834e-11
1.85568e-11
1.82821e-11
1.801e-11
1.77405e-11
1.74735e-11
1.72092e-11
1.69474e-11
1.66882e-11
1.64317e-11
1.61777e-11
1.59263e-11
1.56776e-11
1.54314e-11
1.51879e-11
1.49469e-11
1.47086e-11
1.44729e-11
1.42398e-11
1.40093e-11
1.37814e-11
1.3556e-11
1.33333e-11
1.31132e-11
1.28956e-11
1.26806e-11
1.24682e-11
1.22583e-11
1.2051e-11
1.18462e-11
1.1644e-11
1.14442e-11
1.1247e-11
1.10523e-11
1.08601e-11
1.06703e-11
1.0483e-11
1.02982e-11
1.01158e-11
9.93588e-12
9.75835e-12
9.58321e-12
9.41047e-12
9.24009e-12
9.07208e-12
8.90641e-12
8.74307e-12
8.58204e-12
8.42331e-12
8.26686e-12
8.11267e-12
7.96073e-12
7.81102e-12
7.66352e-12
7.51822e-12
7.3751e-12
7.23414e-12
7.09531e-12
6.95862e-12
6.82403e-12
6.69153e-12
6.56109e-12
6.43271e-12
6.30635e-12
6.18201e-12
6.05967e-12
5.93929e-12
5.82087e-12
5.70439e-12
5.58983e-12
5.47716e-12
5.36636e-12
5.25743e-12
5.15033e-12
5.04506e-12
4.94158e-12
4.83988e-12
4.73994e-12
4.64174e-12
4.54526e-12
4.45049e-12
4.3574e-12
4.26596e-12
4.17618e-12
4.08801e-12
4.00145e-12
3.91648e-12
3.83307e-12
3.75121e-12
3.67087e-12
3.59205e-12
3.51472e-12
3.43886e-12
3.36445e-12
3.29147e-12
3.21991e-12
3.14976e-12
3.08098e-12
3.01356e-12
2.94748e-12
2.88274e-12
2.8193e-12
2.75715e-12
2.69628e-12
2.63666e-12
2.57829e-12
2.52113e-12
2.46519e-12
2.41043e-12
2.35685e-12
2.30443e-12
2.25315e-12
2.20299e-12
2.15395e-12
2.106e-12
2.05914e-12
2.01333e-12
1.96858e-12
1.92487e-12
1.88218e-12
1.8405e-12
1.79981e-12
1.7601e-12
1.72135e-12
1.68357e-12
1.64672e-12
1.6108e-12
1.57579e-12
1.54169e-12
1.50848e-12
1.47615e-12
1.44469e-12
1.41408e-12
1.38431e-12
1.35538e-12
1.32728e-12
1.29998e-12
1.27349e-12
1.24779e-12
1.22287e-12
1.19873e-12
1.17534e-12
1.15272e-12
1.13083e-12
1.10969e-12
1.08927e-12
1.06958e-12
1.0506e-12
1.03232e-12
1.01474e-12
9.97849e-13
9.81645e-13
9.66117e-13
9.5126e-13
9.37068e-13
9.23536e-13
9.10656e-13
8.98425e-13
8.86837e-13
8.75887e-13
8.6557e-13
8.55883e-13
8.46821e-13
8.3838e-13
8.30557e-13
8.23349e-13
8.16752e-13
8.10763e-13
8.05381e-13
8.00602e-13
7.96425e-13
7.92848e-13
7.89869e-13
7.87488e-13
7.85704e-13
7.84514e-13
7.8392e-13
9.67751e-13
2.90132e-12
4.8291e-12
6.74736e-12
8.65247e-12
1.0541e-11
1.24097e-11
1.42556e-11
1.60758e-11
1.78679e-11
1.96295e-11
2.13586e-11
2.30534e-11
2.47122e-11
2.63337e-11
2.79168e-11
2.94604e-11
3.09638e-11
3.24265e-11
3.3848e-11
3.5228e-11
3.65665e-11
3.78635e-11
3.9119e-11
4.03334e-11
4.1507e-11
4.26402e-11
4.37336e-11
4.47877e-11
4.58031e-11
4.67806e-11
4.77208e-11
4.86245e-11
4.94925e-11
5.03257e-11
5.11248e-11
5.18906e-11
5.26241e-11
5.3326e-11
5.39972e-11
5.46385e-11
5.52508e-11
5.58349e-11
5.63915e-11
5.69216e-11
5.74257e-11
5.79048e-11
5.83596e-11
5.87907e-11
5.91989e-11
5.95849e-11
5.99493e-11
6.02928e-11
6.06159e-11
6.09194e-11
6.12037e-11
6.14695e-11
6.17173e-11
6.19476e-11
6.21608e-11
6.23576e-11
6.25384e-11
6.27036e-11
6.28536e-11
6.29889e-11
6.31099e-11
6.3217e-11