/*--------------------------------*- C++ -*----------------------------------*\
  =========                 |
  \\      /  F ield         | OpenFOAM: The Open Source CFD Toolbox
   \\    /   O peration     | Website:  https://openfoam.org
    \\  /    A nd           | Version:  10
     \\/     M anipulation  |
\*---------------------------------------------------------------------------*/
FoamFile
{
    format      ascii;
    class       volScalarField;
    location    "0.92";
    object      Exp1;
}
// * * * * * * * * * * * * * * * * * * * * * * * * * * * * * * * * * * * * * //

dimensions      [0 0 0 0 0 0 0];

internalField   uniform 0;

boundaryField
{
    frontAndBack
    {
        type            empty;
    }
    inlet
    {
        type            calculated;
        value           uniform 0;
    }
    outlet
    {
        type            calculated;
        value           uniform 0;
    }
    substrate
    {
        type            calculated;
        value           nonuniform List<scalar> 
400
(
5.98569e-16
1.79257e-15
2.97931e-15
4.15557e-15
5.31862e-15
6.46604e-15
7.59573e-15
8.70585e-15
9.79479e-15
1.08612e-14
1.19039e-14
1.29219e-14
1.39144e-14
1.48808e-14
1.58206e-14
1.67336e-14
1.76195e-14
1.84782e-14
1.93099e-14
2.01146e-14
2.08926e-14
2.16442e-14
2.23697e-14
2.30695e-14
2.37442e-14
2.43942e-14
2.50201e-14
2.56224e-14
2.62018e-14
2.67588e-14
2.7294e-14
2.78081e-14
2.83017e-14
2.87753e-14
2.92297e-14
2.96654e-14
3.0083e-14
3.0483e-14
3.08662e-14
3.12329e-14
3.15839e-14
3.19195e-14
3.22404e-14
3.25469e-14
3.28397e-14
3.31192e-14
3.33857e-14
3.36399e-14
3.3882e-14
3.41124e-14
3.43316e-14
3.454e-14
3.47378e-14
3.49255e-14
3.51034e-14
3.52717e-14
3.54307e-14
3.55809e-14
3.57223e-14
3.58554e-14
3.59803e-14
3.60973e-14
3.62067e-14
3.63085e-14
3.64032e-14
3.64907e-14
3.65715e-14
3.66455e-14
3.67131e-14
3.67743e-14
3.68294e-14
3.68785e-14
3.69217e-14
3.69593e-14
3.69912e-14
3.70177e-14
3.70388e-14
3.70548e-14
3.70657e-14
3.70715e-14
3.70726e-14
3.70688e-14
3.70604e-14
3.70475e-14
3.703e-14
3.70081e-14
3.6982e-14
3.69516e-14
3.69171e-14
3.68785e-14
3.6836e-14
3.67895e-14
3.67392e-14
3.66851e-14
3.66273e-14
3.65659e-14
3.65009e-14
3.64324e-14
3.63604e-14
3.62851e-14
3.62064e-14
3.61244e-14
3.60393e-14
3.59509e-14
3.58595e-14
3.5765e-14
3.56675e-14
3.55671e-14
3.54638e-14
3.53576e-14
3.52486e-14
3.51369e-14
3.50225e-14
3.49054e-14
3.47858e-14
3.46635e-14
3.45388e-14
3.44116e-14
3.4282e-14
3.41501e-14
3.40158e-14
3.38792e-14
3.37404e-14
3.35995e-14
3.34563e-14
3.33111e-14
3.31638e-14
3.30146e-14
3.28633e-14
3.27101e-14
3.25551e-14
3.23982e-14
3.22395e-14
3.2079e-14
3.19169e-14
3.17531e-14
3.15876e-14
3.14206e-14
3.1252e-14
3.10819e-14
3.09104e-14
3.07374e-14
3.0563e-14
3.03874e-14
3.02104e-14
3.00321e-14
2.98527e-14
2.9672e-14
2.94902e-14
2.93074e-14
2.91234e-14
2.89385e-14
2.87525e-14
2.85656e-14
2.83778e-14
2.81892e-14
2.79997e-14
2.78094e-14
2.76184e-14
2.74266e-14
2.72342e-14
2.70411e-14
2.68474e-14
2.66531e-14
2.64583e-14
2.6263e-14
2.60673e-14
2.58711e-14
2.56745e-14
2.54775e-14
2.52803e-14
2.50827e-14
2.48849e-14
2.46868e-14
2.44886e-14
2.42902e-14
2.40917e-14
2.3893e-14
2.36944e-14
2.34956e-14
2.32969e-14
2.30982e-14
2.28996e-14
2.2701e-14
2.25026e-14
2.23043e-14
2.21062e-14
2.19083e-14
2.17106e-14
2.15132e-14
2.13161e-14
2.11193e-14
2.09228e-14
2.07267e-14
2.0531e-14
2.03358e-14
2.01409e-14
1.99465e-14
1.97527e-14
1.95593e-14
1.93665e-14
1.91742e-14
1.89825e-14
1.87915e-14
1.8601e-14
1.84112e-14
1.82221e-14
1.80337e-14
1.7846e-14
1.7659e-14
1.74728e-14
1.72873e-14
1.71026e-14
1.69188e-14
1.67357e-14
1.65536e-14
1.63722e-14
1.61918e-14
1.60122e-14
1.58336e-14
1.56558e-14
1.5479e-14
1.53032e-14
1.51283e-14
1.49544e-14
1.47816e-14
1.46097e-14
1.44388e-14
1.4269e-14
1.41002e-14
1.39325e-14
1.37658e-14
1.36002e-14
1.34357e-14
1.32723e-14
1.31101e-14
1.29489e-14
1.27889e-14
1.263e-14
1.24722e-14
1.23156e-14
1.21601e-14
1.20059e-14
1.18527e-14
1.17008e-14
1.15501e-14
1.14005e-14
1.12522e-14
1.1105e-14
1.09591e-14
1.08143e-14
1.06708e-14
1.05285e-14
1.03875e-14
1.02476e-14
1.0109e-14
9.97162e-15
9.83547e-15
9.70056e-15
9.56689e-15
9.43446e-15
9.30327e-15
9.17333e-15
9.04463e-15
8.91718e-15
8.79097e-15
8.66601e-15
8.54229e-15
8.41981e-15
8.29858e-15
8.1786e-15
8.05985e-15
7.94235e-15
7.82608e-15
7.71106e-15
7.59726e-15
7.4847e-15
7.37338e-15
7.26327e-15
7.1544e-15
7.04675e-15
6.94032e-15
6.8351e-15
6.73109e-15
6.6283e-15
6.52671e-15
6.42632e-15
6.32713e-15
6.22913e-15
6.13232e-15
6.0367e-15
5.94225e-15
5.84898e-15
5.75688e-15
5.66594e-15
5.57616e-15
5.48754e-15
5.40007e-15
5.31373e-15
5.22854e-15
5.14448e-15
5.06154e-15
4.97973e-15
4.89903e-15
4.81944e-15
4.74095e-15
4.66356e-15
4.58726e-15
4.51204e-15
4.4379e-15
4.36483e-15
4.29283e-15
4.22188e-15
4.15199e-15
4.08314e-15
4.01533e-15
3.94855e-15
3.8828e-15
3.81806e-15
3.75434e-15
3.69163e-15
3.62991e-15
3.56918e-15
3.50944e-15
3.45068e-15
3.39289e-15
3.33607e-15
3.2802e-15
3.22529e-15
3.17132e-15
3.11829e-15
3.06619e-15
3.01501e-15
2.96476e-15
2.91542e-15
2.86698e-15
2.81944e-15
2.77279e-15
2.72704e-15
2.68216e-15
2.63815e-15
2.59501e-15
2.55274e-15
2.51131e-15
2.47074e-15
2.43101e-15
2.39212e-15
2.35406e-15
2.31682e-15
2.2804e-15
2.2448e-15
2.21001e-15
2.17602e-15
2.14282e-15
2.11042e-15
2.07881e-15
2.04797e-15
2.01792e-15
1.98863e-15
1.96011e-15
1.93235e-15
1.90535e-15
1.87911e-15
1.85361e-15
1.82885e-15
1.80483e-15
1.78155e-15
1.759e-15
1.73717e-15
1.71607e-15
1.69569e-15
1.67602e-15
1.65706e-15
1.63881e-15
1.62127e-15
1.60443e-15
1.58828e-15
1.57284e-15
1.55808e-15
1.54402e-15
1.53064e-15
1.51794e-15
1.50593e-15
1.4946e-15
1.48395e-15
1.47397e-15
1.46466e-15
1.45603e-15
1.44807e-15
1.44078e-15
1.43415e-15
1.42819e-15
1.4229e-15
1.41827e-15
1.4143e-15
1.41099e-15
1.40835e-15
1.40637e-15
1.40505e-15
1.40439e-15
)
;
    }
    Wall
    {
        type            calculated;
        value           nonuniform List<scalar> 
400
(
5.98571e-16
1.79258e-15
2.97931e-15
4.15558e-15
5.31862e-15
6.46605e-15
7.59574e-15
8.70586e-15
9.7948e-15
1.08612e-14
1.19039e-14
1.29219e-14
1.39144e-14
1.48808e-14
1.58206e-14
1.67336e-14
1.76195e-14
1.84782e-14
1.93099e-14
2.01146e-14
2.08926e-14
2.16442e-14
2.23696e-14
2.30695e-14
2.37442e-14
2.43942e-14
2.50201e-14
2.56224e-14
2.62018e-14
2.67588e-14
2.7294e-14
2.78081e-14
2.83017e-14
2.87753e-14
2.92297e-14
2.96654e-14
3.00829e-14
3.0483e-14
3.08661e-14
3.12329e-14
3.15838e-14
3.19195e-14
3.22403e-14
3.25469e-14
3.28397e-14
3.31191e-14
3.33857e-14
3.36398e-14
3.38819e-14
3.41124e-14
3.43316e-14
3.45399e-14
3.47378e-14
3.49255e-14
3.51033e-14
3.52716e-14
3.54307e-14
3.55808e-14
3.57223e-14
3.58553e-14
3.59802e-14
3.60972e-14
3.62066e-14
3.63084e-14
3.64031e-14
3.64907e-14
3.65714e-14
3.66454e-14
3.6713e-14
3.67743e-14
3.68293e-14
3.68784e-14
3.69216e-14
3.69592e-14
3.69911e-14
3.70176e-14
3.70387e-14
3.70547e-14
3.70655e-14
3.70714e-14
3.70725e-14
3.70687e-14
3.70603e-14
3.70473e-14
3.70299e-14
3.7008e-14
3.69819e-14
3.69515e-14
3.6917e-14
3.68784e-14
3.68359e-14
3.67894e-14
3.67391e-14
3.6685e-14
3.66272e-14
3.65658e-14
3.65008e-14
3.64323e-14
3.63603e-14
3.6285e-14
3.62063e-14
3.61243e-14
3.60392e-14
3.59508e-14
3.58594e-14
3.57649e-14
3.56674e-14
3.5567e-14
3.54637e-14
3.53575e-14
3.52485e-14
3.51368e-14
3.50224e-14
3.49053e-14
3.47856e-14
3.46634e-14
3.45387e-14
3.44115e-14
3.42819e-14
3.415e-14
3.40157e-14
3.38791e-14
3.37403e-14
3.35993e-14
3.34562e-14
3.3311e-14
3.31637e-14
3.30144e-14
3.28632e-14
3.271e-14
3.2555e-14
3.23981e-14
3.22394e-14
3.20789e-14
3.19168e-14
3.17529e-14
3.15875e-14
3.14205e-14
3.12519e-14
3.10818e-14
3.09102e-14
3.07373e-14
3.05629e-14
3.03873e-14
3.02103e-14
3.0032e-14
2.98526e-14
2.96719e-14
2.94901e-14
2.93073e-14
2.91233e-14
2.89384e-14
2.87524e-14
2.85655e-14
2.83777e-14
2.81891e-14
2.79996e-14
2.78093e-14
2.76183e-14
2.74265e-14
2.72341e-14
2.7041e-14
2.68473e-14
2.6653e-14
2.64582e-14
2.62629e-14
2.60672e-14
2.5871e-14
2.56744e-14
2.54775e-14
2.52802e-14
2.50826e-14
2.48848e-14
2.46868e-14
2.44885e-14
2.42901e-14
2.40916e-14
2.3893e-14
2.36943e-14
2.34955e-14
2.32968e-14
2.30981e-14
2.28995e-14
2.27009e-14
2.25025e-14
2.23042e-14
2.21061e-14
2.19082e-14
2.17106e-14
2.15132e-14
2.1316e-14
2.11192e-14
2.09228e-14
2.07267e-14
2.0531e-14
2.03357e-14
2.01408e-14
1.99465e-14
1.97526e-14
1.95592e-14
1.93664e-14
1.91741e-14
1.89825e-14
1.87914e-14
1.86009e-14
1.84112e-14
1.8222e-14
1.80336e-14
1.78459e-14
1.76589e-14
1.74727e-14
1.72872e-14
1.71026e-14
1.69187e-14
1.67357e-14
1.65535e-14
1.63722e-14
1.61917e-14
1.60121e-14
1.58335e-14
1.56558e-14
1.5479e-14
1.53031e-14
1.51283e-14
1.49544e-14
1.47815e-14
1.46096e-14
1.44388e-14
1.42689e-14
1.41001e-14
1.39324e-14
1.37658e-14
1.36002e-14
1.34357e-14
1.32723e-14
1.311e-14
1.29488e-14
1.27888e-14
1.26299e-14
1.24721e-14
1.23155e-14
1.21601e-14
1.20058e-14
1.18527e-14
1.17008e-14
1.155e-14
1.14005e-14
1.12521e-14
1.1105e-14
1.0959e-14
1.08143e-14
1.06708e-14
1.05285e-14
1.03874e-14
1.02476e-14
1.0109e-14
9.97158e-15
9.83543e-15
9.70052e-15
9.56685e-15
9.43443e-15
9.30324e-15
9.1733e-15
9.0446e-15
8.91715e-15
8.79094e-15
8.66597e-15
8.54226e-15
8.41978e-15
8.29855e-15
8.17857e-15
8.05982e-15
7.94232e-15
7.82605e-15
7.71103e-15
7.59723e-15
7.48468e-15
7.37335e-15
7.26325e-15
7.15437e-15
7.04672e-15
6.94029e-15
6.83507e-15
6.73107e-15
6.62828e-15
6.52669e-15
6.4263e-15
6.32711e-15
6.22911e-15
6.1323e-15
6.03668e-15
5.94223e-15
5.84896e-15
5.75686e-15
5.66592e-15
5.57614e-15
5.48752e-15
5.40005e-15
5.31371e-15
5.22852e-15
5.14446e-15
5.06153e-15
4.97971e-15
4.89901e-15
4.81942e-15
4.74093e-15
4.66354e-15
4.58724e-15
4.51202e-15
4.43788e-15
4.36481e-15
4.29281e-15
4.22187e-15
4.15197e-15
4.08312e-15
4.01531e-15
3.94854e-15
3.88278e-15
3.81805e-15
3.75433e-15
3.69161e-15
3.6299e-15
3.56917e-15
3.50943e-15
3.45067e-15
3.39288e-15
3.33605e-15
3.28019e-15
3.22527e-15
3.17131e-15
3.11827e-15
3.06618e-15
3.015e-15
2.96475e-15
2.9154e-15
2.86697e-15
2.81943e-15
2.77278e-15
2.72703e-15
2.68215e-15
2.63814e-15
2.595e-15
2.55273e-15
2.5113e-15
2.47073e-15
2.431e-15
2.39211e-15
2.35405e-15
2.31681e-15
2.2804e-15
2.24479e-15
2.21e-15
2.17601e-15
2.14282e-15
2.11041e-15
2.0788e-15
2.04797e-15
2.01791e-15
1.98862e-15
1.9601e-15
1.93235e-15
1.90535e-15
1.8791e-15
1.8536e-15
1.82884e-15
1.80483e-15
1.78154e-15
1.75899e-15
1.73717e-15
1.71606e-15
1.69568e-15
1.67601e-15
1.65706e-15
1.63881e-15
1.62126e-15
1.60442e-15
1.58828e-15
1.57283e-15
1.55808e-15
1.54401e-15
1.53063e-15
1.51794e-15
1.50593e-15
1.4946e-15
1.48394e-15
1.47396e-15
1.46466e-15
1.45603e-15
1.44807e-15
1.44077e-15
1.43415e-15
1.42819e-15
1.42289e-15
1.41826e-15
1.41429e-15
1.41099e-15
1.40835e-15
1.40637e-15
1.40504e-15
1.40438e-15
)
;
    }
}


// ************************************************************************* //
