/*--------------------------------*- C++ -*----------------------------------*\
  =========                 |
  \\      /  F ield         | OpenFOAM: The Open Source CFD Toolbox
   \\    /   O peration     | Website:  https://openfoam.org
    \\  /    A nd           | Version:  10
     \\/     M anipulation  |
\*---------------------------------------------------------------------------*/
FoamFile
{
    format      ascii;
    class       volScalarField;
    location    "0.3";
    object      s;
}
// * * * * * * * * * * * * * * * * * * * * * * * * * * * * * * * * * * * * * //

dimensions      [0 0 1 0 0 0 0];

internalField   nonuniform List<scalar> 
400
(
8.95085e-11
-1.40671e-10
1.54227e-09
4.15824e-08
1.04745e-07
7.33956e-08
2.31924e-08
7.12052e-10
-1.52204e-08
-1.70518e-07
-1.18023e-06
-1.95286e-06
3.10851e-07
1.90674e-06
-4.72105e-07
-1.31834e-07
2.79182e-08
2.87942e-10
-2.74554e-11
-1.22698e-12
1.00325e-09
8.40762e-08
-6.79452e-07
-7.47318e-06
-1.32241e-05
-7.24178e-06
-1.86135e-06
1.60044e-06
8.36159e-06
8.35268e-06
-6.90995e-06
-2.67662e-05
-2.10981e-05
1.22227e-05
1.42554e-05
-1.12823e-05
2.77789e-06
-2.24659e-07
3.70398e-09
-3.60916e-12
-2.29555e-07
-5.06223e-06
4.01998e-05
0.000261549
0.000357073
0.00015072
3.85229e-05
9.19796e-05
0.000151596
0.00018659
0.000110172
-6.80555e-05
-0.000103147
-1.61892e-05
2.11868e-05
6.59512e-06
-1.58239e-06
-3.2245e-07
2.8508e-08
-1.53265e-10
7.06916e-06
8.32066e-05
-0.000598175
-0.00286514
-0.00336481
-0.00116682
0.000113393
-6.285e-05
0.000146001
0.000638195
0.00060911
0.000240407
-0.00022194
-0.000347756
5.75995e-05
0.000174338
-8.1287e-05
1.051e-05
-3.22496e-07
1.24417e-09
-5.55913e-05
-0.00050919
0.00217417
0.00994765
0.0122248
0.00413601
-0.00376737
-0.00390571
-0.00103617
0.000689015
0.0016123
0.000854454
-0.000762958
-0.000528835
0.000315268
0.000202685
-0.000172894
3.65467e-05
-2.09313e-06
1.81659e-08
2.74455e-05
0.000968949
0.00324222
0.00088086
-0.0120285
-0.0179535
-0.00903728
-0.00349554
-0.00400325
-0.000141687
0.00285307
0.00014497
-0.00105464
4.17497e-05
0.000308565
-5.84491e-06
-0.000110076
4.10668e-05
-3.92782e-06
5.96219e-08
0.000501794
0.00175548
-0.00919497
-0.0304278
-0.0300744
-0.00455842
0.0039653
-0.00948464
-0.00844548
0.00281273
0.00221662
-0.00123846
-0.000228232
0.000257371
1.5436e-05
-6.41625e-05
-1.75069e-05
1.44838e-05
-2.80756e-06
8.10745e-08
0.000582341
-0.00279325
-0.026964
-0.0348092
0.0146723
0.0473185
0.0127964
-0.0162723
-0.00390354
0.00432199
-0.000516876
-0.000694968
0.000245797
7.75284e-06
-7.50483e-05
-4.91086e-05
-2.83157e-05
-1.34419e-05
-1.4374e-06
6.37235e-08
-0.000994152
-0.0117733
-0.0249989
0.0242543
0.109264
0.0892054
0.00292911
-0.0176654
0.00229992
0.00269218
-0.00108404
0.000104684
0.000208114
7.55556e-05
5.98906e-05
2.94423e-07
-4.28918e-05
-3.85034e-05
-1.06478e-05
3.89793e-07
-0.00487136
-0.0179844
0.0173488
0.138893
0.201206
0.0916062
-0.0156931
-0.0127035
0.00529118
0.000574134
-0.000593697
0.000498829
0.00060036
0.000873202
0.00102667
0.000792149
0.000351281
3.09291e-05
-3.7229e-05
1.64259e-06
-0.0105681
-0.0123692
0.10303
0.27213
0.251045
0.0614063
-0.0289547
-0.00517884
0.0051318
-0.000559227
-6.4184e-05
0.000810744
0.001764
0.00347337
0.0047817
0.00434213
0.00245198
0.000707563
-4.34973e-07
-5.05598e-06
-0.0166664
0.0114886
0.218796
0.386439
0.251328
0.0205746
-0.0322256
0.00092955
0.00364321
-0.00103147
-0.000402522
0.000379806
0.00334513
0.00932171
0.0147254
0.0146544
0.00916625
0.00336805
0.000513676
-6.74695e-05
-0.021338
0.0555155
0.344399
0.461002
0.217415
-0.0135997
-0.028643
0.00422106
0.0022244
-0.0019201
-0.0030805
-0.00330952
0.00307157
0.0189224
0.0349046
0.0377002
0.0253393
0.0105524
0.00260067
-0.000213391
-0.0226828
0.11774
0.461444
0.494267
0.171566
-0.0350075
-0.0242033
0.0046823
0.00147412
-0.00371917
-0.00963793
-0.0143223
-0.00331668
0.0312096
0.068559
0.0803306
0.0574231
0.0258337
0.00818754
6.59339e-05
-0.0185791
0.193825
0.558713
0.499849
0.134801
-0.0430017
-0.0215274
0.00531735
0.00464861
-0.00228091
-0.0163375
-0.0346294
-0.016246
0.0478161
0.118395
0.148506
0.112388
0.0532548
0.0196876
0.00282616
-0.00620211
0.278563
0.63485
0.502527
0.127191
-0.0422288
-0.0330467
-0.0118167
-0.00356563
0.000795851
-0.00982886
-0.0522522
-0.012954
0.0876245
0.192559
0.245625
0.195236
0.0963687
0.0392012
0.0116961
0.0157151
0.362096
0.695719
0.543251
0.184346
0.00471288
-0.0395071
-0.0484512
-0.0497497
-0.0484479
-0.0487258
-0.00537416
0.0887425
0.207195
0.315803
0.370744
0.302579
0.155799
0.0675617
0.0293733
0.0454687
0.435391
0.780762
0.707677
0.496242
0.353118
0.285645
0.263061
0.26528
0.282847
0.313536
0.360978
0.418979
0.476643
0.51747
0.509322
0.406386
0.221475
0.103074
0.0548045
0.0566509
0.441477
0.736879
0.829652
0.833939
0.818564
0.806929
0.803297
0.805643
0.810723
0.815729
0.809634
0.787557
0.744987
0.675732
0.570943
0.422985
0.25272
0.138494
0.0835606
0.00504129
0.117536
0.209844
0.268411
0.302557
0.320651
0.32852
0.32971
0.326145
0.318738
0.307857
0.295005
0.280448
0.264099
0.245726
0.225037
0.202056
0.177967
0.155222
0.108538
)
;

boundaryField
{
    movingWall
    {
        type            zeroGradient;
    }
    fixedWalls
    {
        type            zeroGradient;
    }
    frontAndBack
    {
        type            empty;
    }
}


// ************************************************************************* //
