/*--------------------------------*- C++ -*----------------------------------*\
  =========                 |
  \\      /  F ield         | OpenFOAM: The Open Source CFD Toolbox
   \\    /   O peration     | Website:  https://openfoam.org
    \\  /    A nd           | Version:  10
     \\/     M anipulation  |
\*---------------------------------------------------------------------------*/
FoamFile
{
    format      ascii;
    class       volScalarField;
    location    "0.1";
    object      growth;
}
// * * * * * * * * * * * * * * * * * * * * * * * * * * * * * * * * * * * * * //

dimensions      [0 0 0 0 0 0 0];

internalField   uniform 0;

boundaryField
{
    frontAndBack
    {
        type            empty;
    }
    inlet
    {
        type            calculated;
        value           uniform 0;
    }
    outlet
    {
        type            calculated;
        value           uniform 0;
    }
    substrate
    {
        type            calculated;
        value           nonuniform List<scalar> 
400
(
0.626575
0.597227
0.569723
0.543432
0.518066
0.493489
0.469639
0.44649
0.424038
0.402286
0.381245
0.360925
0.341335
0.322483
0.304374
0.287009
0.270387
0.254502
0.239347
0.224911
0.211179
0.198137
0.185765
0.174046
0.162957
0.152478
0.142586
0.133257
0.124468
0.116196
0.108417
0.101108
0.0942465
0.0878096
0.0817754
0.0761227
0.0708309
0.0658801
0.061251
0.0569252
0.0528851
0.0491138
0.0455951
0.0423139
0.0392554
0.0364058
0.033752
0.0312817
0.028983
0.0268448
0.0248568
0.0230091
0.0212924
0.0196979
0.0182176
0.0168436
0.0155688
0.0143864
0.0132901
0.0122739
0.0113322
0.0104599
0.00965203
0.00890414
0.00821196
0.00757152
0.00697913
0.00643134
0.00592494
0.00545694
0.00502454
0.00462516
0.00425637
0.00391593
0.00360175
0.00331188
0.00304452
0.00279798
0.00257071
0.00236126
0.00216829
0.00199054
0.00182687
0.0016762
0.00153754
0.00140996
0.00129261
0.0011847
0.00108551
0.00099434
0.000910579
0.000833643
0.000762995
0.00069814
0.00063862
0.000584011
0.000533921
0.000487991
0.000445886
0.000407298
0.000371945
0.000339564
0.000309914
0.000282772
0.000257933
0.000235209
0.000214425
0.000195421
0.000178049
0.000162175
0.000147673
0.000134429
0.000122336
0.000111299
0.000101228
9.20406e-05
8.36624e-05
7.60243e-05
6.90629e-05
6.27202e-05
5.6943e-05
5.16823e-05
4.68935e-05
4.25355e-05
3.85709e-05
3.49651e-05
3.16867e-05
2.87069e-05
2.59994e-05
2.35399e-05
2.13065e-05
1.92791e-05
1.74391e-05
1.57698e-05
1.42558e-05
1.28831e-05
1.1639e-05
1.05116e-05
9.49048e-06
8.5658e-06
7.72874e-06
6.97125e-06
6.28599e-06
5.66625e-06
5.10597e-06
4.59959e-06
4.14209e-06
3.72888e-06
3.35579e-06
3.01904e-06
2.71518e-06
2.44111e-06
2.19397e-06
1.97119e-06
1.77045e-06
1.58962e-06
1.42678e-06
1.28019e-06
1.14828e-06
1.02961e-06
9.22887e-07
8.26947e-07
7.40729e-07
6.63273e-07
5.93712e-07
5.31264e-07
4.75221e-07
4.24943e-07
3.79852e-07
3.39428e-07
3.032e-07
2.70744e-07
2.41678e-07
2.15656e-07
1.92368e-07
1.71535e-07
1.52903e-07
1.36247e-07
1.21362e-07
1.08065e-07
9.61904e-08
8.55899e-08
7.61302e-08
6.76917e-08
6.01668e-08
5.34591e-08
4.74819e-08
4.21578e-08
3.7417e-08
3.31972e-08
2.94425e-08
2.6103e-08
2.31337e-08
2.04947e-08
1.815e-08
1.60676e-08
1.42189e-08
1.25782e-08
1.11227e-08
9.83196e-09
8.68777e-09
7.67386e-09
6.77574e-09
5.98049e-09
5.2766e-09
4.6538e-09
4.10296e-09
3.61596e-09
3.18555e-09
2.80531e-09
2.46952e-09
2.1731e-09
1.91153e-09
1.6808e-09
1.47736e-09
1.29805e-09
1.14006e-09
1.00092e-09
8.78417e-10
7.70614e-10
6.75781e-10
5.92389e-10
5.19087e-10
4.54679e-10
3.98109e-10
3.48442e-10
3.04852e-10
2.66612e-10
2.33078e-10
2.03682e-10
1.77924e-10
1.55362e-10
1.35609e-10
1.1832e-10
1.03196e-10
8.99687e-11
7.84063e-11
6.83029e-11
5.9478e-11
5.17729e-11
4.50481e-11
3.91813e-11
3.4065e-11
2.96051e-11
2.57189e-11
2.2334e-11
1.93868e-11
1.68219e-11
1.45905e-11
1.265e-11
1.09632e-11
9.49758e-12
8.22459e-12
7.11936e-12
6.16019e-12
5.32811e-12
4.60658e-12
3.98115e-12
3.43926e-12
2.96993e-12
2.56361e-12
2.21199e-12
1.90783e-12
1.64483e-12
1.41751e-12
1.22112e-12
1.05151e-12
9.05089e-13
7.78744e-13
6.69764e-13
5.75802e-13
4.94821e-13
4.25057e-13
3.6498e-13
3.13267e-13
2.68772e-13
2.30503e-13
1.97603e-13
1.69329e-13
1.45042e-13
1.24187e-13
1.06288e-13
9.09317e-14
7.77621e-14
6.64727e-14
5.67991e-14
4.85133e-14
4.14194e-14
3.53483e-14
3.01547e-14
2.57136e-14
2.19176e-14
1.86744e-14
1.59045e-14
1.35399e-14
1.15221e-14
9.80105e-15
8.33361e-15
7.08297e-15
6.01753e-15
5.11026e-15
4.338e-15
3.68092e-15
3.12208e-15
2.647e-15
2.24328e-15
1.90036e-15
1.60919e-15
1.36207e-15
1.15243e-15
9.7465e-16
8.23956e-16
6.96274e-16
5.88134e-16
4.96585e-16
4.19113e-16
3.53581e-16
2.98173e-16
2.51343e-16
2.1178e-16
1.78371e-16
1.50171e-16
1.26376e-16
1.06308e-16
8.93895e-17
7.51324e-17
6.3123e-17
5.30114e-17
4.4501e-17
3.73414e-17
3.13207e-17
2.62599e-17
2.20077e-17
1.84364e-17
1.54382e-17
1.29222e-17
1.08118e-17
9.0423e-18
7.55926e-18
6.31684e-18
5.27643e-18
4.40555e-18
3.67689e-18
3.06747e-18
2.55799e-18
2.13225e-18
1.77663e-18
1.47971e-18
1.2319e-18
1.02517e-18
8.5277e-19
7.09072e-19
5.89343e-19
4.89627e-19
4.06614e-19
3.37536e-19
2.80076e-19
2.32302e-19
1.92597e-19
1.59612e-19
1.32221e-19
1.09486e-19
9.06217e-20
7.49769e-20
6.20073e-20
5.12599e-20
4.23577e-20
3.4987e-20
2.8887e-20
2.38406e-20
1.96676e-20
1.62184e-20
1.33685e-20
1.10149e-20
9.07189e-21
7.46858e-21
6.14613e-21
5.0558e-21
4.15725e-21
3.41707e-21
2.80762e-21
2.30604e-21
1.89346e-21
1.55426e-21
1.27555e-21
1.0467e-21
8.58939e-22
7.05049e-22
5.79081e-22
4.76148e-22
3.92242e-22
3.2408e-22
2.68988e-22
2.24794e-22
1.89753e-22
1.62472e-22
1.41865e-22
1.27103e-22
1.17585e-22
1.12918e-22
)
;
    }
    Wall
    {
        type            calculated;
        value           nonuniform List<scalar> 
400
(
0.626575
0.597227
0.569723
0.543432
0.518066
0.49349
0.46964
0.446492
0.42404
0.402289
0.381249
0.360929
0.341339
0.322488
0.304379
0.287015
0.270393
0.254509
0.239354
0.224918
0.211186
0.198144
0.185773
0.174053
0.162965
0.152486
0.142593
0.133264
0.124476
0.116203
0.108425
0.101116
0.0942539
0.0878169
0.0817826
0.0761298
0.0708378
0.0658868
0.0612576
0.0569316
0.0528914
0.0491199
0.0456011
0.0423196
0.0392609
0.0364112
0.0337572
0.0312867
0.0289878
0.0268495
0.0248613
0.0230134
0.0212965
0.0197019
0.0182214
0.0168473
0.0155723
0.0143898
0.0132933
0.0122769
0.0113351
0.0104626
0.00965463
0.00890662
0.00821431
0.00757375
0.00698124
0.00643334
0.00592684
0.00545873
0.00502624
0.00462677
0.00425789
0.00391737
0.0036031
0.00331315
0.00304572
0.00279911
0.00257177
0.00236226
0.00216923
0.00199142
0.0018277
0.00167698
0.00153827
0.00141064
0.00129325
0.0011853
0.00108607
0.000994866
0.000911071
0.000834102
0.000763424
0.000698541
0.000638994
0.000584359
0.000534246
0.000488293
0.000446168
0.000407561
0.000372189
0.000339791
0.000310125
0.000282968
0.000258115
0.000235378
0.000214581
0.000195566
0.000178184
0.0001623
0.000147789
0.000134536
0.000122435
0.000111391
0.000101312
9.21188e-05
8.37347e-05
7.6091e-05
6.91245e-05
6.2777e-05
5.69953e-05
5.17306e-05
4.69379e-05
4.25765e-05
3.86085e-05
3.49998e-05
3.17186e-05
2.87362e-05
2.60263e-05
2.35647e-05
2.13292e-05
1.92999e-05
1.74582e-05
1.57873e-05
1.42719e-05
1.28979e-05
1.16525e-05
1.0524e-05
9.50178e-06
8.57613e-06
7.73819e-06
6.97989e-06
6.29387e-06
5.67346e-06
5.11254e-06
4.60559e-06
4.14756e-06
3.73387e-06
3.36034e-06
3.02318e-06
2.71896e-06
2.44454e-06
2.19709e-06
1.97404e-06
1.77304e-06
1.59197e-06
1.42891e-06
1.28213e-06
1.15003e-06
1.0312e-06
9.24334e-07
8.28259e-07
7.41918e-07
6.6435e-07
5.94688e-07
5.32147e-07
4.7602e-07
4.25665e-07
3.80505e-07
3.40018e-07
3.03733e-07
2.71225e-07
2.42112e-07
2.16048e-07
1.92722e-07
1.71854e-07
1.53191e-07
1.36506e-07
1.21595e-07
1.08275e-07
9.63792e-08
8.57596e-08
7.62828e-08
6.78288e-08
6.029e-08
5.35697e-08
4.75812e-08
4.22468e-08
3.74968e-08
3.32688e-08
2.95067e-08
2.61604e-08
2.31852e-08
2.05407e-08
1.81912e-08
1.61045e-08
1.42518e-08
1.26076e-08
1.1149e-08
9.85543e-09
8.70871e-09
7.69255e-09
6.79241e-09
5.99535e-09
5.28983e-09
4.66559e-09
4.11345e-09
3.62529e-09
3.19386e-09
2.8127e-09
2.47609e-09
2.17893e-09
1.91671e-09
1.6854e-09
1.48144e-09
1.30166e-09
1.14327e-09
1.00376e-09
8.80936e-10
7.72845e-10
6.77755e-10
5.94136e-10
5.20632e-10
4.56046e-10
3.99316e-10
3.49508e-10
3.05794e-10
2.67443e-10
2.33811e-10
2.04328e-10
1.78494e-10
1.55865e-10
1.36051e-10
1.1871e-10
1.03538e-10
9.02701e-11
7.86714e-11
6.85359e-11
5.96827e-11
5.19526e-11
4.52059e-11
3.93197e-11
3.41865e-11
2.97116e-11
2.58122e-11
2.24157e-11
1.94584e-11
1.68845e-11
1.46453e-11
1.26979e-11
1.10051e-11
9.53418e-12
8.25655e-12
7.14727e-12
6.18455e-12
5.34936e-12
4.6251e-12
3.99729e-12
3.45332e-12
2.98217e-12
2.57427e-12
2.22127e-12
1.9159e-12
1.65184e-12
1.42361e-12
1.22641e-12
1.0561e-12
9.09077e-13
7.82203e-13
6.72764e-13
5.78402e-13
4.97074e-13
4.27007e-13
3.66669e-13
3.14728e-13
2.70036e-13
2.31596e-13
1.98547e-13
1.70145e-13
1.45746e-13
1.24795e-13
1.06813e-13
9.13838e-14
7.81518e-14
6.68085e-14
5.70882e-14
4.87622e-14
4.16335e-14
3.55325e-14
3.0313e-14
2.58497e-14
2.20345e-14
1.87748e-14
1.59907e-14
1.36138e-14
1.15855e-14
9.85537e-15
8.38015e-15
7.12283e-15
6.05166e-15
5.13946e-15
4.36297e-15
3.70227e-15
3.14033e-15
2.66259e-15
2.25659e-15
1.91172e-15
1.61888e-15
1.37034e-15
1.15947e-15
9.80652e-16
8.29067e-16
7.00624e-16
5.91836e-16
4.99734e-16
4.2179e-16
3.55856e-16
3.00105e-16
2.52984e-16
2.13173e-16
1.79553e-16
1.51173e-16
1.27225e-16
1.07027e-16
8.99988e-17
7.56482e-17
6.35595e-17
5.33805e-17
4.48131e-17
3.76052e-17
3.15435e-17
2.6448e-17
2.21664e-17
1.85703e-17
1.55511e-17
1.30174e-17
1.0892e-17
9.10984e-18
7.61612e-18
6.36468e-18
5.31667e-18
4.43938e-18
3.70531e-18
3.09135e-18
2.57804e-18
2.14908e-18
1.79075e-18
1.49155e-18
1.24182e-18
1.03348e-18
8.59732e-19
7.14899e-19
5.94219e-19
4.93705e-19
4.10024e-19
3.40385e-19
2.82456e-19
2.34289e-19
1.94255e-19
1.60995e-19
1.33375e-19
1.10447e-19
9.14228e-20
7.56441e-20
6.25626e-20
5.1722e-20
4.27421e-20
3.53066e-20
2.91525e-20
2.40611e-20
1.98508e-20
1.63704e-20
1.34946e-20
1.11194e-20
9.15856e-21
7.54038e-21
6.20559e-21
5.10503e-21
4.19798e-21
3.45076e-21
2.83547e-21
2.32907e-21
1.91248e-21
1.56996e-21
1.28851e-21
1.0574e-21
8.67768e-22
7.12334e-22
5.85093e-22
4.81112e-22
3.96345e-22
3.2748e-22
2.71815e-22
2.2716e-22
1.91752e-22
1.6419e-22
1.43378e-22
1.28486e-22
1.18905e-22
1.14153e-22
)
;
    }
}


// ************************************************************************* //
