/*--------------------------------*- C++ -*----------------------------------*\
  =========                 |
  \\      /  F ield         | OpenFOAM: The Open Source CFD Toolbox
   \\    /   O peration     | Website:  https://openfoam.org
    \\  /    A nd           | Version:  10
     \\/     M anipulation  |
\*---------------------------------------------------------------------------*/
FoamFile
{
    format      ascii;
    class       volScalarField;
    location    "0.32";
    object      Exp1;
}
// * * * * * * * * * * * * * * * * * * * * * * * * * * * * * * * * * * * * * //

dimensions      [0 0 0 0 0 0 0];

internalField   uniform 0;

boundaryField
{
    frontAndBack
    {
        type            empty;
    }
    inlet
    {
        type            calculated;
        value           uniform 0;
    }
    outlet
    {
        type            calculated;
        value           uniform 0;
    }
    substrate
    {
        type            calculated;
        value           nonuniform List<scalar> 
400
(
4.23078e-07
1.26687e-06
2.10512e-06
2.93528e-06
3.75517e-06
4.56282e-06
5.35649e-06
6.13465e-06
6.89592e-06
7.63913e-06
8.36323e-06
9.06733e-06
9.7507e-06
1.04127e-05
1.10529e-05
1.16709e-05
1.22663e-05
1.28391e-05
1.33892e-05
1.39165e-05
1.44211e-05
1.49031e-05
1.53626e-05
1.58001e-05
1.62156e-05
1.66095e-05
1.69822e-05
1.73339e-05
1.76652e-05
1.79764e-05
1.82679e-05
1.85401e-05
1.87936e-05
1.90287e-05
1.92459e-05
1.94456e-05
1.96283e-05
1.97944e-05
1.99444e-05
2.00787e-05
2.01978e-05
2.03021e-05
2.03919e-05
2.04679e-05
2.05302e-05
2.05794e-05
2.06159e-05
2.064e-05
2.06521e-05
2.06526e-05
2.06419e-05
2.06203e-05
2.05883e-05
2.0546e-05
2.0494e-05
2.04324e-05
2.03617e-05
2.02822e-05
2.01941e-05
2.00979e-05
1.99938e-05
1.9882e-05
1.9763e-05
1.96369e-05
1.95041e-05
1.93649e-05
1.92195e-05
1.90682e-05
1.89112e-05
1.87489e-05
1.85814e-05
1.84091e-05
1.82321e-05
1.80507e-05
1.78652e-05
1.76758e-05
1.74826e-05
1.7286e-05
1.70862e-05
1.68833e-05
1.66777e-05
1.64694e-05
1.62587e-05
1.60458e-05
1.5831e-05
1.56143e-05
1.5396e-05
1.51762e-05
1.49552e-05
1.47331e-05
1.45101e-05
1.42863e-05
1.4062e-05
1.38372e-05
1.36122e-05
1.33871e-05
1.3162e-05
1.29371e-05
1.27124e-05
1.24883e-05
1.22647e-05
1.20418e-05
1.18198e-05
1.15987e-05
1.13786e-05
1.11598e-05
1.09422e-05
1.07259e-05
1.05112e-05
1.0298e-05
1.00865e-05
9.87673e-06
9.66878e-06
9.46274e-06
9.25867e-06
9.05665e-06
8.85675e-06
8.65902e-06
8.46353e-06
8.27034e-06
8.07948e-06
7.89102e-06
7.70499e-06
7.52145e-06
7.34042e-06
7.16194e-06
6.98604e-06
6.81276e-06
6.64212e-06
6.47413e-06
6.30883e-06
6.14622e-06
5.98632e-06
5.82915e-06
5.6747e-06
5.523e-06
5.37403e-06
5.2278e-06
5.08432e-06
4.94357e-06
4.80556e-06
4.67027e-06
4.53769e-06
4.40782e-06
4.28064e-06
4.15614e-06
4.03429e-06
3.91509e-06
3.7985e-06
3.68451e-06
3.5731e-06
3.46425e-06
3.35792e-06
3.25409e-06
3.15273e-06
3.05382e-06
2.95732e-06
2.86321e-06
2.77145e-06
2.68201e-06
2.59486e-06
2.50996e-06
2.42729e-06
2.3468e-06
2.26847e-06
2.19224e-06
2.1181e-06
2.04601e-06
1.97592e-06
1.9078e-06
1.84162e-06
1.77733e-06
1.71491e-06
1.6543e-06
1.59549e-06
1.53842e-06
1.48307e-06
1.42939e-06
1.37736e-06
1.32692e-06
1.27805e-06
1.23072e-06
1.18488e-06
1.14049e-06
1.09754e-06
1.05597e-06
1.01575e-06
9.76863e-07
9.39259e-07
9.0291e-07
8.67782e-07
8.33843e-07
8.01061e-07
7.69406e-07
7.38845e-07
7.09349e-07
6.80887e-07
6.53431e-07
6.26951e-07
6.01418e-07
5.76806e-07
5.53087e-07
5.30233e-07
5.08219e-07
4.87019e-07
4.66607e-07
4.4696e-07
4.28053e-07
4.09863e-07
3.92366e-07
3.7554e-07
3.59363e-07
3.43815e-07
3.28873e-07
3.14517e-07
3.00729e-07
2.87488e-07
2.74775e-07
2.62573e-07
2.50864e-07
2.39629e-07
2.28853e-07
2.18519e-07
2.08611e-07
1.99114e-07
1.90012e-07
1.81291e-07
1.72938e-07
1.64938e-07
1.57278e-07
1.49945e-07
1.42926e-07
1.36211e-07
1.29787e-07
1.23642e-07
1.17766e-07
1.12148e-07
1.06779e-07
1.01648e-07
9.67451e-08
9.20619e-08
8.75893e-08
8.33188e-08
7.92419e-08
7.53508e-08
7.16377e-08
6.80953e-08
6.47163e-08
6.1494e-08
5.84216e-08
5.54927e-08
5.27013e-08
5.00414e-08
4.75074e-08
4.50937e-08
4.27951e-08
4.06065e-08
3.85231e-08
3.65402e-08
3.46533e-08
3.28582e-08
3.11507e-08
2.95268e-08
2.79828e-08
2.6515e-08
2.51199e-08
2.37941e-08
2.25345e-08
2.1338e-08
2.02015e-08
1.91224e-08
1.80979e-08
1.71255e-08
1.62026e-08
1.53268e-08
1.4496e-08
1.3708e-08
1.29607e-08
1.22521e-08
1.15804e-08
1.09437e-08
1.03404e-08
9.76868e-09
9.22711e-09
8.71417e-09
8.22842e-09
7.76851e-09
7.33313e-09
6.92105e-09
6.53109e-09
6.16213e-09
5.8131e-09
5.48297e-09
5.17079e-09
4.87561e-09
4.59657e-09
4.33283e-09
4.08358e-09
3.84809e-09
3.62561e-09
3.41547e-09
3.21702e-09
3.02963e-09
2.85273e-09
2.68575e-09
2.52816e-09
2.37946e-09
2.23916e-09
2.10682e-09
1.98201e-09
1.86431e-09
1.75334e-09
1.64873e-09
1.55014e-09
1.45722e-09
1.36967e-09
1.28719e-09
1.2095e-09
1.13634e-09
1.06744e-09
1.00258e-09
9.41515e-10
8.84046e-10
8.29965e-10
7.79081e-10
7.31211e-10
6.86184e-10
6.43838e-10
6.04019e-10
5.66582e-10
5.3139e-10
4.98314e-10
4.67231e-10
4.38025e-10
4.10588e-10
3.84815e-10
3.6061e-10
3.37881e-10
3.16541e-10
2.96508e-10
2.77705e-10
2.60059e-10
2.43502e-10
2.27968e-10
2.13397e-10
1.9973e-10
1.86915e-10
1.74899e-10
1.63635e-10
1.53077e-10
1.43182e-10
1.33911e-10
1.25225e-10
1.17089e-10
1.09469e-10
1.02334e-10
9.56537e-11
8.94008e-11
8.35488e-11
7.80732e-11
7.29506e-11
6.81593e-11
6.36789e-11
5.94902e-11
5.55752e-11
5.19168e-11
4.84992e-11
4.53076e-11
4.2328e-11
3.95472e-11
3.6953e-11
3.45338e-11
3.22791e-11
3.01785e-11
2.82229e-11
2.64033e-11
2.47116e-11
2.31401e-11
2.16816e-11
2.03295e-11
1.90776e-11
1.79202e-11
1.68519e-11
1.58678e-11
1.49634e-11
1.41344e-11
1.3377e-11
1.26877e-11
1.20632e-11
1.15006e-11
1.09972e-11
1.05507e-11
1.0159e-11
9.82027e-12
9.53284e-12
9.29536e-12
9.10673e-12
8.96603e-12
8.8726e-12
8.82599e-12
)
;
    }
    Wall
    {
        type            calculated;
        value           nonuniform List<scalar> 
400
(
4.23079e-07
1.26688e-06
2.10514e-06
2.93532e-06
3.75521e-06
4.56286e-06
5.35653e-06
6.13468e-06
6.89595e-06
7.63914e-06
8.36323e-06
9.06732e-06
9.75067e-06
1.04127e-05
1.10528e-05
1.16708e-05
1.22662e-05
1.2839e-05
1.3389e-05
1.39163e-05
1.44209e-05
1.49028e-05
1.53624e-05
1.57998e-05
1.62153e-05
1.66092e-05
1.69819e-05
1.73336e-05
1.76649e-05
1.7976e-05
1.82675e-05
1.85398e-05
1.87932e-05
1.90283e-05
1.92454e-05
1.94451e-05
1.96278e-05
1.97939e-05
1.99439e-05
2.00782e-05
2.01973e-05
2.03016e-05
2.03915e-05
2.04674e-05
2.05297e-05
2.05789e-05
2.06154e-05
2.06395e-05
2.06516e-05
2.06521e-05
2.06414e-05
2.06198e-05
2.05877e-05
2.05455e-05
2.04934e-05
2.04318e-05
2.03611e-05
2.02816e-05
2.01936e-05
2.00973e-05
1.99932e-05
1.98814e-05
1.97624e-05
1.96364e-05
1.95036e-05
1.93643e-05
1.92189e-05
1.90676e-05
1.89107e-05
1.87483e-05
1.85808e-05
1.84085e-05
1.82315e-05
1.80502e-05
1.78646e-05
1.76752e-05
1.74821e-05
1.72855e-05
1.70857e-05
1.68828e-05
1.66772e-05
1.64689e-05
1.62582e-05
1.60453e-05
1.58305e-05
1.56138e-05
1.53955e-05
1.51757e-05
1.49547e-05
1.47326e-05
1.45096e-05
1.42859e-05
1.40615e-05
1.38368e-05
1.36118e-05
1.33867e-05
1.31616e-05
1.29366e-05
1.2712e-05
1.24879e-05
1.22643e-05
1.20414e-05
1.18194e-05
1.15983e-05
1.13783e-05
1.11594e-05
1.09418e-05
1.07256e-05
1.05109e-05
1.02977e-05
1.00862e-05
9.87641e-06
9.66847e-06
9.46244e-06
9.25838e-06
9.05636e-06
8.85647e-06
8.65875e-06
8.46326e-06
8.27007e-06
8.07922e-06
7.89077e-06
7.70475e-06
7.52121e-06
7.34018e-06
7.16171e-06
6.98582e-06
6.81255e-06
6.64191e-06
6.47393e-06
6.30863e-06
6.14603e-06
5.98613e-06
5.82896e-06
5.67453e-06
5.52282e-06
5.37386e-06
5.22764e-06
5.08416e-06
4.94342e-06
4.80541e-06
4.67012e-06
4.53755e-06
4.40769e-06
4.28051e-06
4.15601e-06
4.03417e-06
3.91497e-06
3.79839e-06
3.6844e-06
3.573e-06
3.46414e-06
3.35782e-06
3.25399e-06
3.15264e-06
3.05373e-06
2.95723e-06
2.86312e-06
2.77137e-06
2.68193e-06
2.59478e-06
2.50989e-06
2.42722e-06
2.34673e-06
2.2684e-06
2.19218e-06
2.11804e-06
2.04595e-06
1.97586e-06
1.90775e-06
1.84157e-06
1.77728e-06
1.71486e-06
1.65426e-06
1.59545e-06
1.53838e-06
1.48303e-06
1.42936e-06
1.37732e-06
1.32689e-06
1.27802e-06
1.23068e-06
1.18484e-06
1.14046e-06
1.09751e-06
1.05594e-06
1.01573e-06
9.76838e-07
9.39235e-07
9.02887e-07
8.6776e-07
8.33822e-07
8.01041e-07
7.69387e-07
7.38827e-07
7.09332e-07
6.80871e-07
6.53415e-07
6.26936e-07
6.01404e-07
5.76793e-07
5.53074e-07
5.30221e-07
5.08207e-07
4.87008e-07
4.66597e-07
4.4695e-07
4.28044e-07
4.09854e-07
3.92357e-07
3.75532e-07
3.59356e-07
3.43807e-07
3.28866e-07
3.14511e-07
3.00723e-07
2.87482e-07
2.7477e-07
2.62568e-07
2.50859e-07
2.39624e-07
2.28849e-07
2.18515e-07
2.08607e-07
1.9911e-07
1.90008e-07
1.81288e-07
1.72935e-07
1.64935e-07
1.57275e-07
1.49942e-07
1.42924e-07
1.36209e-07
1.29784e-07
1.2364e-07
1.17764e-07
1.12147e-07
1.06777e-07
1.01646e-07
9.67436e-08
9.20605e-08
8.7588e-08
8.33175e-08
7.92408e-08
7.53497e-08
7.16367e-08
6.80944e-08
6.47155e-08
6.14932e-08
5.84208e-08
5.5492e-08
5.27007e-08
5.00408e-08
4.75068e-08
4.50931e-08
4.27946e-08
4.0606e-08
3.85226e-08
3.65398e-08
3.4653e-08
3.28579e-08
3.11504e-08
2.95266e-08
2.79826e-08
2.65148e-08
2.51197e-08
2.37939e-08
2.25343e-08
2.13378e-08
2.02014e-08
1.91223e-08
1.80978e-08
1.71253e-08
1.62024e-08
1.53267e-08
1.4496e-08
1.37079e-08
1.29606e-08
1.22521e-08
1.15803e-08
1.09437e-08
1.03403e-08
9.76863e-09
9.22708e-09
8.71414e-09
8.22839e-09
7.76848e-09
7.33311e-09
6.92103e-09
6.53108e-09
6.16212e-09
5.81309e-09
5.48296e-09
5.17078e-09
4.87561e-09
4.59657e-09
4.33283e-09
4.08358e-09
3.84809e-09
3.62561e-09
3.41547e-09
3.21702e-09
3.02964e-09
2.85274e-09
2.68575e-09
2.52816e-09
2.37946e-09
2.23917e-09
2.10683e-09
1.98202e-09
1.86432e-09
1.75335e-09
1.64874e-09
1.55014e-09
1.45723e-09
1.36968e-09
1.2872e-09
1.20951e-09
1.13634e-09
1.06745e-09
1.00258e-09
9.41522e-10
8.84053e-10
8.29972e-10
7.79087e-10
7.31217e-10
6.8619e-10
6.43843e-10
6.04024e-10
5.66587e-10
5.31395e-10
4.98319e-10
4.67236e-10
4.3803e-10
4.10592e-10
3.84819e-10
3.60614e-10
3.37885e-10
3.16545e-10
2.96512e-10
2.77709e-10
2.60063e-10
2.43505e-10
2.27971e-10
2.134e-10
1.99733e-10
1.86918e-10
1.74902e-10
1.63637e-10
1.53079e-10
1.43184e-10
1.33913e-10
1.25227e-10
1.17091e-10
1.09471e-10
1.02336e-10
9.56554e-11
8.94024e-11
8.35504e-11
7.80746e-11
7.2952e-11
6.81606e-11
6.36802e-11
5.94914e-11
5.55763e-11
5.19179e-11
4.85003e-11
4.53086e-11
4.23289e-11
3.9548e-11
3.69538e-11
3.45346e-11
3.22798e-11
3.01792e-11
2.82236e-11
2.64039e-11
2.47122e-11
2.31406e-11
2.16821e-11
2.033e-11
1.90781e-11
1.79206e-11
1.68523e-11
1.58682e-11
1.49638e-11
1.41348e-11
1.33774e-11
1.2688e-11
1.20635e-11
1.15009e-11
1.09975e-11
1.0551e-11
1.01593e-11
9.82055e-12
9.53311e-12
9.29564e-12
9.10701e-12
8.96629e-12
8.87279e-12
8.82614e-12
)
;
    }
}


// ************************************************************************* //
