/*--------------------------------*- C++ -*----------------------------------*\
  =========                 |
  \\      /  F ield         | OpenFOAM: The Open Source CFD Toolbox
   \\    /   O peration     | Website:  https://openfoam.org
    \\  /    A nd           | Version:  10
     \\/     M anipulation  |
\*---------------------------------------------------------------------------*/
FoamFile
{
    format      ascii;
    class       surfaceScalarField;
    location    "8.5";
    object      phi;
}
// * * * * * * * * * * * * * * * * * * * * * * * * * * * * * * * * * * * * * //

dimensions      [1 0 -1 0 0 0 0];

internalField   nonuniform List<scalar> 
10325
(
0.00840003
2.59335e-10
0.00840004
-1.72829e-10
0.00839997
4.3461e-09
0.00840013
-1.83784e-09
0.00839965
3.04525e-08
0.00840093
-8.34548e-09
0.00839735
1.70339e-07
0.00840588
1.77019e-08
0.0083867
8.83885e-07
0.00841804
6.94452e-07
0.00837084
3.98895e-06
0.00840484
8.36989e-06
0.00833947
3.05466e-05
0.00823146
0.000120762
0.00763058
0.000587722
0.00701423
0.000616841
0.00640564
0.000609072
0.00577325
0.000632286
0.00510833
0.000664706
0.004398
0.000710154
0.00363153
0.000766205
0.00280831
0.000823022
0.0019317
0.000876343
0.000999106
0.00093216
0.000998898
0.00840003
1.41317e-10
0.0084
1.40154e-09
0.00840014
2.77615e-09
0.00839979
1.27299e-08
0.00840061
2.28165e-08
0.0083987
6.77509e-08
0.00840312
1.76354e-07
0.0083932
3.70561e-07
0.00841268
1.1837e-06
0.00837726
2.17143e-06
0.00841993
7.30866e-06
0.00836047
1.78468e-05
0.00836529
6.23374e-05
0.00822029
0.000243124
0.00762265
0.0011787
0.00700176
0.00123901
0.0064018
0.00120969
0.00577519
0.00125878
0.00511291
0.00132675
0.00439586
0.00142704
0.00362111
0.0015407
0.00278939
0.00165454
0.001901
0.00176446
0.000963582
0.00186915
0.00196227
0.00840003
2.83073e-10
0.00840004
1.20017e-09
0.00839998
5.99863e-09
0.00840011
1.28428e-08
0.00839988
4.12792e-08
0.00840001
9.93604e-08
0.00839986
2.29247e-07
0.00839873
6.74255e-07
0.00839977
1.31789e-06
0.00839688
4.2523e-06
0.00839215
9.13426e-06
0.00838811
2.92538e-05
0.00835309
9.10592e-05
0.00823208
0.000362433
0.00764121
0.00175701
0.00701744
0.00186361
0.00642512
0.00180271
0.00580674
0.00187705
0.00514956
0.00198367
0.00443507
0.00214147
0.00365757
0.00231783
0.00281991
0.00249213
0.00192056
0.00266347
0.000970727
0.00281855
0.00293281
0.00840003
3.58994e-10
0.0084
2.07539e-09
0.00840013
7.17159e-09
0.00839981
1.97657e-08
0.00840055
5.38114e-08
0.00839882
1.2261e-07
0.00840279
3.57794e-07
0.00839383
7.11953e-07
0.00841124
2.25698e-06
0.00837927
4.52339e-06
0.00841743
1.39882e-05
0.00836267
3.67164e-05
0.0083664
0.000122391
0.00823727
0.000469784
0.00767735
0.00230913
0.00705853
0.00248425
0.00647518
0.00238694
0.00586774
0.00248431
0.00522101
0.00263019
0.00451391
0.00284827
0.00374276
0.00308898
0.00290073
0.00333407
0.00198932
0.00357446
0.00101138
0.00379613
0.00394433
0.00840003
3.86071e-10
0.00840002
2.47107e-09
0.00840002
8.33975e-09
0.00840002
2.42853e-08
0.00840004
6.19021e-08
0.00839966
1.61609e-07
0.0084007
3.91575e-07
0.00839683
1.00218e-06
0.0084044
2.43749e-06
0.00838894
6.31988e-06
0.00840362
1.62828e-05
0.00837787
4.67046e-05
0.00836296
0.000149113
0.00825398
0.000567502
0.00774345
0.0028084
0.0071293
0.0031003
0.00655269
0.00296467
0.00595882
0.00307809
0.00532621
0.00326265
0.00463406
0.00354024
0.00386962
0.0038534
0.00302869
0.00417467
0.00209756
0.00450533
0.00108004
0.00481351
0.00502432
0.00840003
4.09962e-10
0.00840002
3.10418e-09
0.00840002
9.26089e-09
0.00840002
3.02551e-08
0.00840002
6.96957e-08
0.00839974
1.97846e-07
0.00840046
4.51494e-07
0.00839751
1.20448e-06
0.00840293
2.87873e-06
0.00839142
7.48916e-06
0.00840082
1.92267e-05
0.00838202
5.48062e-05
0.00836479
0.00017332
0.0082766
0.000647014
0.00786733
0.00320531
0.00724257
0.00372734
0.00667064
0.00353791
0.00608975
0.00365892
0.00547461
0.00387764
0.0048021
0.00421265
0.00405235
0.00460311
0.00321121
0.00501569
0.00226226
0.00545416
0.00118554
0.00589001
0.00620959
0.00840003
4.65148e-10
0.00840004
3.28021e-09
0.00839998
1.07121e-08
0.00840014
3.22896e-08
0.00839978
7.87932e-08
0.00840046
2.24654e-07
0.00839905
4.74559e-07
0.00840083
1.46911e-06
0.00839682
2.89656e-06
0.00840214
9.1068e-06
0.00838802
2.04262e-05
0.00839859
6.21554e-05
0.00836502
0.000189493
0.00831819
0.000697844
0.00808994
0.00341835
0.00744511
0.00437488
0.00685587
0.00412867
0.0062793
0.00423548
0.00568185
0.00447498
0.00503155
0.00486298
0.00430056
0.00533397
0.00346665
0.00584949
0.0024982
0.00642268
0.00135367
0.00703417
0.00756293
0.00840003
5.23963e-10
0.00840002
3.42052e-09
0.00840007
1.11712e-08
0.00839994
3.33461e-08
0.00840017
8.49536e-08
0.00839976
2.16938e-07
0.00840008
5.65359e-07
0.0083996
1.30723e-06
0.00839932
3.62099e-06
0.00839807
8.30027e-06
0.00840085
2.3259e-05
0.00838871
6.21028e-05
0.00839323
0.00019582
0.00838434
0.000698157
0.00846595
0.00332297
0.00779531
0.00504883
0.00714644
0.00477924
0.00655932
0.00482275
0.00597514
0.00505911
0.00534528
0.00549304
0.00463684
0.00604235
0.00381737
0.00666905
0.00284625
0.00739379
0.00162826
0.0082519
0.00919082
0.00840003
5.22487e-10
0.00840005
3.20683e-09
0.00839997
1.12154e-08
0.00840018
3.10701e-08
0.0083997
8.33295e-08
0.00840092
2.03688e-07
0.00839822
5.30657e-07
0.00840479
1.27066e-06
0.00839118
3.29756e-06
0.0084181
8.08019e-06
0.00837774
2.13389e-05
0.00843272
5.75165e-05
0.00840629
0.00017563
0.00851478
0.000611222
0.00909286
0.00272571
0.00837824
0.0057649
0.00758246
0.0055764
0.00697827
0.00542734
0.006378
0.00565944
0.00576931
0.00610207
0.00508377
0.00672793
0.00432063
0.00743243
0.00340216
0.00831238
0.00211211
0.00954169
0.0113026
0.00840003
4.47282e-10
0.00840005
2.71797e-09
0.00839998
9.87757e-09
0.00840015
2.67375e-08
0.00839979
7.20745e-08
0.00840071
1.83476e-07
0.0083988
4.32683e-07
0.00840372
1.17205e-06
0.00839388
2.58067e-06
0.00841518
7.238e-06
0.00838679
1.66862e-05
0.00843892
4.69908e-05
0.00843934
0.000134386
0.00862124
0.000449516
0.00943148
0.00190265
0.00894235
0.0062504
0.00803372
0.0064846
0.00748373
0.00597717
0.00688117
0.00626196
0.00630355
0.00667986
0.00569385
0.00733788
0.0050295
0.00809676
0.00417831
0.00916364
0.00295188
0.0107682
0.0142541
0.00840003
4.49407e-10
0.00840002
2.33274e-09
0.00840006
9.31128e-09
0.00839998
2.26502e-08
0.00840014
6.87809e-08
0.00839989
1.49607e-07
0.00840016
4.38283e-07
0.00840012
9.13526e-07
0.00839978
2.66062e-06
0.0084009
5.74818e-06
0.00840413
1.60847e-05
0.00840293
3.99157e-05
0.00842967
0.000118296
0.00848909
0.000383248
0.0088256
0.00156009
0.00878936
0.00627671
0.00855066
0.00672153
0.00788714
0.00663997
0.00737887
0.00677002
0.00688146
0.00717722
0.00642471
0.00779472
0.00592293
0.00859865
0.00547048
0.00961607
0.00540296
0.0108353
0.0113628
0.00829366
0.00840003
3.82157e-10
0.00840002
2.38836e-09
0.00840006
8.0975e-09
0.00839995
2.35062e-08
0.00840025
6.06167e-08
0.00839951
1.53554e-07
0.00840144
3.88269e-07
0.00839718
9.27679e-07
0.00840755
2.41391e-06
0.00838694
5.63369e-06
0.00842429
1.50954e-05
0.00837508
3.78944e-05
0.00843693
0.000109944
0.00842443
0.000351629
0.00864761
0.00135413
0.00876999
0.00613843
0.00845955
0.00703087
0.00806708
0.00703223
0.0077074
0.00712968
0.00733471
0.00754987
0.00699931
0.00813014
0.00672396
0.00887392
0.00661209
0.00972794
0.00698235
0.0104654
0.0104769
0.00786715
0.00840003
3.02251e-10
0.00840003
2.53557e-09
0.00840003
7.14971e-09
0.00840003
2.46105e-08
0.00840004
5.36711e-08
0.00839995
1.62379e-07
0.00840028
3.34481e-07
0.00839896
1.0092e-06
0.00840255
2.05897e-06
0.00839413
6.17404e-06
0.00840987
1.34149e-05
0.00839028
3.88081e-05
0.00841431
0.000102796
0.00841647
0.000332969
0.00855514
0.00122196
0.00890533
0.00577334
0.00861213
0.00732423
0.00828418
0.00736042
0.0079956
0.00741843
0.00775051
0.00779473
0.00753201
0.00834855
0.00742719
0.00897902
0.00757134
0.00958333
0.00800932
0.010027
0.00995269
0.0085327
0.00840003
3.62314e-10
0.00840003
2.08591e-09
0.00840003
7.73955e-09
0.00840003
2.04769e-08
0.0084
5.71186e-08
0.00840014
1.38288e-07
0.0083996
3.58589e-07
0.00840129
8.72164e-07
0.00839673
2.19999e-06
0.0084075
5.45912e-06
0.00838829
1.37833e-05
0.0084179
3.56931e-05
0.00839397
9.87491e-05
0.00844291
0.00030452
0.00855853
0.00109118
0.00935553
0.00496591
0.00901916
0.00766142
0.00860487
0.00777567
0.0083354
0.0076885
0.00815692
0.00797321
0.00805527
0.00844987
0.0080755
0.00895867
0.00826479
0.00939407
0.00863865
0.00965287
0.00952111
0.00906919
0.00840003
3.31313e-10
0.00840003
1.81778e-09
0.00840004
6.86918e-09
0.00840001
1.77249e-08
0.00840009
5.13352e-08
0.00839998
1.1637e-07
0.00840008
3.30693e-07
0.00840038
7.0795e-07
0.00839926
2.04776e-06
0.00840322
4.3663e-06
0.0083985
1.25997e-05
0.00841217
2.91056e-05
0.00842222
8.35421e-05
0.0084857
0.000242026
0.00873757
0.000833499
0.0102264
0.00346469
0.00965177
0.00823666
0.00921913
0.00820938
0.00881025
0.00809808
0.00860009
0.00818374
0.00853634
0.00851394
0.00859359
0.00890131
0.0087848
0.00920225
0.0091024
0.00933507
0.00916558
0.00945729
0.00840003
2.15468e-10
0.00840003
1.69078e-09
0.00840003
4.98214e-09
0.00840003
1.64685e-08
0.00840005
3.7131e-08
0.00839999
1.0839e-07
0.00840034
2.32669e-07
0.00839939
6.66619e-07
0.0084028
1.42013e-06
0.00839619
4.01053e-06
0.00841437
8.83717e-06
0.008395
2.4401e-05
0.00844774
6.0256e-05
0.00848467
0.000177257
0.00876653
0.000567424
0.00996857
0.00224841
0.01013
0.00807224
0.00977647
0.00856228
0.00929144
0.00858316
0.00905795
0.00841699
0.00898899
0.00858301
0.00903998
0.0088504
0.00920209
0.00904022
0.00945901
0.00907763
0.00888199
0.0097419
0.00840003
2.2202e-10
0.00840003
1.27639e-09
0.00840003
4.75658e-09
0.00840004
1.25234e-08
0.00840001
3.48943e-08
0.00840014
8.361e-08
0.00839979
2.15917e-07
0.00840099
5.17508e-07
0.00839822
1.29992e-06
0.00840639
3.17251e-06
0.00839131
7.8743e-06
0.00842536
1.98446e-05
0.00839199
5.11068e-05
0.00847065
0.000143024
0.00854785
0.0004516
0.00911807
0.00169323
0.0101169
0.00705677
0.00995943
0.00871789
0.00970471
0.00883706
0.0094552
0.00866647
0.00937719
0.00866144
0.00942147
0.00880573
0.00955127
0.00891011
0.00974886
0.00887982
0.00866476
0.00996549
0.00840003
1.7336e-10
0.00840003
1.14851e-09
0.00840004
3.76373e-09
0.00840002
1.11693e-08
0.00840007
2.83431e-08
0.0084
7.315e-08
0.00840012
1.82019e-07
0.00840014
4.44058e-07
0.00839984
1.12933e-06
0.00840178
2.68994e-06
0.00839821
7.00518e-06
0.00840925
1.6896e-05
0.00840419
4.50098e-05
0.00843499
0.000121092
0.00850303
0.00037462
0.00886715
0.00133107
0.0102918
0.00561763
0.0102437
0.00876596
0.0100328
0.00904798
0.00979265
0.00890725
0.00971127
0.00874278
0.00974392
0.00877347
0.00984633
0.00880732
0.00999431
0.00873111
0.00850368
0.0101549
0.00840003
1.62164e-10
0.00840003
8.50708e-10
0.00840003
3.38171e-09
0.00840004
8.32652e-09
0.00840001
2.48083e-08
0.00840013
5.57546e-08
0.00839985
1.5505e-07
0.0084008
3.47007e-07
0.00839882
9.30114e-07
0.00840492
2.14247e-06
0.00839398
5.59598e-06
0.00842313
1.33798e-05
0.00838965
3.50742e-05
0.00847428
9.12573e-05
0.00852621
0.000269561
0.00898806
0.000896202
0.0110429
0.00354023
0.0107933
0.00901394
0.0106089
0.0092337
0.0102969
0.00922023
0.0100938
0.00894674
0.0100585
0.0088085
0.0101173
0.00874866
0.01022
0.00862782
0.00838974
0.0103329
0.00840003
1.09808e-10
0.00840003
7.33314e-10
0.00840003
2.39812e-09
0.00840003
7.13629e-09
0.00840005
1.78732e-08
0.0084
4.65156e-08
0.00840021
1.12559e-07
0.00839977
2.82505e-07
0.00840143
6.87807e-07
0.00839822
1.69185e-06
0.00840871
4.18223e-06
0.0083928
1.02613e-05
0.00843545
2.59199e-05
0.00841315
6.67811e-05
0.0085395
0.00018756
0.0088126
0.000593588
0.0101129
0.00224313
0.0111461
0.00797053
0.0109757
0.00940378
0.0107034
0.00949256
0.010465
0.00918574
0.0103687
0.00890503
0.0103782
0.00873849
0.0104352
0.00857037
0.00831747
0.0105066
0.00840003
8.2798e-11
0.00840003
5.87155e-10
0.00840003
1.86655e-09
0.00840004
5.74227e-09
0.00840003
1.38519e-08
0.00840004
3.78259e-08
0.00840008
8.68373e-08
0.00839999
2.30911e-07
0.00840066
5.31283e-07
0.00839919
1.38535e-06
0.00840489
3.24686e-06
0.00839549
8.36401e-06
0.00842258
2.03374e-05
0.00840413
5.30976e-05
0.00848311
0.000143217
0.0086026
0.000441558
0.00927638
0.00158361
0.0110492
0.00618193
0.0111528
0.00929915
0.0110338
0.00961108
0.0107733
0.00944642
0.0106555
0.0090231
0.0106292
0.00876466
0.0106491
0.00854857
0.00828309
0.0106821
0.00840003
7.29712e-11
0.00840003
4.1094e-10
0.00840003
1.56008e-09
0.00840004
4.03976e-09
0.00840002
1.14954e-08
0.00840009
2.71928e-08
0.00839996
7.09442e-08
0.00840038
1.69677e-07
0.0083997
4.2239e-07
0.00840192
1.04502e-06
0.00839855
2.514e-06
0.00840912
6.4167e-06
0.00839723
1.53191e-05
0.00843812
4.0299e-05
0.00843668
0.000104023
0.00861129
0.000305635
0.00915042
0.00101895
0.011483
0.00383969
0.0115712
0.00920871
0.0114905
0.00969229
0.0112695
0.00966768
0.0110024
0.00928976
0.0108966
0.00886949
0.0108742
0.00857091
0.00828098
0.0108736
0.00840003
5.11017e-11
0.00840003
3.28716e-10
0.00840003
1.09761e-09
0.00840003
3.20743e-09
0.00840005
8.13634e-09
0.00840001
2.09101e-08
0.00840014
5.16602e-08
0.00839995
1.25371e-07
0.00840058
3.17032e-07
0.00839977
7.4134e-07
0.00840263
1.92593e-06
0.00839982
4.41663e-06
0.00841237
1.17026e-05
0.00840894
2.74336e-05
0.0084632
7.38674e-05
0.00854057
0.000199899
0.00894323
0.000631171
0.010468
0.00230774
0.0118229
0.00784383
0.0117927
0.00972118
0.0115887
0.00987087
0.0113211
0.00955689
0.0111975
0.00899183
0.0111159
0.00864916
0.00831293
0.0110816
0.00840003
3.80434e-11
0.00840003
2.41922e-10
0.00840003
8.3811e-10
0.00840003
2.35849e-09
0.00840003
6.17093e-09
0.00840005
1.56719e-08
0.00840003
3.79822e-08
0.0084001
9.7299e-08
0.00840016
2.26139e-07
0.00840011
5.93688e-07
0.00840147
1.34499e-06
0.00839937
3.6111e-06
0.00841006
8.17448e-06
0.00840001
2.20979e-05
0.00844488
5.30758e-05
0.00846806
0.000148422
0.00868468
0.000438474
0.00942165
0.00155177
0.0117018
0.0055555
0.0119468
0.00947305
0.0119723
0.00984286
0.0117907
0.00973692
0.0114973
0.00928449
0.0113777
0.0087667
0.00838587
0.0113005
0.00840003
2.68965e-11
0.00840003
1.71594e-10
0.00840003
5.87853e-10
0.00840003
1.67537e-09
0.00840004
4.35726e-09
0.00840002
1.09666e-08
0.00840008
2.72051e-08
0.00840002
6.63665e-08
0.00840024
1.63618e-07
0.00840018
3.95e-07
0.00840075
9.75044e-07
0.00840194
2.35071e-06
0.00840335
5.82162e-06
0.00841259
1.4194e-05
0.00842893
3.57798e-05
0.00848143
9.21447e-05
0.00866613
0.000259835
0.00938313
0.000828835
0.0119815
0.00295074
0.0124859
0.00896216
0.0123697
0.00995637
0.0121128
0.00999123
0.0118325
0.0095605
0.0116562
0.00894071
0.0085
0.0115377
0.00840003
1.95999e-11
0.00840003
1.21499e-10
0.00840003
4.22181e-10
0.00840003
1.18496e-09
0.00840004
3.12592e-09
0.00840003
7.73145e-09
0.00840007
1.95487e-08
0.00840002
4.66799e-08
0.00840019
1.17636e-07
0.0084001
2.77643e-07
0.00840056
7.02602e-07
0.00840115
1.65039e-06
0.00840192
4.19231e-06
0.00840803
9.95811e-06
0.00841451
2.54295e-05
0.00844645
6.3472e-05
0.0085314
0.000173925
0.00883239
0.000526134
0.00989275
0.00188616
0.0122673
0.00657202
0.0124772
0.00974154
0.0125364
0.00992778
0.012246
0.00984746
0.0119594
0.00922327
0.00866474
0.0117879
0.00840003
1.34193e-11
0.00840003
8.6669e-11
0.00840003
2.9173e-10
0.00840003
8.47362e-10
0.00840003
2.15977e-09
0.00840003
5.53629e-09
0.00840006
1.35429e-08
0.00840001
3.33086e-08
0.0084002
8.18264e-08
0.00839994
1.97304e-07
0.00840093
4.92678e-07
0.00839973
1.16558e-06
0.00840463
2.9551e-06
0.00839966
6.975e-06
0.00842232
1.79337e-05
0.00841579
4.36441e-05
0.0085088
0.000116809
0.00866444
0.00033104
0.0094703
0.00109996
0.0121671
0.00385242
0.012764
0.00913747
0.0127751
0.00991235
0.0125913
0.0100265
0.012295
0.00951568
0.00887175
0.0120757
0.00840003
9.05309e-12
0.00840003
6.04426e-11
0.00840003
2.00212e-10
0.00840003
5.88558e-10
0.00840003
1.48245e-09
0.00840003
3.83712e-09
0.00840004
9.23654e-09
0.00840003
2.31928e-08
0.00840011
5.55222e-08
0.0084
1.37671e-07
0.00840066
3.30629e-07
0.00839965
8.13894e-07
0.00840419
1.97445e-06
0.00839803
4.82774e-06
0.008423
1.18696e-05
0.00840131
2.9447e-05
0.00849544
7.52076e-05
0.00856369
0.000204728
0.00907074
0.000628233
0.010703
0.00220088
0.0127407
0.00708752
0.0128157
0.00983103
0.0129023
0.00993229
0.0126846
0.00972359
0.00913223
0.0124089
0.00840003
6.13318e-12
0.00840003
4.14788e-11
0.00840003
1.37424e-10
0.00840003
4.04034e-10
0.00840003
1.01511e-09
0.00840003
2.65912e-09
0.00840003
6.24717e-09
0.00840004
1.62258e-08
0.00840006
3.7175e-08
0.00840006
9.68934e-08
0.00840033
2.20799e-07
0.00840001
5.74294e-07
0.00840226
1.31523e-06
0.00839932
3.4041e-06
0.00841412
7.92931e-06
0.00840004
2.04128e-05
0.00846468
4.98288e-05
0.00848255
0.000133377
0.0087793
0.000381555
0.00965122
0.00129063
0.0124142
0.00431456
0.013086
0.00914801
0.0129557
0.0100515
0.0129216
0.00974355
0.00932413
0.0127091
0.00840003
4.54824e-12
0.00840003
2.6051e-11
0.00840003
9.7154e-11
0.00840003
2.54531e-10
0.00840003
7.12382e-10
0.00840003
1.67529e-09
0.00840003
4.40245e-09
0.00840005
1.01705e-08
0.00840003
2.60508e-08
0.00840015
6.08637e-08
0.00839998
1.53005e-07
0.00840082
3.63693e-07
0.0083997
8.93895e-07
0.0084047
2.17489e-06
0.00839902
5.26217e-06
0.00842414
1.31023e-05
0.00840939
3.18617e-05
0.00850662
8.23951e-05
0.00861404
0.000222677
0.00924428
0.000688423
0.011188
0.002353
0.0131349
0.00718133
0.0131891
0.00997977
0.0130477
0.00986064
0.00938645
0.0129526
0.00840003
2.75526e-12
0.00840003
1.80086e-11
0.00840003
6.04983e-11
0.00840003
1.76032e-10
0.00840003
4.46098e-10
0.00840003
1.1487e-09
0.00840004
2.76169e-09
0.00840003
6.91873e-09
0.00840006
1.65533e-08
0.00840003
4.08226e-08
0.00840019
9.81624e-08
0.00840012
2.4007e-07
0.00840065
5.84324e-07
0.00840123
1.40607e-06
0.00840221
3.48221e-06
0.00840899
8.34463e-06
0.00841437
2.09925e-05
0.00845139
5.18089e-05
0.00853035
0.000137294
0.00882409
0.000394524
0.00983978
0.00132948
0.0126849
0.0043071
0.0134519
0.00918723
0.0134244
0.00984413
0.00936379
0.0133875
0.00840003
1.81974e-12
0.00840003
1.1529e-11
0.00840003
3.91527e-11
0.00840003
1.12038e-10
0.00840003
2.8999e-10
0.00840003
7.21113e-10
0.00840003
1.81156e-09
0.00840003
4.2868e-09
0.00840005
1.08521e-08
0.00840005
2.50456e-08
0.00840009
6.43575e-08
0.0084002
1.46246e-07
0.00840022
3.78299e-07
0.00840136
8.5926e-07
0.00840058
2.21931e-06
0.00840902
5.07841e-06
0.00840446
1.30898e-05
0.00844691
3.10206e-05
0.00847119
8.12556e-05
0.00867623
0.000217415
0.00929838
0.000678264
0.011305
0.00229312
0.0134737
0.00697774
0.0137901
0.00945088
0.00917188
0.0138845
0.00840003
1.11445e-12
0.00840003
6.93697e-12
0.00840003
2.42891e-11
0.00840003
6.80719e-11
0.00840003
1.77499e-10
0.00840003
4.45448e-10
0.00840003
1.08348e-09
0.00840003
2.67569e-09
0.00840004
6.3738e-09
0.00840003
1.57937e-08
0.0084001
3.71178e-08
0.00840002
9.24011e-08
0.00840057
2.16708e-07
0.00839985
5.39274e-07
0.00840339
1.26184e-06
0.00839928
3.15406e-06
0.00841867
7.45082e-06
0.00840229
1.86635e-05
0.0084839
4.58816e-05
0.00851196
0.000121181
0.00889631
0.000349657
0.00995132
0.00117873
0.0130324
0.0038464
0.0138464
0.00849223
0.0085369
0.0143561
0.00840003
6.09285e-13
0.00840003
4.29774e-12
0.00840003
1.37089e-11
0.00840003
4.16391e-11
0.00840003
1.00923e-10
0.00840003
2.67388e-10
0.00840003
6.20805e-10
0.00840003
1.57903e-09
0.00840004
3.66981e-09
0.00840003
9.06162e-09
0.00840009
2.15929e-08
0.00840001
5.17089e-08
0.00840038
1.25875e-07
0.00839996
2.94296e-07
0.008402
7.33198e-07
0.00839994
1.67957e-06
0.00841053
4.24756e-06
0.00840303
9.75227e-06
0.00845037
2.5048e-05
0.00846407
6.14749e-05
0.00867784
0.000171841
0.00927161
0.000537371
0.0111354
0.00192673
0.0133275
0.00612547
0.00723533
0.0145206
0.00840003
3.6057e-13
0.00840003
2.29363e-12
0.00840003
7.90216e-12
0.00840003
2.24502e-11
0.00840003
5.75342e-11
0.00840003
1.45325e-10
0.00840003
3.47757e-10
0.00840003
8.55787e-10
0.00840003
2.01624e-09
0.00840004
4.96987e-09
0.00840004
1.15802e-08
0.00840005
2.84069e-08
0.00840017
6.6659e-08
0.0084
1.62691e-07
0.00840112
3.82292e-07
0.00839939
9.30832e-07
0.00840717
2.20954e-06
0.0083969
5.37618e-06
0.00843398
1.30424e-05
0.00841583
3.27494e-05
0.00853736
8.74409e-05
0.00874153
0.000264042
0.00967157
0.000951478
0.0119628
0.0035451
0.00542237
0.0137286
0.00840003
1.92386e-13
0.00840003
1.21737e-12
0.00840003
4.24728e-12
0.00840003
1.18446e-11
0.00840003
3.09779e-11
0.00840003
7.64532e-11
0.00840003
1.864e-10
0.00840003
4.49815e-10
0.00840003
1.06892e-09
0.00840004
2.57692e-09
0.00840003
6.04939e-09
0.00840005
1.45882e-08
0.0084001
3.39583e-08
0.00839998
8.20926e-08
0.0084007
1.91783e-07
0.00839925
4.53961e-07
0.00840476
1.08396e-06
0.00839559
2.55456e-06
0.00842225
6.22553e-06
0.00839937
1.53514e-05
0.00847269
4.00432e-05
0.00855373
0.000117153
0.00901952
0.000400891
0.0104866
0.00171536
0.00362473
0.0122715
0.00840003
1.14601e-13
0.00840003
6.38868e-13
0.00840003
2.45508e-12
0.00840003
6.16025e-12
0.00840003
1.75709e-11
0.00840003
4.08635e-11
0.00840003
9.93665e-11
0.00840003
2.55137e-10
0.00840003
5.25393e-10
0.00840004
1.54259e-09
0.00840003
2.72959e-09
0.00840004
9.24941e-09
0.00840005
1.42472e-08
0.00839996
5.36227e-08
0.00840041
7.67408e-08
0.00839906
3.02797e-07
0.00840311
4.31181e-07
0.00839449
1.66542e-06
0.00841278
2.66765e-06
0.00839009
8.84433e-06
0.00842639
1.90777e-05
0.00843603
5.92376e-05
0.00857512
0.000189694
0.00911638
0.00083331
0.00250709
0.01017
0.00840003
7.45745e-14
0.00840003
3.94297e-13
0.00840003
1.47717e-12
0.00840003
3.72698e-12
0.00840003
1.08994e-11
0.00840003
2.18247e-11
0.00840003
7.10654e-11
0.00840003
1.14671e-10
0.00840003
4.41557e-10
0.00840003
5.79495e-10
0.00840002
2.61293e-09
0.00840006
3.02388e-09
0.00839994
1.49543e-08
0.00840026
1.6838e-08
0.00839938
8.34732e-08
0.00840168
1.05783e-07
0.00839607
4.54713e-07
0.00840905
7.02119e-07
0.00838209
2.39658e-06
0.00842266
4.77847e-06
0.00836844
1.39691e-05
0.0084096
3.85284e-05
0.0083875
0.000131215
0.0084323
0.000584311
0.0019899
0.00878702
0.00840003
3.0399e-14
0.00840003
3.29354e-13
0.00840003
7.30859e-13
0.00840003
3.26684e-12
0.00840003
5.01261e-12
0.00840003
2.19412e-11
0.00840003
2.76117e-11
0.00840003
1.33931e-10
0.00840003
1.45013e-10
0.00840002
7.75271e-10
0.00840004
8.11627e-10
0.00839999
4.3105e-09
0.00840014
5.30187e-09
0.00839973
2.32961e-08
0.00840073
3.5948e-08
0.0083983
1.25756e-07
0.00840393
2.50305e-07
0.00839084
6.49034e-07
0.0084147
1.71602e-06
0.0083714
3.70559e-06
0.00841462
1.12175e-05
0.00835774
3.1135e-05
0.00835346
0.000109894
0.00824363
0.000505371
0.0017563
0.00830818
0.00840003
3.72571e-14
0.00840003
1.72367e-13
0.00840003
7.20891e-13
0.00840003
1.57959e-12
0.00840003
5.51425e-12
0.00840003
9.34511e-12
0.00840003
3.6601e-11
0.00840003
4.90273e-11
0.00840003
2.31981e-10
0.00840004
2.24497e-10
0.00840001
1.41815e-09
0.00840007
1.17968e-09
0.00839993
8.20566e-09
0.00840024
7.71301e-09
0.00839954
4.69364e-08
0.00840086
5.63922e-08
0.00839782
2.57821e-07
0.00840233
4.25975e-07
0.00839132
1.39815e-06
0.00840538
3.20473e-06
0.00837214
9.02139e-06
0.00838598
2.72807e-05
0.00834455
9.58573e-05
0.00824323
0.000447199
0.00160203
0.00823527
0.00840003
1.93603e-14
0.00840003
1.51671e-13
0.00840003
4.5269e-13
0.00840003
1.57127e-12
0.00840003
3.06873e-12
0.00840003
1.05354e-11
0.00840003
1.79027e-11
0.00840003
6.20925e-11
0.00840003
9.97822e-11
0.00840003
3.93114e-10
0.00840003
5.85586e-10
0.00840001
2.21247e-09
0.00840006
3.75013e-09
0.00839984
1.27518e-08
0.00840041
2.5182e-08
0.00839866
6.92274e-08
0.0084027
1.68854e-07
0.00839245
4.06856e-07
0.0084109
1.11724e-06
0.00837663
2.7027e-06
0.00840715
7.78014e-06
0.00836303
2.35914e-05
0.00835841
8.38704e-05
0.0082662
0.000391733
0.00145358
0.00826561
0.00840003
3.39689e-14
0.00840003
4.13118e-14
0.00840003
6.49725e-13
0.00840003
3.89406e-13
0.00840003
4.30876e-12
0.00840003
4.29261e-12
0.00840003
2.17886e-11
0.00840003
3.69411e-11
0.00840003
1.00317e-10
0.00840003
2.90786e-10
0.00840002
4.17994e-10
0.00840004
2.20451e-09
0.00840001
1.88904e-09
0.00839997
1.52917e-08
0.0084001
8.26859e-09
0.0083992
1.02563e-07
0.00840135
4.524e-08
0.00839467
6.54497e-07
0.00840582
3.39849e-07
0.00838469
3.52789e-06
0.00839918
4.85891e-06
0.0083724
2.17839e-05
0.00836324
7.10957e-05
0.00829103
0.000336987
0.00129225
0.00830668
0.00840003
-8.37915e-15
0.00840003
1.76886e-13
0.00840003
-3.48265e-14
0.00840003
1.74065e-12
0.00840003
-1.08437e-13
0.00840003
9.59559e-12
0.00840003
2.35197e-12
0.00840003
5.12265e-11
0.00840003
3.3829e-11
0.00840003
2.3788e-10
0.00840003
3.63999e-10
0.00840003
1.15146e-09
0.00839998
3.22093e-09
0.00840012
5.80623e-09
0.00839958
2.51533e-08
0.00840101
2.49326e-08
0.00839684
1.91377e-07
0.0084067
1.12402e-07
0.00838414
1.27477e-06
0.0084184
1.09252e-06
0.00836981
6.73396e-06
0.00839964
1.5785e-05
0.00835781
6.17877e-05
0.00831852
0.000282518
0.00111247
0.00835279
0.00840003
1.54897e-14
0.00840003
6.01071e-14
0.00840003
3.03344e-13
0.00840003
5.18508e-13
0.00840003
2.18668e-12
0.00840003
3.74294e-12
0.00840003
1.08608e-11
0.00840003
2.50582e-11
0.00840003
5.71572e-11
0.00840004
1.61552e-10
0.00840001
2.92691e-10
0.00840007
1.06066e-09
0.00839994
1.61803e-09
0.00840021
6.95013e-09
0.00839961
1.16566e-08
0.00840066
4.53859e-08
0.00839842
6.13851e-08
0.00840162
3.06905e-07
0.00839419
4.43797e-07
0.00840469
1.9231e-06
0.00838163
4.21341e-06
0.00839586
1.49257e-05
0.00836646
5.11986e-05
0.00833738
0.000232441
0.00092827
0.00838739
0.00840003
5.18498e-15
0.00840003
2.84317e-14
0.00840003
1.16455e-13
0.00840003
2.82508e-13
0.00840003
8.66176e-13
0.00840003
1.83736e-12
0.00840003
5.21857e-12
0.00840003
1.20686e-11
0.00840003
3.12475e-11
0.00840003
8.04982e-11
0.00840001
1.9842e-10
0.00840007
5.79171e-10
0.00839992
1.3104e-09
0.00840028
4.18432e-09
0.00839944
8.68444e-09
0.00840139
3.03225e-08
0.00839686
6.25279e-08
0.00840649
2.07477e-07
0.00838662
4.78908e-07
0.00841755
1.42209e-06
0.00837111
3.92648e-06
0.00840768
1.25145e-05
0.00836615
4.33459e-05
0.00835208
0.000186315
0.000748221
0.00841187
0.00840003
-1.20089e-15
0.00840003
5.43142e-15
0.00840003
-1.60195e-14
0.00840003
1.05916e-13
0.00840003
-2.359e-13
0.00840003
4.48223e-13
0.00840003
-1.1021e-14
0.00840003
4.5448e-13
0.00840003
1.94019e-11
0.00840003
-1.97665e-11
0.00840002
2.14027e-10
0.00840007
-3.46644e-11
0.00839992
1.95715e-09
0.00840029
-3.69534e-10
0.00839942
1.57683e-08
0.00840147
2.62817e-09
0.0083968
1.08048e-07
0.0084069
6.87962e-08
0.00838618
6.80048e-07
0.00841905
6.77926e-07
0.0083712
4.06132e-06
0.00841077
9.71436e-06
0.00837157
3.60364e-05
0.00835991
0.000144288
0.000576296
0.00842952
0.00840003
2.35616e-14
0.00840003
-9.22088e-14
0.00840003
3.50424e-13
0.00840003
-8.87955e-13
0.00840003
2.36225e-12
0.00840003
-4.73856e-12
0.00840003
1.25813e-11
0.00840003
-2.17768e-11
0.00840003
5.93742e-11
0.00840004
-6.01003e-11
0.00840002
2.21685e-10
0.00840005
1.83523e-10
0.00839999
4.44568e-10
0.00840006
5.27099e-09
0.00839998
-3.3607e-09
0.00839971
5.39388e-08
0.0084005
-3.72502e-08
0.00839757
4.03689e-07
0.00840221
-1.12122e-07
0.00839491
2.05911e-06
0.00839722
1.55519e-06
0.00839365
9.84955e-06
0.00838567
2.6826e-05
0.00835942
0.00010739
0.000418047
0.00843599
0.00840003
-7.13625e-15
0.00840003
1.3717e-14
0.00840003
-5.08076e-14
0.00840003
1.47154e-13
0.00840003
-2.08804e-13
0.00840003
1.33828e-12
0.00840003
-2.53143e-12
0.00840003
1.1572e-11
0.00840003
-2.08968e-11
0.00840002
8.61834e-11
0.00840004
-1.13518e-10
0.0084
6.16037e-10
0.00840007
-6.21579e-10
0.00839995
3.93497e-09
0.00840003
-1.49126e-09
0.00840009
2.1904e-08
0.00839904
1.21573e-08
0.0084012
1.28323e-07
0.00839651
2.08651e-07
0.00840074
7.04332e-07
0.00839839
1.84591e-06
0.00839309
5.50939e-06
0.00838946
1.93749e-05
0.0083638
7.12593e-05
0.000274394
0.00844268
0.00840003
-1.155e-14
0.00840003
2.76153e-14
0.00840003
-1.61183e-13
0.00840003
2.73445e-13
0.00840003
-9.58502e-13
0.00840003
1.5933e-12
0.00840003
-4.63143e-12
0.00840003
9.26823e-12
0.00840003
-2.76548e-11
0.00840003
6.35944e-11
0.00840004
-1.25472e-10
0.00840002
3.68244e-10
0.00840003
-2.3235e-10
0.00840003
1.68343e-09
0.00839984
1.16262e-09
0.00840053
8.25551e-09
0.00839802
2.26238e-08
0.00840411
2.94322e-08
0.00839086
1.83847e-07
0.00841127
2.14324e-07
0.00838589
1.04184e-06
0.00840395
2.41329e-06
0.00839184
8.9638e-06
0.00836806
3.60382e-05
0.000136369
0.00845393
0.00840003
0.00840003
0.00840003
0.00840003
0.00840003
0.00840003
0.00840003
0.00840003
0.00840003
0.00840003
0.00840003
0.00840004
0.00839999
0.00840013
0.00839964
0.00840103
0.00839721
0.00840655
0.00838652
0.0084196
0.00837587
0.0084127
0.00838579
0.00837096
0.00846208
0.00394757
0.00434523
0.00153428
0.00240916
-0.00073816
0.00226954
-0.00170815
0.000970032
-0.00238298
0.000673492
-0.00271754
0.000332941
-0.00283183
0.000112835
-0.00298926
0.000156588
-0.00317294
0.000183167
-0.00332812
0.000154831
-0.00343967
0.000111299
-0.00351734
7.75381e-05
-0.00356805
5.04166e-05
-0.0036258
5.61196e-05
-0.00368449
5.6853e-05
-0.00372048
3.41265e-05
-0.0037224
-2.29652e-06
-0.00369582
-3.24335e-05
-0.00363869
-6.38701e-05
-0.0035487
-9.70814e-05
-0.00342826
-0.000127014
-0.00328518
-0.000148905
-0.00312463
-0.000164872
-0.00295221
-0.00017486
-0.00277336
-0.000180087
-0.00259022
-0.000183246
-0.00240294
-0.000186063
-0.00221229
-0.00018901
-0.00201627
-0.00019354
-0.00181518
-0.0001977
-0.00160882
-0.000203253
-0.00139469
-0.000210889
-0.00117601
-0.000214998
-0.000956991
-0.000215168
-0.000738468
-0.000214561
-0.000518987
-0.000215408
-0.00029729
-0.000217242
-7.16158e-05
-0.0002207
0.000157968
-0.000224674
0.000380686
-0.000217674
0.00059456
-0.000208458
0.000801399
-0.000201215
0.00100286
-0.000195575
0.00119742
-0.000188679
0.00138454
-0.0001815
0.00156664
-0.000176728
0.00174753
-0.000175696
0.00192396
-0.000171758
0.00209406
-0.000165889
0.00225743
-0.000159707
0.00241488
-0.000154231
0.00256595
-0.000148856
0.00271141
-0.00014364
0.00285115
-0.000138658
0.00298492
-0.00013361
0.00311309
-0.000128715
0.00323548
-0.000123872
0.00335245
-0.000119077
0.00346424
-0.000114382
0.00357052
-0.00010972
0.0036719
-0.000105102
0.00376839
-0.000100578
0.00386023
-9.60778e-05
0.00394711
-9.16667e-05
0.00402979
-8.72498e-05
0.00410795
-8.29795e-05
0.00418182
-7.86419e-05
0.00425186
-7.44752e-05