/*--------------------------------*- C++ -*----------------------------------*\
  =========                 |
  \\      /  F ield         | OpenFOAM: The Open Source CFD Toolbox
   \\    /   O peration     | Website:  https://openfoam.org
    \\  /    A nd           | Version:  10
     \\/     M anipulation  |
\*---------------------------------------------------------------------------*/
FoamFile
{
    format      ascii;
    class       volScalarField;
    location    "0.2";
    object      Exp1;
}
// * * * * * * * * * * * * * * * * * * * * * * * * * * * * * * * * * * * * * //

dimensions      [0 0 0 0 0 0 0];

internalField   uniform 0;

boundaryField
{
    frontAndBack
    {
        type            empty;
    }
    inlet
    {
        type            calculated;
        value           uniform 0;
    }
    outlet
    {
        type            calculated;
        value           uniform 0;
    }
    substrate
    {
        type            calculated;
        value           nonuniform List<scalar> 
400
(
4.59131e-05
0.000137444
0.000228256
0.000317998
0.000406359
0.000493054
0.000577829
0.000660451
0.000740712
0.000818429
0.000893437
0.000965594
0.00103478
0.00110089
0.00116384
0.00122356
0.00128001
0.00133314
0.00138294
0.0014294
0.00147253
0.00151234
0.00154886
0.00158212
0.00161217
0.00163906
0.00166285
0.00168361
0.00170141
0.00171633
0.00172844
0.00173783
0.00174459
0.0017488
0.00175057
0.00174997
0.00174712
0.0017421
0.00173502
0.00172596
0.00171503
0.00170233
0.00168795
0.00167198
0.00165453
0.00163569
0.00161554
0.00159419
0.00157172
0.00154823
0.00152378
0.00149848
0.0014724
0.00144562
0.00141823
0.00139029
0.00136187
0.00133306
0.00130391
0.0012745
0.00124487
0.00121511
0.00118525
0.00115536
0.00112548
0.00109568
0.00106598
0.00103645
0.00100711
0.000978007
0.000949179
0.000920658
0.000892476
0.00086466
0.000837239
0.000810235
0.000783671
0.000757566
0.00073194
0.000706807
0.000682181
0.000658074
0.000634498
0.000611459
0.000588966
0.000567023
0.000545635
0.000524804
0.000504531
0.000484817
0.00046566
0.000447058
0.000429008
0.000411505
0.000394545
0.000378122
0.000362229
0.000346859
0.000332004
0.000317656
0.000303806
0.000290444
0.000277561
0.000265147
0.000253192
0.000241684
0.000230613
0.000219969
0.00020974
0.000199914
0.000190482
0.000181431
0.00017275
0.000164429
0.000156456
0.00014882
0.00014151
0.000134516
0.000127826
0.000121431
0.00011532
0.000109482
0.000103908
9.85882e-05
9.35128e-05
8.86726e-05
8.40585e-05
7.96615e-05
7.54731e-05
7.14848e-05
6.76884e-05
6.4076e-05
6.064e-05
5.73727e-05
5.42671e-05
5.13161e-05
4.85129e-05
4.5851e-05
4.33242e-05
4.09262e-05
3.86514e-05
3.64939e-05
3.44485e-05
3.25098e-05
3.06729e-05
2.89329e-05
2.72851e-05
2.57252e-05
2.42488e-05
2.2852e-05
2.15307e-05
2.02812e-05
1.91e-05
1.79836e-05
1.69287e-05
1.59322e-05
1.49911e-05
1.41026e-05
1.32639e-05
1.24724e-05
1.17257e-05
1.10214e-05
1.03572e-05
9.73112e-06
9.14096e-06
8.58485e-06
8.06093e-06
7.56747e-06
7.10279e-06
6.66532e-06
6.25355e-06
5.86606e-06
5.50151e-06
5.15861e-06
4.83613e-06
4.53294e-06
4.24794e-06
3.9801e-06
3.72843e-06
3.49201e-06
3.26996e-06
3.06145e-06
2.8657e-06
2.68196e-06
2.50954e-06
2.34775e-06
2.196e-06
2.05366e-06
1.9202e-06
1.79508e-06
1.67781e-06
1.5679e-06
1.46493e-06
1.36847e-06
1.27813e-06
1.19353e-06
1.11433e-06
1.04019e-06
9.70814e-07
9.05898e-07
8.45168e-07
7.88367e-07
7.3525e-07
6.85588e-07
6.39164e-07
5.95776e-07
5.55232e-07
5.17354e-07
4.81973e-07
4.48931e-07
4.18078e-07
3.89275e-07
3.62391e-07
3.37302e-07
3.13894e-07
2.92057e-07
2.7169e-07
2.52698e-07
2.3499e-07
2.18484e-07
2.03101e-07
1.88766e-07
1.75411e-07
1.62971e-07
1.51386e-07
1.40599e-07
1.30557e-07
1.2121e-07
1.12511e-07
1.04418e-07
9.68892e-08
8.98867e-08
8.33749e-08
7.73208e-08
7.1693e-08
6.64626e-08
6.16025e-08
5.70872e-08
5.28931e-08
4.89981e-08
4.53815e-08
4.20241e-08
3.89078e-08
3.60159e-08
3.33328e-08
3.08438e-08
2.85353e-08
2.63947e-08
2.44101e-08
2.25705e-08
2.08656e-08
1.92858e-08
1.78224e-08
1.64668e-08
1.52115e-08
1.40493e-08
1.29734e-08
1.19776e-08
1.10562e-08
1.02037e-08
9.41512e-09
8.68586e-09
8.01156e-09
7.3882e-09
6.81204e-09
6.27961e-09
5.78769e-09
5.33328e-09
4.91361e-09
4.52609e-09
4.16833e-09
3.83811e-09
3.53337e-09
3.2522e-09
2.99283e-09
2.7536e-09
2.53301e-09
2.32964e-09
2.14218e-09
1.96943e-09
1.81025e-09
1.66361e-09
1.52856e-09
1.40419e-09
1.28969e-09
1.1843e-09
1.08731e-09
9.98061e-10
9.15961e-10
8.40449e-10
7.71011e-10
7.07171e-10
6.48489e-10
5.9456e-10
5.45008e-10
4.99487e-10
4.57678e-10
4.19285e-10
3.84037e-10
3.51682e-10
3.2199e-10
2.94746e-10
2.69753e-10
2.46831e-10
2.25811e-10
2.0654e-10
1.88877e-10
1.72689e-10
1.57857e-10
1.44271e-10
1.31827e-10
1.20432e-10
1.10001e-10
1.00452e-10
9.17145e-11
8.372e-11
7.64069e-11
6.97186e-11
6.3603e-11
5.80121e-11
5.2902e-11
4.82324e-11
4.3966e-11
4.00689e-11
3.65099e-11
3.32603e-11
3.02937e-11
2.75862e-11
2.51156e-11
2.28616e-11
2.08056e-11
1.89307e-11
1.72213e-11
1.5663e-11
1.42428e-11
1.29488e-11
1.17699e-11
1.06962e-11
9.71845e-12
8.82827e-12
8.01799e-12
7.28059e-12
6.60965e-12
5.99932e-12
5.44422e-12
4.93948e-12
4.48061e-12
4.06354e-12
3.68454e-12
3.3402e-12
3.02742e-12
2.74337e-12
2.48545e-12
2.25133e-12
2.03884e-12
1.84603e-12
1.67112e-12
1.51247e-12
1.36861e-12
1.23818e-12
1.11995e-12
1.01282e-12
9.15749e-13
8.27824e-13
7.48198e-13
6.76105e-13
6.10848e-13
5.51792e-13
4.98362e-13
4.50035e-13
4.06334e-13
3.66829e-13
3.31128e-13
2.98874e-13
2.69746e-13
2.43451e-13
2.19723e-13
1.98322e-13
1.79031e-13
1.61653e-13
1.46009e-13
1.31939e-13
1.19298e-13
1.07954e-13
9.77903e-14
8.86997e-14
8.05872e-14
7.33678e-14
6.69653e-14
6.13119e-14
5.63479e-14
5.20203e-14
4.82831e-14
4.50963e-14
4.24258e-14
4.0243e-14
3.85243e-14
3.72512e-14
3.641e-14
3.59917e-14
)
;
    }
    Wall
    {
        type            calculated;
        value           nonuniform List<scalar> 
400
(
4.59131e-05
0.000137445
0.000228258
0.000318002
0.000406364
0.000493059
0.000577833
0.000660454
0.000740714
0.000818429
0.000893434
0.000965589
0.00103477
0.00110088
0.00116382
0.00122355
0.00127999
0.00133312
0.00138292
0.00142938
0.0014725
0.00151231
0.00154882
0.00158208
0.00161213
0.00163902
0.00166281
0.00168357
0.00170137
0.00171628
0.00172839
0.00173778
0.00174453
0.00174875
0.00175051
0.00174992
0.00174706
0.00174204
0.00173496
0.0017259
0.00171497
0.00170227
0.00168789
0.00167192
0.00165447
0.00163563
0.00161549
0.00159414
0.00157167
0.00154817
0.00152373
0.00149842
0.00147235
0.00144557
0.00141817
0.00139023
0.00136182
0.00133301
0.00130386
0.00127445
0.00124483
0.00121506
0.0011852
0.00115531
0.00112544
0.00109564
0.00106594
0.00103641
0.00100707
0.000977971
0.000949144
0.000920625
0.000892444
0.000864629
0.000837209
0.000810206
0.000783643
0.00075754
0.000731914
0.000706782
0.000682158
0.000658052
0.000634476
0.000611439
0.000588947
0.000567005
0.000545617
0.000524787
0.000504515
0.000484802
0.000465646
0.000447044
0.000428995
0.000411493
0.000394534
0.000378111
0.000362219
0.000346849
0.000331995
0.000317648
0.000303798
0.000290437
0.000277554
0.000265141
0.000253185
0.000241678
0.000230608
0.000219964
0.000209735
0.00019991
0.000190478
0.000181427
0.000172747
0.000164426
0.000156453
0.000148817
0.000141508
0.000134514
0.000127824
0.000121429
0.000115318
0.00010948
0.000103906
9.85867e-05
9.35115e-05
8.86714e-05
8.40573e-05
7.96605e-05
7.54721e-05
7.14839e-05
6.76876e-05
6.40753e-05
6.06393e-05
5.73721e-05
5.42665e-05
5.13156e-05
4.85124e-05
4.58506e-05
4.33238e-05
4.09259e-05
3.86511e-05
3.64937e-05
3.44483e-05
3.25097e-05
3.06727e-05
2.89327e-05
2.7285e-05
2.57251e-05
2.42488e-05
2.28519e-05
2.15306e-05
2.02812e-05
1.91e-05
1.79835e-05
1.69287e-05
1.59322e-05
1.49911e-05
1.41026e-05
1.32639e-05
1.24724e-05
1.17257e-05
1.10214e-05
1.03573e-05
9.73115e-06
9.141e-06
8.58489e-06
8.06097e-06
7.56751e-06
7.10283e-06
6.66536e-06
6.25359e-06
5.86611e-06
5.50155e-06
5.15865e-06
4.83618e-06
4.53299e-06
4.24798e-06
3.98014e-06
3.72847e-06
3.49205e-06
3.27e-06
3.06149e-06
2.86574e-06
2.682e-06
2.50957e-06
2.34779e-06
2.19603e-06
2.05369e-06
1.92023e-06
1.79511e-06
1.67783e-06
1.56793e-06
1.46496e-06
1.36849e-06
1.27815e-06
1.19355e-06
1.11435e-06
1.04021e-06
9.70833e-07
9.05916e-07
8.45186e-07
7.88384e-07
7.35266e-07
6.85602e-07
6.39178e-07
5.95789e-07
5.55245e-07
5.17367e-07
4.81985e-07
4.48942e-07
4.18088e-07
3.89285e-07
3.624e-07
3.37311e-07
3.13902e-07
2.92065e-07
2.71698e-07
2.52705e-07
2.34997e-07
2.18491e-07
2.03107e-07
1.88772e-07
1.75417e-07
1.62977e-07
1.51391e-07
1.40604e-07
1.30561e-07
1.21214e-07
1.12515e-07
1.04422e-07
9.68926e-08
8.98899e-08
8.3378e-08
7.73236e-08
7.16957e-08
6.64651e-08
6.16048e-08
5.70894e-08
5.28952e-08
4.90001e-08
4.53833e-08
4.20258e-08
3.89094e-08
3.60174e-08
3.33342e-08
3.08451e-08
2.85365e-08
2.63958e-08
2.44112e-08
2.25715e-08
2.08665e-08
1.92867e-08
1.78232e-08
1.64676e-08
1.52123e-08
1.405e-08
1.2974e-08
1.19782e-08
1.10567e-08
1.02042e-08
9.41561e-09
8.68632e-09
8.01199e-09
7.3886e-09
6.81242e-09
6.27996e-09
5.78802e-09
5.33359e-09
4.91389e-09
4.52635e-09
4.16858e-09
3.83834e-09
3.53358e-09
3.2524e-09
2.99301e-09
2.75377e-09
2.53317e-09
2.32979e-09
2.14232e-09
1.96955e-09
1.81037e-09
1.66372e-09
1.52866e-09
1.40429e-09
1.28978e-09
1.18438e-09
1.08738e-09
9.98131e-10
9.16026e-10
8.4051e-10
7.71067e-10
7.07223e-10
6.48538e-10
5.94605e-10
5.45049e-10
4.99525e-10
4.57713e-10
4.19318e-10
3.84067e-10
3.5171e-10
3.22016e-10
2.9477e-10
2.69775e-10
2.46851e-10
2.2583e-10
2.06558e-10
1.88893e-10
1.72704e-10
1.57871e-10
1.44283e-10
1.31839e-10
1.20443e-10
1.10011e-10
1.00462e-10
9.1723e-11
8.37278e-11
7.64141e-11
6.97252e-11
6.36091e-11
5.80177e-11
5.29072e-11
4.82371e-11
4.39704e-11
4.00729e-11
3.65136e-11
3.32637e-11
3.02969e-11
2.75891e-11
2.51182e-11
2.2864e-11
2.08078e-11
1.89328e-11
1.72232e-11
1.56647e-11
1.42444e-11
1.29503e-11
1.17713e-11
1.06974e-11
9.71957e-12
8.82929e-12
8.01892e-12
7.28144e-12
6.61043e-12
6.00003e-12
5.44488e-12
4.94008e-12
4.48116e-12
4.06405e-12
3.685e-12
3.34062e-12
3.0278e-12
2.74372e-12
2.48578e-12
2.25162e-12
2.03911e-12
1.84628e-12
1.67134e-12
1.51267e-12
1.36879e-12
1.23834e-12
1.12011e-12
1.01296e-12
9.15877e-13
8.2794e-13
7.48304e-13
6.76202e-13
6.10936e-13
5.51872e-13
4.98435e-13
4.50101e-13
4.06395e-13
3.66884e-13
3.31178e-13
2.9892e-13
2.69787e-13
2.43488e-13
2.19757e-13
1.98353e-13
1.79059e-13
1.61678e-13
1.46032e-13
1.3196e-13
1.19317e-13
1.07972e-13
9.7806e-14
8.87139e-14
8.06002e-14
7.33796e-14
6.69761e-14
6.13218e-14
5.6357e-14
5.20287e-14
4.82909e-14
4.51036e-14
4.24328e-14
4.02497e-14
3.85307e-14
3.72572e-14
3.64149e-14
3.59956e-14
)
;
    }
}


// ************************************************************************* //
