/*--------------------------------*- C++ -*----------------------------------*\
  =========                 |
  \\      /  F ield         | OpenFOAM: The Open Source CFD Toolbox
   \\    /   O peration     | Website:  https://openfoam.org
    \\  /    A nd           | Version:  10
     \\/     M anipulation  |
\*---------------------------------------------------------------------------*/
FoamFile
{
    format      ascii;
    class       volScalarField;
    location    "0.2";
    object      N1;
}
// * * * * * * * * * * * * * * * * * * * * * * * * * * * * * * * * * * * * * //

dimensions      [0 0 0 0 0 0 0];

internalField   nonuniform List<scalar> 
8000
(
0.000348524
0.00104375
0.00173402
0.00241667
0.0030893
0.00374973
0.004396
0.00502632
0.00563911
0.00623291
0.00680647
0.00735866
0.00788853
0.00839525
0.00887816
0.0093367
0.00977046
0.0101791
0.0105625
0.0109205
0.0112532
0.0115606
0.0118429
0.0121003
0.0123332
0.012542
0.0127271
0.0128889
0.013028
0.0131449
0.0132403
0.0133148
0.0133691
0.0134038
0.0134196
0.0134173
0.0133975
0.013361
0.0133086
0.0132409
0.0131588
0.0130629
0.0129541
0.012833
0.0127004
0.0125571
0.0124036
0.0122409
0.0120694
0.0118899
0.0117031
0.0115097
0.0113102
0.0111052
0.0108955
0.0106815
0.0104638
0.0102429
0.0100195
0.00979393
0.00956674
0.00933839
0.00910931
0.00887992
0.00865064
0.00842183
0.00819387
0.00796708
0.00774179
0.00751829
0.00729688
0.0070778
0.0068613
0.0066476
0.00643691
0.00622942
0.0060253
0.0058247
0.00562776
0.0054346
0.00524533
0.00506004
0.00487882
0.00470173
0.00452882
0.00436014
0.00419572
0.00403558
0.00387972
0.00372816
0.00358087
0.00343785
0.00329907
0.0031645
0.00303409
0.00290781
0.00278561
0.00266743
0.0025532
0.00244287
0.00233637
0.00223362
0.00213456
0.0020391
0.00194716
0.00185866
0.00177353
0.00169168
0.00161301
0.00153745
0.00146492
0.00139531
0.00132856
0.00126456
0.00120325
0.00114453
0.00108831
0.00103452
0.000983074
0.000933891
0.00088689
0.000841995
0.000799129
0.000758216
0.000719183
0.000681959
0.000646473
0.000612658
0.000580446
0.000549773
0.000520577
0.000492795
0.000466369
0.000441242
0.000417357
0.000394661
0.000373103
0.000352631
0.000333198
0.000314756
0.000297261
0.000280668
0.000264937
0.000250027
0.0002359
0.000222517
0.000209845
0.000197848
0.000186494
0.000175751
0.000165589
0.000155979
0.000146895
0.000138309
0.000130196
0.000122532
0.000115294
0.00010846
0.00010201
9.59232e-05
9.01805e-05
8.47638e-05
7.9656e-05
7.48405e-05
7.03017e-05
6.60247e-05
6.19954e-05
5.82002e-05
5.46264e-05
5.12619e-05
4.80951e-05
4.5115e-05
4.23113e-05
3.9674e-05
3.7194e-05
3.48622e-05
3.26703e-05
3.06103e-05
2.86748e-05
2.68565e-05
2.51488e-05
2.35452e-05
2.20397e-05
2.06266e-05
1.93005e-05
1.80562e-05
1.68891e-05
1.57944e-05
1.4768e-05
1.38057e-05
1.29038e-05
1.20585e-05
1.12666e-05
1.05247e-05
9.82988e-06
9.17925e-06
8.57013e-06
7.99997e-06
7.46638e-06
6.96712e-06
6.50006e-06
6.06321e-06
5.6547e-06
5.27275e-06
4.91571e-06
4.58202e-06
4.27021e-06
3.97889e-06
3.70678e-06
3.45266e-06
3.21537e-06
2.99385e-06
2.78709e-06
2.59414e-06
2.41411e-06
2.24617e-06
2.08953e-06
1.94346e-06
1.80728e-06
1.68033e-06
1.56202e-06
1.45177e-06
1.34906e-06
1.25339e-06
1.16429e-06
1.08133e-06
1.00409e-06
9.32207e-07
8.65308e-07
8.03064e-07
7.4516e-07
6.91305e-07
6.41224e-07
5.94662e-07
5.5138e-07
5.11154e-07
4.73775e-07
4.39049e-07
4.06793e-07
3.76837e-07
3.49022e-07
3.23201e-07
2.99234e-07
2.76993e-07
2.56357e-07
2.37215e-07
2.19461e-07
2.02997e-07
1.87734e-07
1.73586e-07
1.60474e-07
1.48324e-07
1.37069e-07
1.26644e-07
1.1699e-07
1.08051e-07
9.97763e-08
9.21179e-08
8.50312e-08
7.84749e-08
7.24103e-08
6.68017e-08
6.16157e-08
5.68215e-08
5.23904e-08
4.82956e-08
4.45123e-08
4.10175e-08
3.77898e-08
3.48095e-08
3.2058e-08
2.95183e-08
2.71746e-08
2.50122e-08
2.30174e-08
2.11776e-08
1.9481e-08
1.79169e-08
1.64752e-08
1.51466e-08
1.39224e-08
1.27946e-08
1.17559e-08
1.07994e-08
9.91885e-09
9.10828e-09
8.36231e-09
7.67593e-09
7.04451e-09
6.46377e-09
5.92973e-09
5.43875e-09
4.98743e-09
4.57267e-09
4.19157e-09
3.84148e-09
3.51993e-09
3.22466e-09
2.95357e-09
2.70474e-09
2.47637e-09
2.26684e-09
2.07463e-09
1.89834e-09
1.73668e-09
1.58847e-09
1.45262e-09
1.32813e-09
1.21406e-09
1.10956e-09
1.01386e-09
9.26226e-10
8.45998e-10
7.72564e-10
7.05363e-10
6.43878e-10
5.87634e-10
5.36195e-10
4.89161e-10
4.46162e-10
4.06862e-10
3.70948e-10
3.38136e-10
3.08164e-10
2.80792e-10
2.558e-10
2.32985e-10
2.12161e-10
1.9316e-10
1.75825e-10
1.60013e-10
1.45593e-10
1.32446e-10
1.20462e-10
1.0954e-10
9.95873e-11
9.05208e-11
8.22629e-11
7.47432e-11
6.78969e-11
6.16651e-11
5.59939e-11
5.08338e-11
4.61398e-11
4.18707e-11
3.79888e-11
3.44597e-11
3.12521e-11
2.83372e-11
2.5689e-11
2.32834e-11
2.10988e-11
1.91153e-11
1.73146e-11
1.56804e-11
1.41976e-11
1.28523e-11
1.16322e-11
1.05257e-11
9.52262e-12
8.61338e-12
7.78942e-12
7.04289e-12
6.36667e-12
5.75428e-12
5.19982e-12
4.69794e-12
4.24375e-12
3.83283e-12
3.46115e-12
3.12506e-12
2.82123e-12
2.54666e-12
2.2986e-12
2.07458e-12
1.87234e-12
1.68985e-12
1.52526e-12
1.3769e-12
1.24325e-12
1.12293e-12
1.01473e-12
9.17504e-13
8.30261e-13
7.52091e-13
6.82176e-13
6.19784e-13
5.64261e-13
5.1502e-13
4.71541e-13
4.33363e-13
4.0008e-13
3.71338e-13
3.46829e-13
3.26291e-13
3.09503e-13
2.96284e-13
2.86493e-13
2.80024e-13
2.76806e-13
0.00035209
0.00105476
0.00175305
0.00244436
0.00312629
0.00379666
0.00445345
0.00509485
0.0057192
0.00632501
0.00691093
0.0074758
0.00801857
0.00853837
0.00903444
0.00950617
0.00995306
0.0103748
0.010771
0.0111416
0.0114866
0.0118059
0.0120998
0.0123683
0.0126119
0.0128307
0.0130253
0.0131961
0.0133435
0.0134682
0.0135707
0.0136517
0.0137118
0.0137516
0.013772
0.0137735
0.013757
0.0137231
0.0136726
0.0136064
0.0135251
0.0134295
0.0133204
0.0131985
0.0130646
0.0129194
0.0127638
0.0125983
0.0124237
0.0122408
0.0120502
0.0118526
0.0116486
0.0114389
0.0112241
0.0110048
0.0107816
0.0105551
0.0103258
0.0100942
0.00986085
0.00962622
0.00939077
0.00915493
0.00891913
0.00868377
0.0084492
0.0082158
0.0079839
0.0077538
0.0075258
0.00730017
0.00707716
0.00685702
0.00663994
0.00642613
0.00621577
0.00600901
0.00580601
0.00560689
0.00541176
0.00522073
0.00503387
0.00485125
0.00467295
0.00449899
0.00432941
0.00416423
0.00400348
0.00384713
0.0036952
0.00354766
0.00340449
0.00326566
0.00313112
0.00300084
0.00287475
0.00275281
0.00263495
0.00252111
0.00241122
0.0023052
0.00220297
0.00210446
0.00200959
0.00191827
0.00183042
0.00174595
0.00166477
0.00158679
0.00151193
0.0014401
0.00137121
0.00130516
0.00124188
0.00118128
0.00112326
0.00106775
0.00101465
0.00096389
0.000915382
0.000869046
0.000824804
0.000782578
0.000742293
0.000703874
0.000667249
0.000632347
0.000599101
0.000567443
0.000537309
0.000508635
0.00048136
0.000455425
0.000430773
0.000407348
0.000385097
0.000363968
0.00034391
0.000324875
0.000306817
0.000289692
0.000273455
0.000258066
0.000243484
0.000229672
0.000216592
0.000204209
0.00019249
0.000181402
0.000170913
0.000160995
0.000151618
0.000142756
0.000134382
0.000126472
0.000119001
0.000111948
0.00010529
9.90077e-05
9.30803e-05
8.74895e-05
8.22174e-05
7.72471e-05
7.25623e-05
6.81478e-05
6.39889e-05
6.00717e-05
5.63831e-05
5.29103e-05
4.96417e-05
4.65658e-05
4.36719e-05
4.09498e-05
3.839e-05
3.59832e-05
3.37209e-05
3.15947e-05
2.95969e-05
2.77201e-05
2.59575e-05
2.43023e-05
2.27484e-05
2.12899e-05
1.99211e-05
1.86369e-05
1.74322e-05
1.63023e-05
1.52429e-05
1.42497e-05
1.33187e-05
1.24463e-05
1.16289e-05
1.08631e-05
1.0146e-05
9.47444e-06
8.84573e-06
8.25723e-06
7.70649e-06
7.19117e-06
6.70909e-06
6.25819e-06
5.83654e-06
5.44231e-06
5.07379e-06
4.72937e-06
4.40753e-06
4.10685e-06
3.82598e-06
3.56369e-06
3.31877e-06
3.09013e-06
2.87672e-06
2.67756e-06
2.49174e-06
2.3184e-06
2.15672e-06
2.00596e-06
1.86539e-06
1.73436e-06
1.61225e-06
1.49846e-06
1.39244e-06
1.29369e-06
1.20173e-06
1.1161e-06
1.03638e-06
9.62185e-07
8.93135e-07
8.28888e-07
7.69122e-07
7.13535e-07
6.61844e-07
6.13785e-07
5.69111e-07
5.27591e-07
4.89011e-07
4.53168e-07
4.19874e-07
3.88955e-07
3.60246e-07
3.33594e-07
3.08857e-07
2.859e-07
2.64601e-07
2.44843e-07
2.26518e-07
2.09525e-07
1.93771e-07
1.79168e-07
1.65634e-07
1.53094e-07
1.41477e-07
1.30716e-07
1.20752e-07
1.11525e-07
1.02985e-07
9.50802e-08
8.77656e-08
8.09984e-08
7.47388e-08
6.89498e-08
6.35971e-08
5.86488e-08
5.40751e-08
4.98486e-08
4.59437e-08
4.23365e-08
3.9005e-08
3.59288e-08
3.30889e-08
3.04676e-08
2.80485e-08
2.58165e-08
2.37575e-08
2.18586e-08
2.01075e-08
1.84931e-08
1.7005e-08
1.56336e-08
1.43701e-08
1.3206e-08
1.21339e-08
1.11467e-08
1.02378e-08
9.40117e-09
8.63121e-09
7.92277e-09
7.27104e-09
6.67162e-09
6.12041e-09
5.61364e-09
5.14781e-09
4.71971e-09
4.32636e-09
3.96501e-09
3.63312e-09
3.32835e-09
3.04855e-09
2.79171e-09
2.55601e-09
2.33974e-09
2.14134e-09
1.95938e-09
1.79252e-09
1.63955e-09
1.49933e-09
1.37083e-09
1.2531e-09
1.14524e-09
1.04646e-09
9.56011e-10
8.73202e-10
7.97407e-10
7.28045e-10
6.64582e-10
6.0653e-10
5.53437e-10
5.0489e-10
4.60509e-10
4.19945e-10
3.82876e-10
3.49009e-10
3.18073e-10
2.89821e-10
2.64025e-10
2.40476e-10
2.18984e-10
1.99371e-10
1.81479e-10
1.65158e-10
1.50275e-10
1.36705e-10
1.24335e-10
1.13062e-10
1.0279e-10
9.34316e-11
8.49082e-11
7.71466e-11
7.00802e-11
6.3648e-11
5.77944e-11
5.24684e-11
4.76235e-11
4.32171e-11
3.92104e-11
3.55678e-11
3.2257e-11
2.92484e-11
2.6515e-11
2.40321e-11
2.17773e-11
1.97299e-11
1.78714e-11
1.61847e-11
1.46541e-11
1.32656e-11
1.20062e-11
1.08642e-11
9.82883e-12
8.89035e-12
8.03989e-12
7.26935e-12
6.57139e-12
5.93931e-12
5.36703e-12
4.849e-12
4.38021e-12
3.95608e-12
3.57245e-12
3.22554e-12
2.91195e-12
2.62854e-12
2.37251e-12
2.14129e-12
1.93255e-12
1.74419e-12
1.57431e-12
1.42117e-12
1.28322e-12
1.15904e-12
1.04735e-12
9.47006e-13
8.56959e-13
7.76274e-13
7.04111e-13
6.39713e-13
5.82405e-13
5.3158e-13
4.86703e-13
4.47298e-13
4.12945e-13
3.83278e-13
3.57981e-13
3.36783e-13
3.19455e-13
3.05812e-13
2.95706e-13
2.89028e-13
2.85707e-13
0.000355582
0.00106539
0.00177118
0.00247044
0.00316082
0.00384013
0.00450636
0.00515764
0.00579229
0.00640877
0.00700568
0.00758179
0.00813601
0.0086674
0.00917515
0.00965857
0.0101171
0.0105504
0.010958
0.0113398
0.0116957
0.0120257
0.0123298
0.0126082
0.0128612
0.0130891
0.0132921
0.0134709
0.0136258
0.0137574
0.0138663
0.013953
0.0140183
0.0140628
0.0140872
0.0140922
0.0140785
0.014047
0.0139984
0.0139334
0.0138529
0.0137575
0.0136482
0.0135256
0.0133906
0.0132438
0.0130862
0.0129183
0.012741
0.012555
0.012361
0.0121596
0.0119516
0.0117377
0.0115184
0.0112944
0.0110663
0.0108347
0.0106002
0.0103632
0.0101244
0.00988414
0.009643
0.00940139
0.00915976
0.00891853
0.00867806
0.00843875
0.00820092
0.00796491
0.00773102
0.00749952
0.00727069
0.00704476
0.00682196
0.00660249
0.00638654
0.00617427
0.00596584
0.00576138
0.005561
0.00536481
0.0051729
0.00498534
0.00480219
0.0046235
0.0044493
0.00427962
0.00411446
0.00395384
0.00379774
0.00364615
0.00349904
0.00335639
0.00321815
0.00308427
0.00295471
0.0028294
0.00270828
0.00259129
0.00247836
0.0023694
0.00226434
0.0021631
0.00206559
0.00197174
0.00188145
0.00179463
0.00171119
0.00163105
0.00155411
0.00148028
0.00140947
0.00134158
0.00127654
0.00121425
0.00115462
0.00109755
0.00104298
0.000990802
0.000940941
0.000893313
0.000847837
0.000804434
0.000763024
0.000723533
0.000685886
0.000650011
0.000615836
0.000583295
0.000552319
0.000522844
0.000494808
0.000468149
0.000442809
0.00041873
0.000395857
0.000374138
0.000353519
0.000333953
0.000315391
0.000297787
0.000281097
0.000265278
0.000250289
0.00023609
0.000222645
0.000209916
0.00019787
0.000186471
0.00017569
0.000165494
0.000155856
0.000146746
0.000138138
0.000130006
0.000122327
0.000115077
0.000108233
0.000101775
9.56819e-05
8.99348e-05
8.45154e-05
7.94061e-05
7.45905e-05
7.00526e-05
6.57775e-05
6.17508e-05
5.7959e-05
5.43892e-05
5.10292e-05
4.78673e-05
4.48926e-05
4.20944e-05
3.94631e-05
3.6989e-05
3.46634e-05
3.24778e-05
3.04242e-05
2.8495e-05
2.6683e-05
2.49816e-05
2.33843e-05
2.1885e-05
2.04779e-05
1.91578e-05
1.79194e-05
1.6758e-05
1.5669e-05
1.4648e-05
1.3691e-05
1.27942e-05
1.19539e-05
1.11668e-05
1.04296e-05
9.73927e-06
9.09298e-06
8.48804e-06
7.9219e-06
7.39218e-06
6.89662e-06
6.43312e-06
5.99968e-06
5.59443e-06
5.21561e-06
4.86156e-06
4.53073e-06
4.22164e-06
3.93293e-06
3.6633e-06
3.41154e-06
3.1765e-06
2.95713e-06
2.7524e-06
2.56139e-06
2.3832e-06
2.21701e-06
2.06203e-06
1.91754e-06
1.78284e-06
1.65731e-06
1.54034e-06
1.43137e-06
1.32986e-06
1.23532e-06
1.1473e-06
1.06535e-06
9.8908e-07
9.181e-07
8.52058e-07
7.90622e-07
7.33481e-07
6.80345e-07
6.30942e-07
5.85019e-07
5.42339e-07
5.0268e-07
4.65835e-07
4.31611e-07
3.99828e-07
3.70316e-07
3.42919e-07
3.1749e-07
2.93892e-07
2.71997e-07
2.51687e-07
2.3285e-07
2.15382e-07
1.99188e-07
1.84176e-07
1.70264e-07
1.57374e-07
1.45432e-07
1.3437e-07
1.24127e-07
1.14643e-07
1.05864e-07
9.77379e-08
9.02189e-08
8.32626e-08
7.6828e-08
7.08772e-08
6.53749e-08
6.02882e-08
5.55867e-08
5.1242e-08
4.72279e-08
4.35199e-08
4.00954e-08
3.69332e-08
3.40138e-08
3.13192e-08
2.88325e-08
2.65382e-08
2.44216e-08
2.24696e-08
2.06695e-08
1.901e-08
1.74804e-08
1.60706e-08
1.47718e-08
1.35752e-08
1.24731e-08
1.14583e-08
1.0524e-08
9.66397e-09
8.87249e-09
8.14424e-09
7.4743e-09
6.85812e-09
6.2915e-09
5.77056e-09
5.29171e-09
4.85165e-09
4.4473e-09
4.07584e-09
3.73468e-09
3.42139e-09
3.13377e-09
2.86975e-09
2.62746e-09
2.40514e-09
2.2012e-09
2.01415e-09
1.84263e-09
1.68538e-09
1.54125e-09
1.40915e-09
1.28813e-09
1.17726e-09
1.07572e-09
9.82735e-10
8.97612e-10
8.19698e-10
7.48397e-10
6.8316e-10
6.23485e-10
5.68908e-10
5.19004e-10
4.73383e-10
4.31684e-10
3.93579e-10
3.58765e-10
3.26965e-10
2.97923e-10
2.71406e-10
2.47199e-10
2.25105e-10
2.04945e-10
1.86552e-10
1.69775e-10
1.54476e-10
1.40527e-10
1.27811e-10
1.16223e-10
1.05663e-10
9.60435e-11
8.72818e-11
7.93032e-11
7.20393e-11
6.54273e-11
5.94101e-11
5.39352e-11
4.89548e-11
4.44252e-11
4.03065e-11
3.65621e-11
3.31588e-11
3.00661e-11
2.72562e-11
2.47039e-11
2.2386e-11
2.02815e-11
1.8371e-11
1.66371e-11
1.50638e-11
1.36364e-11
1.23419e-11
1.11679e-11
1.01036e-11
9.13889e-12
8.26465e-12
7.47257e-12
6.7551e-12
6.10535e-12
5.51706e-12
4.98456e-12
4.50266e-12
4.06667e-12
3.67232e-12
3.31572e-12
2.99335e-12
2.70203e-12
2.43884e-12
2.20115e-12
1.98657e-12
1.79295e-12
1.61832e-12
1.4609e-12
1.3191e-12
1.19144e-12
1.07663e-12
9.73481e-13
8.80916e-13
7.97976e-13
7.23795e-13
6.57597e-13
5.98686e-13
5.46441e-13
5.0031e-13
4.59803e-13
4.2449e-13
3.93994e-13
3.6799e-13
3.46199e-13
3.28388e-13
3.14364e-13
3.03974e-13
2.97107e-13
2.93692e-13
0.000358855
0.00107529
0.00178794
0.00249438
0.00319231
0.00387956
0.00455411
0.0052141
0.00585779
0.00648361
0.00709014
0.00767609
0.00824032
0.00878184
0.00929979
0.00979343
0.0102622
0.0107055
0.0111231
0.0115147
0.0118802
0.0122194
0.0125325
0.0128196
0.0130809
0.0133166
0.0135271
0.0137129
0.0138744
0.014012
0.0141265
0.0142183
0.0142881
0.0143367
0.0143646
0.0143727
0.0143617
0.0143322
0.0142852
0.0142214
0.0141415
0.0140464
0.0139368
0.0138137
0.0136776
0.0135295
0.0133701
0.0132002
0.0130205
0.0128318
0.0126348
0.0124302
0.0122187
0.012001
0.0117778
0.0115497
0.0113173
0.0110812
0.0108421
0.0106004
0.0103567
0.0101115
0.00986534
0.00961866
0.0093719
0.0091255
0.00887984
0.00863531
0.00839227
0.00815105
0.00791197
0.00767531
0.00744134
0.00721032
0.00698248
0.00675802
0.00653714
0.00632002
0.0061068
0.00589763
0.00569262
0.00549189
0.00529553
0.0051036
0.00491618
0.00473332
0.00455504
0.00438138
0.00421235
0.00404795
0.00388818
0.00373302
0.00358244
0.00343642
0.00329491
0.00315786
0.00302523
0.00289695
0.00277296
0.0026532
0.00253758
0.00242603
0.00231847
0.00221482
0.002115
0.0020189
0.00192646
0.00183757
0.00175214
0.00167009
0.00159131
0.00151572
0.00144321
0.00137371
0.00130711
0.00124333
0.00118227
0.00112385
0.00106797
0.00101454
0.000963488
0.00091472
0.000868156
0.000823713
0.000781312
0.000740875
0.000702326
0.000665592
0.000630599
0.000597278
0.00056556
0.000535379
0.000506671
0.000479374
0.000453426
0.00042877
0.000405349
0.000383109
0.000361996
0.000341961
0.000322954
0.000304928
0.000287838
0.000271639
0.000256291
0.000241752
0.000227984
0.000214951
0.000202615
0.000190943
0.000179903
0.000169463
0.000159593
0.000150265
0.000141451
0.000133124
0.000125261
0.000117837
0.000110829
0.000104216
9.79768e-05
9.20918e-05
8.65424e-05
8.13107e-05
7.63795e-05
7.17328e-05
6.73551e-05
6.32319e-05
5.93491e-05
5.56937e-05
5.22531e-05
4.90154e-05
4.59693e-05
4.31041e-05
4.04096e-05
3.78762e-05
3.54948e-05
3.32568e-05
3.11539e-05
2.91784e-05
2.7323e-05
2.55808e-05
2.39451e-05
2.24099e-05
2.09691e-05
1.96173e-05
1.83492e-05
1.716e-05
1.60448e-05
1.49993e-05
1.40194e-05
1.3101e-05
1.22406e-05
1.14346e-05
1.06797e-05
9.97286e-06
9.31108e-06
8.69162e-06
8.11191e-06
7.56948e-06
7.06204e-06
6.58742e-06
6.14358e-06
5.72862e-06
5.34071e-06
4.97817e-06
4.6394e-06
4.3229e-06
4.02726e-06
3.75116e-06
3.49336e-06
3.25269e-06
3.02805e-06
2.81842e-06
2.62283e-06
2.44036e-06
2.27018e-06
2.11149e-06
1.96353e-06
1.82561e-06
1.69706e-06
1.57729e-06
1.4657e-06
1.36175e-06
1.26495e-06
1.17482e-06
1.09091e-06
1.0128e-06
9.4012e-07
8.72494e-07
8.09584e-07
7.51073e-07
6.96662e-07
6.46075e-07
5.99051e-07
5.55347e-07
5.14737e-07
4.77008e-07
4.41963e-07
4.09417e-07
3.79198e-07
3.51144e-07
3.25105e-07
3.00941e-07
2.78521e-07
2.57724e-07
2.38435e-07
2.20548e-07
2.03965e-07
1.88594e-07
1.74348e-07
1.61148e-07
1.4892e-07
1.37593e-07
1.27104e-07
1.17393e-07
1.08403e-07
1.00082e-07
9.23828e-08
8.52596e-08
7.86706e-08
7.25771e-08
6.69428e-08
6.17341e-08
5.69199e-08
5.2471e-08
4.83606e-08
4.45637e-08
4.1057e-08
3.7819e-08
3.48296e-08
3.20704e-08
2.95241e-08
2.71747e-08
2.50074e-08
2.30085e-08
2.11653e-08
1.9466e-08
1.78996e-08
1.64561e-08
1.5126e-08
1.39008e-08
1.27723e-08
1.17331e-08
1.07764e-08
9.89574e-09
9.08528e-09
8.33957e-09
7.65356e-09
7.0226e-09
6.44239e-09
5.90896e-09
5.41863e-09
4.96801e-09
4.55396e-09
4.1736e-09
3.82425e-09
3.50345e-09
3.20892e-09
2.93858e-09
2.69047e-09
2.46283e-09
2.25399e-09
2.06246e-09
1.88683e-09
1.7258e-09
1.57821e-09
1.44295e-09
1.31902e-09
1.20549e-09
1.10151e-09
1.0063e-09
9.1914e-10
8.39357e-10
7.66346e-10
6.99545e-10
6.38438e-10
5.82553e-10
5.31452e-10
4.84736e-10
4.42037e-10
4.03019e-10
3.6737e-10
3.34807e-10
3.05068e-10
2.77915e-10
2.53127e-10
2.30504e-10
2.0986e-10
1.91026e-10
1.73847e-10
1.58181e-10
1.43897e-10
1.30877e-10
1.1901e-10
1.08197e-10
9.83469e-11
8.93751e-11
8.12052e-11
7.3767e-11
6.69965e-11
6.08349e-11
5.52287e-11
5.01289e-11
4.54907e-11
4.12732e-11
3.7439e-11
3.3954e-11
3.07871e-11
2.79099e-11
2.52964e-11
2.29229e-11
2.07679e-11
1.88116e-11
1.70361e-11
1.5425e-11
1.39635e-11
1.26378e-11
1.14357e-11
1.03459e-11
9.35806e-12
8.46285e-12
7.65178e-12
6.9171e-12
6.25177e-12
5.64938e-12
5.1041e-12
4.61065e-12
4.1642e-12
3.76039e-12
3.39524e-12
3.06514e-12
2.76683e-12
2.49733e-12
2.25394e-12
2.03422e-12
1.83595e-12
1.65713e-12
1.49594e-12
1.35073e-12
1.22002e-12
1.10245e-12
9.96827e-13
9.02042e-13
8.17113e-13
7.41153e-13
6.73368e-13
6.13044e-13
5.59546e-13
5.12308e-13
4.7083e-13
4.3467e-13
4.03443e-13
3.76815e-13
3.54502e-13
3.36264e-13
3.21904e-13
3.11267e-13
3.04234e-13
3.00737e-13
0.000361794
0.00108416
0.0018029
0.00251566
0.00322018
0.00391432
0.00459607
0.00526356
0.00591502
0.00654888
0.00716365
0.00775803
0.00833084
0.00888104
0.00940771
0.0099101
0.0103876
0.0108396
0.0112657
0.0116657
0.0120393
0.0123865
0.0127074
0.0130018
0.0132702
0.0135127
0.0137296
0.0139214
0.0140885
0.0142314
0.0143506
0.0144468
0.0145206
0.0145727
0.0146037
0.0146144
0.0146056
0.0145779
0.0145323
0.0144695
0.0143902
0.0142953
0.0141856
0.0140619
0.013925
0.0137758
0.0136149
0.0134432
0.0132614
0.0130704
0.0128708
0.0126634
0.0124489
0.0122281
0.0120015
0.0117698
0.0115337
0.0112938
0.0110506
0.0108049
0.010557
0.0103076
0.0100571
0.00980607
0.0095549
0.00930404
0.0090539
0.00880489
0.00855735
0.00831165
0.00806808
0.00782697
0.00758858
0.00735317
0.00712098
0.00689222
0.00666709
0.00644578
0.00622843
0.0060152
0.0058062
0.00560155
0.00540135
0.00520566
0.00501456
0.00482809
0.0046463
0.00446921
0.00429684
0.00412918
0.00396624
0.00380799
0.00365442
0.00350549
0.00336116
0.00322138
0.0030861
0.00295526
0.00282879
0.00270662
0.00258869
0.00247491
0.00236519
0.00225946
0.00215763
0.00205961
0.00196531
0.00187463
0.00178749
0.00170378
0.00162342
0.00154631
0.00147234
0.00140144
0.0013335
0.00126844
0.00120615
0.00114654
0.00108953
0.00103503
0.000982949
0.000933197
0.000885693
0.000840353
0.000797097
0.000755844
0.000716517
0.000679041
0.000643342
0.000609348
0.000576989
0.000546199
0.000516911
0.000489062
0.00046259
0.000437436
0.000413542
0.000390852
0.000369313
0.000348873
0.000329482
0.000311092
0.000293656
0.00027713
0.000261472
0.000246639
0.000232593
0.000219296
0.000206711
0.000194804
0.00018354
0.000172889
0.00016282
0.000153303
0.00014431
0.000135816
0.000127794
0.000120219
0.00011307
0.000106323
9.99576e-05
9.39537e-05
8.82921e-05
8.29546e-05
7.79237e-05
7.3183e-05
6.87169e-05
6.45103e-05
6.0549e-05
5.68197e-05
5.33096e-05
5.00064e-05
4.68987e-05
4.39755e-05
4.12266e-05
3.8642e-05
3.62124e-05
3.39292e-05
3.17838e-05
2.97683e-05
2.78755e-05
2.6098e-05
2.44293e-05
2.2863e-05
2.13931e-05
2.00139e-05
1.87202e-05
1.75069e-05
1.63692e-05
1.53026e-05
1.43028e-05
1.33659e-05
1.24881e-05
1.16658e-05
1.08957e-05
1.01745e-05
9.49933e-06
8.86735e-06
8.27591e-06
7.72252e-06
7.20482e-06
6.7206e-06
6.2678e-06
5.84444e-06
5.44869e-06
5.07882e-06
4.7332e-06
4.4103e-06
4.10868e-06
3.827e-06
3.56399e-06
3.31846e-06
3.08928e-06
2.8754e-06
2.67585e-06
2.4897e-06
2.31608e-06
2.15417e-06
2.00323e-06
1.86252e-06
1.73137e-06
1.60918e-06
1.49533e-06
1.38928e-06
1.29053e-06
1.19857e-06
1.11296e-06
1.03328e-06
9.59127e-07
8.90134e-07
8.25952e-07
7.66258e-07
7.10747e-07
6.59137e-07
6.11162e-07
5.66575e-07
5.25143e-07
4.86652e-07
4.50899e-07
4.17695e-07
3.86864e-07
3.58243e-07
3.31678e-07
3.07025e-07
2.84152e-07
2.62934e-07
2.43255e-07
2.25007e-07
2.08089e-07
1.92406e-07
1.77873e-07
1.64406e-07
1.5193e-07
1.40375e-07
1.29674e-07
1.19766e-07
1.10594e-07
1.02105e-07
9.42505e-08
8.69833e-08
8.02611e-08
7.40444e-08
6.82962e-08
6.29822e-08
5.80706e-08
5.35319e-08
4.93384e-08
4.54647e-08
4.18871e-08
3.85836e-08
3.55338e-08
3.27188e-08
3.01209e-08
2.7724e-08
2.55129e-08
2.34737e-08
2.15932e-08
1.98595e-08
1.82615e-08
1.67888e-08
1.54318e-08
1.41818e-08
1.30305e-08
1.19703e-08
1.09943e-08
1.00958e-08
9.26896e-09
8.50817e-09
7.80829e-09
7.16457e-09
6.57264e-09
6.02842e-09
5.52818e-09
5.06844e-09
4.64603e-09
4.25797e-09
3.90156e-09
3.57428e-09
3.2738e-09
2.99799e-09
2.74487e-09
2.51262e-09
2.29956e-09
2.10416e-09
1.92497e-09
1.76069e-09
1.61012e-09
1.47212e-09
1.34568e-09
1.22986e-09
1.12378e-09
1.02665e-09
9.37722e-10
8.56326e-10
7.81838e-10
7.13687e-10
6.51345e-10
5.9433e-10
5.42196e-10
4.94535e-10
4.50974e-10
4.11166e-10
3.74797e-10
3.41575e-10
3.11236e-10
2.83533e-10
2.58245e-10
2.35164e-10
2.14102e-10
1.94888e-10
1.77361e-10
1.61379e-10
1.46806e-10
1.33522e-10
1.21416e-10
1.10385e-10
1.00335e-10
9.11819e-11
8.28468e-11
7.52583e-11
6.83509e-11
6.20647e-11
5.63452e-11
5.11423e-11
4.64103e-11
4.21075e-11
3.81958e-11
3.46404e-11
3.14095e-11
2.84742e-11
2.58078e-11
2.33863e-11
2.11877e-11
1.91919e-11
1.73805e-11
1.57369e-11
1.42458e-11
1.28933e-11
1.16669e-11
1.05551e-11
9.54724e-12
8.63394e-12
7.80647e-12
7.05694e-12
6.37816e-12
5.76359e-12
5.20729e-12
4.70386e-12
4.24838e-12
3.83641e-12
3.46387e-12
3.12711e-12
2.82276e-12
2.54781e-12
2.2995e-12
2.07534e-12
1.87307e-12
1.69063e-12
1.52618e-12
1.37804e-12
1.24468e-12
1.12474e-12
1.01698e-12
9.20277e-13
8.33631e-13
7.56136e-13
6.8698e-13
6.25437e-13
5.70857e-13
5.22664e-13
4.80347e-13
4.43456e-13
4.11598e-13
3.84433e-13
3.61669e-13
3.43062e-13
3.28413e-13
3.17561e-13
3.10386e-13
3.06818e-13
0.000364327
0.0010918
0.00181575
0.00253389
0.00324399
0.00394395
0.00463175
0.00530551
0.00596348
0.00660403
0.00722569
0.00782709
0.00840704
0.00896446
0.00949841
0.0100081
0.0104928
0.010952
0.0113852
0.0117922
0.0121727
0.0125265
0.0128538
0.0131544
0.0134287
0.0136768
0.0138991
0.0140959
0.0142677
0.0144149
0.0145382
0.014638
0.0147151
0.0147701
0.0148037
0.0148167
0.0148097
0.0147836
0.0147391
0.0146771
0.0145983
0.0145037
0.0143938
0.0142697
0.0141322
0.0139819
0.0138198
0.0136466
0.0134632
0.0132702
0.0130685
0.0128588
0.0126418
0.0124182
0.0121888
0.0119541
0.0117149
0.0114718
0.0112254
0.0109762
0.0107249
0.0104719
0.0102178
0.00996307
0.0097082
0.00945361
0.00919974
0.00894696
0.00869567
0.0084462
0.00819889
0.00795405
0.00771195
0.00747287
0.00723703
0.00700467
0.00677599
0.00655116
0.00633036
0.00611372
0.00590138
0.00569345
0.00549003
0.00529119
0.005097
0.00490752
0.00472278
0.00454282
0.00436764
0.00419726
0.00403166
0.00387083
0.00371475
0.00356338
0.00341669
0.00327462
0.00313712
0.00300413
0.00287558
0.00275141
0.00263153
0.00251588
0.00240435
0.00229688
0.00219337
0.00209374
0.00199788
0.0019057
0.00181712
0.00173203
0.00165034
0.00157195
0.00149676
0.00142469
0.00135562
0.00128948
0.00122616
0.00116557
0.00110761
0.00105221
0.000999262
0.000948686
0.000900394
0.000854303
0.000810329
0.000768392
0.000728413
0.000690315
0.000654023
0.000619465
0.00058657
0.000555269
0.000525495
0.000497183
0.000470272
0.0004447
0.00042041
0.000397343
0.000375447
0.000354668
0.000334954
0.000316259
0.000298534
0.000281733
0.000265815
0.000250736
0.000236457
0.000222939
0.000210145
0.000198039
0.000186589
0.000175761
0.000165524
0.000155849
0.000146708
0.000138072
0.000129916
0.000122216
0.000114948
0.000108089
0.000101618
9.55145e-05
8.97588e-05
8.43326e-05
7.92182e-05
7.43988e-05
6.98584e-05
6.55819e-05
6.15549e-05
5.77637e-05
5.41952e-05
5.08371e-05
4.76778e-05
4.47061e-05
4.19115e-05
3.92839e-05
3.6814e-05
3.44928e-05
3.23118e-05
3.02629e-05
2.83385e-05
2.65315e-05
2.48351e-05
2.32428e-05
2.17485e-05
2.03464e-05
1.90312e-05
1.77977e-05
1.66411e-05
1.55568e-05
1.45404e-05
1.3588e-05
1.26956e-05
1.18596e-05
1.10767e-05
1.03435e-05
9.65714e-06
9.01466e-06
8.4134e-06
7.85081e-06
7.32451e-06
6.83225e-06
6.37192e-06
5.94153e-06
5.5392e-06
5.16319e-06
4.81183e-06
4.48356e-06
4.17694e-06
3.89058e-06
3.6232e-06
3.37358e-06
3.1406e-06
2.92317e-06
2.72031e-06
2.53106e-06
2.35456e-06
2.18996e-06
2.0365e-06
1.89346e-06
1.76014e-06
1.63591e-06
1.52017e-06
1.41236e-06
1.31196e-06
1.21848e-06
1.13145e-06
1.05044e-06
9.75061e-07
9.04921e-07
8.39673e-07
7.78987e-07
7.22555e-07
6.70087e-07
6.21315e-07
5.75987e-07
5.33867e-07
4.94736e-07
4.58389e-07
4.24634e-07
3.93291e-07
3.64194e-07
3.37188e-07
3.12126e-07
2.88873e-07
2.67302e-07
2.47296e-07
2.28745e-07
2.11546e-07
1.95603e-07
1.80828e-07
1.67137e-07
1.54454e-07
1.42707e-07
1.31828e-07
1.21756e-07
1.12431e-07
1.03802e-07
9.58162e-08
8.84283e-08
8.15945e-08
7.52745e-08
6.94308e-08
6.40285e-08
5.90353e-08
5.44211e-08
5.0158e-08
4.62199e-08
4.25829e-08
3.92245e-08
3.61241e-08
3.32623e-08
3.06213e-08
2.81846e-08
2.59368e-08
2.38636e-08
2.19519e-08
2.01894e-08
1.85648e-08
1.70677e-08
1.56882e-08
1.44174e-08
1.3247e-08
1.21692e-08
1.11769e-08
1.02635e-08
9.42294e-09
8.64951e-09
7.938e-09
7.28359e-09
6.68182e-09
6.12857e-09
5.62001e-09
5.15264e-09
4.72321e-09
4.32871e-09
3.96638e-09
3.63365e-09
3.32818e-09
3.04779e-09
2.79046e-09
2.55436e-09
2.33776e-09
2.13911e-09
1.95695e-09
1.78994e-09
1.63686e-09
1.49658e-09
1.36804e-09
1.25029e-09
1.14245e-09
1.0437e-09
9.53299e-10
8.70551e-10
7.94827e-10
7.25543e-10
6.62166e-10
6.04203e-10
5.51203e-10
5.02751e-10
4.58465e-10
4.17996e-10
3.81023e-10
3.4725e-10
3.16406e-10
2.88244e-10
2.62535e-10
2.3907e-10
2.17659e-10
1.98125e-10
1.80308e-10
1.64059e-10
1.49245e-10
1.3574e-10
1.23433e-10
1.12218e-10
1.02002e-10
9.26966e-11
8.42231e-11
7.65085e-11
6.94863e-11
6.30958e-11
5.72812e-11
5.19919e-11
4.71813e-11
4.2807e-11
3.88304e-11
3.52159e-11
3.19313e-11
2.89472e-11
2.62365e-11
2.37748e-11
2.15397e-11
1.95107e-11
1.76692e-11
1.59983e-11
1.44824e-11
1.31075e-11
1.18607e-11
1.07304e-11
9.70584e-12
8.77737e-12
7.93616e-12
7.17417e-12
6.48411e-12
5.85933e-12
5.29379e-12
4.782e-12
4.31896e-12
3.90014e-12
3.52142e-12
3.17905e-12
2.86965e-12
2.59014e-12
2.3377e-12
2.10982e-12
1.90418e-12
1.71872e-12
1.55153e-12
1.40093e-12
1.26536e-12
1.14342e-12
1.03387e-12
9.35565e-13
8.47479e-13
7.68697e-13
6.98392e-13
6.35826e-13
5.8034e-13
5.31347e-13
4.88327e-13
4.50823e-13
4.18436e-13
3.90819e-13
3.67677e-13
3.48762e-13
3.33869e-13
3.22837e-13
3.15543e-13
3.11916e-13
0.000366406
0.00109806
0.00182628
0.00254879
0.00326342
0.00396807
0.00466074
0.00533955
0.00600274
0.00664866
0.00727582
0.00788285
0.00846851
0.0090317
0.00957146
0.010087
0.0105775
0.0110424
0.0114813
0.0118939
0.0122798
0.012639
0.0129713
0.013277
0.013556
0.0138086
0.0140352
0.014236
0.0144116
0.0145623
0.0146887
0.0147915
0.0148713
0.0149286
0.0149643
0.014979
0.0149736
0.0149487
0.0149052
0.0148438
0.0147655
0.0146709
0.014561
0.0144366
0.0142985
0.0141474
0.0139844
0.01381
0.0136252
0.0134306
0.0132272
0.0130156
0.0127966
0.0125709
0.0123392
0.0121022
0.0118605
0.0116148
0.0113657
0.0111138
0.0108597
0.0106039
0.0103469
0.0100892
0.00983137
0.0095738
0.00931691
0.00906112
0.00880681
0.00855432
0.00830401
0.00805617
0.00781109
0.00756906
0.0073303
0.00709505
0.0068635
0.00663586
0.00641228
0.00619291
0.00597788
0.00576731
0.0055613
0.00535993
0.00516326
0.00497136
0.00478425
0.00460198
0.00442455
0.00425197
0.00408424
0.00392134
0.00376324
0.00360991
0.00346132
0.00331741
0.00317813
0.00304341
0.00291319
0.0027874
0.00266597
0.00254881
0.00243583
0.00232696
0.0022221
0.00212116
0.00202405
0.00193067
0.00184093
0.00175473
0.00167197
0.00159256
0.00151639
0.00144337
0.0013734
0.00130639
0.00124224
0.00118086
0.00112215
0.00106602
0.00101237
0.000961136
0.000912211
0.000865516
0.000820965
0.000778478
0.000737975
0.000699377
0.000662609
0.000627598
0.000594271
0.000562559
0.000532395
0.000503712
0.000476447
0.00045054
0.000425931
0.000402561
0.000380377
0.000359325
0.000339353
0.000320412
0.000302454
0.000285434
0.000269306
0.000254029
0.000239562
0.000225867
0.000212905
0.000200641
0.00018904
0.00017807
0.000167699
0.000157897
0.000148635
0.000139886
0.000131623
0.000123822
0.000116458
0.000109509
0.000102953
9.67691e-05
9.09379e-05