/*--------------------------------*- C++ -*----------------------------------*\
  =========                 |
  \\      /  F ield         | OpenFOAM: The Open Source CFD Toolbox
   \\    /   O peration     | Website:  https://openfoam.org
    \\  /    A nd           | Version:  10
     \\/     M anipulation  |
\*---------------------------------------------------------------------------*/
FoamFile
{
    format      ascii;
    class       volScalarField;
    location    "0.28";
    object      beta;
}
// * * * * * * * * * * * * * * * * * * * * * * * * * * * * * * * * * * * * * //

dimensions      [0 0 0 0 0 0 0];

internalField   uniform 0;

boundaryField
{
    frontAndBack
    {
        type            empty;
    }
    inlet
    {
        type            calculated;
        value           uniform 0;
    }
    outlet
    {
        type            calculated;
        value           uniform 0;
    }
    substrate
    {
        type            calculated;
        value           nonuniform List<scalar> 
400
(
0.00265329
0.0028758
0.00308661
0.00329113
0.0034919
0.00369019
0.00388659
0.00408134
0.00427447
0.00446589
0.0046554
0.00484278
0.00502777
0.00521012
0.00538954
0.0055658
0.00573865
0.00590788
0.00607328
0.00623468
0.00639194
0.00654493
0.00669355
0.00683773
0.00697741
0.00711255
0.00724315
0.00736921
0.00749076
0.00760783
0.00772047
0.00782875
0.00793274
0.00803253
0.0081282
0.00821987
0.00830762
0.00839156
0.00847182
0.0085485
0.00862172
0.00869159
0.00875823
0.00882177
0.00888231
0.00893997
0.00899486
0.0090471
0.00909679
0.00914404
0.00918896
0.00923165
0.0092722
0.00931071
0.00934727
0.00938198
0.00941491
0.00944616
0.0094758
0.0095039
0.00953055
0.00955581
0.00957975
0.00960243
0.00962393
0.00964429
0.00966358
0.00968184
0.00969914
0.00971551
0.00973101
0.00974569
0.00975957
0.00977272
0.00978516
0.00979692
0.00980806
0.00981859
0.00982856
0.00983798
0.0098469
0.00985533
0.0098633
0.00987084
0.00987797
0.00988471
0.00989109
0.00989711
0.00990281
0.00990819
0.00991328
0.00991809
0.00992264
0.00992694
0.009931
0.00993484
0.00993847
0.0099419
0.00994514
0.0099482
0.00995109
0.00995382
0.0099564
0.00995884
0.00996115
0.00996332
0.00996538
0.00996732
0.00996916
0.00997089
0.00997252
0.00997407
0.00997553
0.00997691
0.00997821
0.00997944
0.0099806
0.0099817
0.00998273
0.00998371
0.00998463
0.0099855
0.00998633
0.0099871
0.00998784
0.00998853
0.00998918
0.0099898
0.00999038
0.00999093
0.00999145
0.00999194
0.0099924
0.00999283
0.00999325
0.00999363
0.009994
0.00999434
0.00999467
0.00999498
0.00999527
0.00999554
0.0099958
0.00999604
0.00999627
0.00999649
0.00999669
0.00999688
0.00999706
0.00999724
0.0099974
0.00999755
0.00999769
0.00999783
0.00999795
0.00999807
0.00999819
0.00999829
0.00999839
0.00999849
0.00999858
0.00999866
0.00999874
0.00999882
0.00999889
0.00999895
0.00999901
0.00999907
0.00999913
0.00999918
0.00999923
0.00999928
0.00999932
0.00999936
0.0099994
0.00999943
0.00999947
0.0099995
0.00999953
0.00999956
0.00999959
0.00999961
0.00999963
0.00999966
0.00999968
0.0099997
0.00999972
0.00999973
0.00999975
0.00999976
0.00999978
0.00999979
0.00999981
0.00999982
0.00999983
0.00999984
0.00999985
0.00999986
0.00999987
0.00999988
0.00999988
0.00999989
0.0099999
0.0099999
0.00999991
0.00999992
0.00999992
0.00999993
0.00999993
0.00999993
0.00999994
0.00999994
0.00999995
0.00999995
0.00999995
0.00999996
0.00999996
0.00999996
0.00999996
0.00999997
0.00999997
0.00999997
0.00999997
0.00999997
0.00999998
0.00999998
0.00999998
0.00999998
0.00999998
0.00999998
0.00999998
0.00999998
0.00999999
0.00999999
0.00999999
0.00999999
0.00999999
0.00999999
0.00999999
0.00999999
0.00999999
0.00999999
0.00999999
0.00999999
0.00999999
0.00999999
0.00999999
0.00999999
0.01
0.01
0.01
0.01
0.01
0.01
0.01
0.01
0.01
0.01
0.01
0.01
0.01
0.01
0.01
0.01
0.01
0.01
0.01
0.01
0.01
0.01
0.01
0.01
0.01
0.01
0.01
0.01
0.01
0.01
0.01
0.01
0.01
0.01
0.01
0.01
0.01
0.01
0.01
0.01
0.01
0.01
0.01
0.01
0.01
0.01
0.01
0.01
0.01
0.01
0.01
0.01
0.01
0.01
0.01
0.01
0.01
0.01
0.01
0.01
0.01
0.01
0.01
0.01
0.01
0.01
0.01
0.01
0.01
0.01
0.01
0.01
0.01
0.01
0.01
0.01
0.01
0.01
0.01
0.01
0.01
0.01
0.01
0.01
0.01
0.01
0.01
0.01
0.01
0.01
0.01
0.01
0.01
0.01
0.01
0.01
0.01
0.01
0.01
0.01
0.01
0.01
0.01
0.01
0.01
0.01
0.01
0.01
0.01
0.01
0.01
0.01
0.01
0.01
0.01
0.01
0.01
0.01
0.01
0.01
0.01
0.01
0.01
0.01
0.01
0.01
0.01
0.01
0.01
0.01
0.01
0.01
0.01
0.01
0.01
0.01
0.01
0.01
0.01
0.01
0.01
0.01
0.01
0.01
0.01
0.01
0.01
0.01
0.01
0.01
0.01
0.01
)
;
    }
    Wall
    {
        type            calculated;
        value           nonuniform List<scalar> 
400
(
0.00265329
0.0028758
0.00308661
0.00329112
0.0034919
0.00369019
0.00388659
0.00408134
0.00427448
0.00446589
0.0046554
0.00484278
0.00502777
0.00521011
0.00538953
0.00556579
0.00573864
0.00590786
0.00607326
0.00623466
0.00639191
0.0065449
0.00669352
0.00683769
0.00697737
0.00711251
0.00724311
0.00736917
0.00749071
0.00760778
0.00772042
0.0078287
0.00793269
0.00803248
0.00812815
0.00821981
0.00830757
0.00839151
0.00847177
0.00854845
0.00862167
0.00869154
0.00875819
0.00882172
0.00888226
0.00893992
0.00899482
0.00904706
0.00909675
0.00914401
0.00918893
0.00923161
0.00927216
0.00931068
0.00934724
0.00938195
0.00941488
0.00944613
0.00947577
0.00950387
0.00953052
0.00955578
0.00957972
0.00960241
0.00962391
0.00964427
0.00966356
0.00968182
0.00969912
0.00971549
0.009731
0.00974567
0.00975956
0.0097727
0.00978514
0.00979691
0.00980805
0.00981858
0.00982855
0.00983797
0.00984689
0.00985532
0.00986329
0.00987084
0.00987797
0.00988471
0.00989108
0.00989711
0.0099028
0.00990819
0.00991328
0.00991809
0.00992264
0.00992694
0.009931
0.00993484
0.00993847
0.00994189
0.00994513
0.00994819
0.00995109
0.00995382
0.0099564
0.00995884
0.00996114
0.00996332
0.00996538
0.00996732
0.00996915
0.00997089
0.00997252
0.00997407
0.00997553
0.00997691
0.00997821
0.00997944
0.0099806
0.0099817
0.00998273
0.00998371
0.00998463
0.0099855
0.00998633
0.0099871
0.00998784
0.00998853
0.00998918
0.0099898
0.00999038
0.00999093
0.00999145
0.00999194
0.0099924
0.00999283
0.00999325
0.00999363
0.009994
0.00999434
0.00999467
0.00999498
0.00999527
0.00999554
0.0099958
0.00999604
0.00999627
0.00999649
0.00999669
0.00999688
0.00999706
0.00999724
0.0099974
0.00999755
0.00999769
0.00999783
0.00999795
0.00999807
0.00999819
0.00999829
0.00999839
0.00999849
0.00999858
0.00999866
0.00999874
0.00999882
0.00999889
0.00999895
0.00999901
0.00999907
0.00999913
0.00999918
0.00999923
0.00999928
0.00999932
0.00999936
0.0099994
0.00999943
0.00999947
0.0099995
0.00999953
0.00999956
0.00999959
0.00999961
0.00999963
0.00999966
0.00999968
0.0099997
0.00999972
0.00999973
0.00999975
0.00999976
0.00999978
0.00999979
0.00999981
0.00999982
0.00999983
0.00999984
0.00999985
0.00999986
0.00999987
0.00999988
0.00999988
0.00999989
0.0099999
0.0099999
0.00999991
0.00999992
0.00999992
0.00999993
0.00999993
0.00999993
0.00999994
0.00999994
0.00999995
0.00999995
0.00999995
0.00999996
0.00999996
0.00999996
0.00999996
0.00999997
0.00999997
0.00999997
0.00999997
0.00999997
0.00999998
0.00999998
0.00999998
0.00999998
0.00999998
0.00999998
0.00999998
0.00999998
0.00999999
0.00999999
0.00999999
0.00999999
0.00999999
0.00999999
0.00999999
0.00999999
0.00999999
0.00999999
0.00999999
0.00999999
0.00999999
0.00999999
0.00999999
0.00999999
0.01
0.01
0.01
0.01
0.01
0.01
0.01
0.01
0.01
0.01
0.01
0.01
0.01
0.01
0.01
0.01
0.01
0.01
0.01
0.01
0.01
0.01
0.01
0.01
0.01
0.01
0.01
0.01
0.01
0.01
0.01
0.01
0.01
0.01
0.01
0.01
0.01
0.01
0.01
0.01
0.01
0.01
0.01
0.01
0.01
0.01
0.01
0.01
0.01
0.01
0.01
0.01
0.01
0.01
0.01
0.01
0.01
0.01
0.01
0.01
0.01
0.01
0.01
0.01
0.01
0.01
0.01
0.01
0.01
0.01
0.01
0.01
0.01
0.01
0.01
0.01
0.01
0.01
0.01
0.01
0.01
0.01
0.01
0.01
0.01
0.01
0.01
0.01
0.01
0.01
0.01
0.01
0.01
0.01
0.01
0.01
0.01
0.01
0.01
0.01
0.01
0.01
0.01
0.01
0.01
0.01
0.01
0.01
0.01
0.01
0.01
0.01
0.01
0.01
0.01
0.01
0.01
0.01
0.01
0.01
0.01
0.01
0.01
0.01
0.01
0.01
0.01
0.01
0.01
0.01
0.01
0.01
0.01
0.01
0.01
0.01
0.01
0.01
0.01
0.01
0.01
0.01
0.01
0.01
0.01
0.01
0.01
0.01
0.01
0.01
0.01
0.01
)
;
    }
}


// ************************************************************************* //
