/*--------------------------------*- C++ -*----------------------------------*\
  =========                 |
  \\      /  F ield         | OpenFOAM: The Open Source CFD Toolbox
   \\    /   O peration     | Website:  https://openfoam.org
    \\  /    A nd           | Version:  10
     \\/     M anipulation  |
\*---------------------------------------------------------------------------*/
FoamFile
{
    format      ascii;
    class       volScalarField;
    location    "0.28";
    object      cov;
}
// * * * * * * * * * * * * * * * * * * * * * * * * * * * * * * * * * * * * * //

dimensions      [0 0 0 0 0 0 0];

internalField   uniform 0;

boundaryField
{
    frontAndBack
    {
        type            empty;
    }
    inlet
    {
        type            calculated;
        value           uniform 0;
    }
    outlet
    {
        type            calculated;
        value           uniform 0;
    }
    substrate
    {
        type            calculated;
        value           nonuniform List<scalar> 
400
(
0.734671
0.71242
0.691339
0.670887
0.65081
0.630981
0.611341
0.591866
0.572553
0.553411
0.53446
0.515722
0.497223
0.478988
0.461046
0.44342
0.426135
0.409212
0.392672
0.376532
0.360806
0.345507
0.330645
0.316227
0.302259
0.288745
0.275685
0.263079
0.250924
0.239217
0.227953
0.217125
0.206726
0.196747
0.18718
0.178013
0.169238
0.160844
0.152818
0.14515
0.137828
0.130841
0.124177
0.117823
0.111769
0.106003
0.100514
0.0952902
0.0903209
0.0855955
0.0811036
0.0768351
0.0727801
0.068929
0.0652727
0.0618021
0.0585087
0.0553841
0.0524205
0.04961
0.0469453
0.0444193
0.0420253
0.0397566
0.0376072
0.0355711
0.0336425
0.031816
0.0300865
0.028449
0.0268988
0.0254314
0.0240426
0.0227282
0.0214844
0.0203075
0.0191941
0.0181407
0.0171442
0.0162017
0.0153102
0.0144671
0.0136697
0.0129157
0.0122028
0.0115287
0.0108913
0.0102888
0.00971915
0.00918067
0.00867166
0.00819054
0.00773579
0.00730599
0.0068998
0.00651592
0.00615315
0.00581035
0.00548642
0.00518034
0.00489114
0.0046179
0.00435974
0.00411585
0.00388544
0.00366778
0.00346217
0.00326794
0.00308448
0.0029112
0.00274753
0.00259295
0.00244695
0.00230908
0.00217887
0.00205592
0.00193981
0.00183018
0.00172666
0.00162891
0.00153663
0.0014495
0.00136725
0.0012896
0.00121629
0.0011471
0.00108178
0.00102013
0.000961943
0.000907025
0.000855196
0.000806283
0.000760126
0.00071657
0.000675471
0.000636692
0.000600104
0.000565585
0.00053302
0.000502299
0.000473319
0.000445984
0.000420201
0.000395883
0.000372948
0.000351319
0.000330923
0.00031169
0.000293555
0.000276457
0.000260336
0.000245139
0.000230813
0.000217308
0.000204579
0.000192582
0.000181275
0.000170619
0.000160578
0.000151117
0.000142202
0.000133803
0.000125891
0.000118437
0.000111416
0.000104803
9.85743e-05
9.27087e-05
8.71851e-05
8.1984e-05
7.70869e-05
7.24763e-05
6.81359e-05
6.40501e-05
6.02042e-05
5.65845e-05
5.31779e-05
4.99721e-05
4.69556e-05
4.41173e-05
4.1447e-05
3.89349e-05
3.65719e-05
3.43492e-05
3.22587e-05
3.02928e-05
2.84441e-05
2.67058e-05
2.50715e-05
2.3535e-05
2.20907e-05
2.07331e-05
1.94571e-05
1.82579e-05
1.71311e-05
1.60723e-05
1.50775e-05
1.41429e-05
1.3265e-05
1.24405e-05
1.1666e-05
1.09387e-05
1.02558e-05
9.61456e-06
9.01254e-06
8.4474e-06
7.91691e-06
7.41901e-06
6.95174e-06
6.51326e-06
6.10182e-06
5.71581e-06
5.35368e-06
5.01399e-06
4.69539e-06
4.39658e-06
4.11638e-06
3.85364e-06
3.60731e-06
3.37637e-06
3.1599e-06
2.95701e-06
2.76686e-06
2.58867e-06
2.4217e-06
2.26528e-06
2.11873e-06
1.98146e-06
1.85289e-06
1.73248e-06
1.61973e-06
1.51416e-06
1.41532e-06
1.32279e-06
1.23618e-06
1.15512e-06
1.07927e-06
1.00828e-06
9.41867e-07
8.79733e-07
8.21611e-07
7.67246e-07
7.16403e-07
6.68857e-07
6.24399e-07
5.82834e-07
5.43977e-07
5.07656e-07
4.7371e-07
4.41985e-07
4.1234e-07
3.84642e-07
3.58766e-07
3.34593e-07
3.12016e-07
2.9093e-07
2.7124e-07
2.52854e-07
2.35689e-07
2.19666e-07
2.04709e-07
1.90749e-07
1.77722e-07
1.65566e-07
1.54225e-07
1.43645e-07
1.33775e-07
1.2457e-07
1.15986e-07
1.07981e-07
1.00517e-07
9.35588e-08
8.70725e-08
8.10269e-08
7.53926e-08
7.01422e-08
6.52501e-08
6.06924e-08
5.64468e-08
5.24922e-08
4.88091e-08
4.53793e-08
4.21858e-08
3.92126e-08
3.64448e-08
3.38685e-08
3.14707e-08
2.92394e-08
2.71632e-08
2.52315e-08
2.34345e-08
2.17631e-08
2.02085e-08
1.87628e-08
1.74185e-08
1.61687e-08
1.50068e-08
1.39268e-08
1.29231e-08
1.19903e-08
1.11235e-08
1.03182e-08
9.57013e-09
8.87524e-09
8.22984e-09
7.63048e-09
7.07395e-09
6.55724e-09
6.07757e-09
5.63232e-09
5.21908e-09
4.83559e-09
4.47975e-09
4.14961e-09
3.84335e-09
3.55927e-09
3.29579e-09
3.05146e-09
2.82491e-09
2.61486e-09
2.42015e-09
2.23967e-09
2.0724e-09
1.9174e-09
1.77377e-09
1.64071e-09
1.51745e-09
1.40328e-09
1.29754e-09
1.19963e-09
1.10897e-09
1.02504e-09
9.47346e-10
8.75436e-10
8.08887e-10
7.47306e-10
6.9033e-10
6.3762e-10
5.88863e-10
5.43769e-10
5.02067e-10
4.63506e-10
4.27856e-10
3.94899e-10
3.64437e-10
3.36284e-10
3.10268e-10
2.8623e-10
2.64023e-10
2.43509e-10
2.24562e-10
2.07065e-10
1.90909e-10
1.75993e-10
1.62223e-10
1.49514e-10
1.37785e-10
1.26962e-10
1.16977e-10
1.07766e-10
9.92699e-11
9.14352e-11
8.42113e-11
7.75517e-11
7.14134e-11
6.57567e-11
6.05448e-11
5.57438e-11
5.13223e-11
4.72514e-11
4.35042e-11
4.0056e-11
3.6884e-11
3.39673e-11
3.12863e-11
2.88233e-11
2.65617e-11
2.44863e-11
2.25832e-11
2.08395e-11
1.92435e-11
1.77843e-11
1.64519e-11
1.52374e-11
1.41324e-11
1.31293e-11
1.22213e-11
1.14021e-11
1.0666e-11
1.0008e-11
9.42356e-12
8.90855e-12
8.45942e-12
8.07306e-12
7.74677e-12
7.47828e-12
7.26571e-12
7.10756e-12
7.00274e-12
6.95051e-12
)
;
    }
    Wall
    {
        type            calculated;
        value           nonuniform List<scalar> 
400
(
0.734671
0.71242
0.691339
0.670888
0.65081
0.630981
0.611341
0.591866
0.572552
0.553411
0.53446
0.515722
0.497223
0.478989
0.461047
0.443421
0.426136
0.409214
0.392674
0.376534
0.360809
0.34551
0.330648
0.316231
0.302263
0.288749
0.275689
0.263083
0.250929
0.239222
0.227958
0.21713
0.206731
0.196752
0.187185
0.178019
0.169243
0.160849
0.152823
0.145155
0.137833
0.130846
0.124181
0.117828
0.111774
0.106008
0.100518
0.0952943
0.0903249
0.0855995
0.0811075
0.0768388
0.0727836
0.0689324
0.065276
0.0618053
0.0585117
0.0553871
0.0524233
0.0496127
0.0469479
0.0444218
0.0420276
0.0397589
0.0376094
0.0355731
0.0336444
0.0318179
0.0300883
0.0284507
0.0269004
0.0254329
0.024044
0.0227295
0.0214857
0.0203087
0.0191952
0.0181418
0.0171452
0.0162026
0.0153111
0.0144679
0.0136705
0.0129165
0.0122035
0.0115293
0.010892
0.0102894
0.0097197
0.00918119
0.00867215
0.00819099
0.00773622
0.00730639
0.00690017
0.00651627
0.00615348
0.00581065
0.00548671
0.00518061
0.00489139
0.00461813
0.00435996
0.00411605
0.00388563
0.00366796
0.00346233
0.00326809
0.00308462
0.00291133
0.00274765
0.00259306
0.00244706
0.00230918
0.00217897
0.002056
0.00193989
0.00183025
0.00172672
0.00162897
0.00153669
0.00144955
0.0013673
0.00128964
0.00121633
0.00114714
0.00108182
0.00102016
0.000961974
0.000907054
0.000855222
0.000806308
0.000760148
0.00071659
0.00067549
0.00063671
0.000600121
0.0005656
0.000533034
0.000502312
0.000473331
0.000445995
0.000420211
0.000395892
0.000372957
0.000351327
0.00033093
0.000311697
0.000293561
0.000276462
0.000260342
0.000245144
0.000230817
0.000217312
0.000204583
0.000192585
0.000181278
0.000170622
0.000160581
0.000151119
0.000142204
0.000133805
0.000125893
0.000118439
0.000111418
0.000104804
9.85758e-05
9.271e-05
8.71864e-05
8.19851e-05
7.70879e-05
7.24773e-05
6.81368e-05
6.40509e-05
6.0205e-05
5.65852e-05
5.31786e-05
4.99728e-05
4.69562e-05
4.41179e-05
4.14475e-05
3.89354e-05
3.65723e-05
3.43496e-05
3.22591e-05
3.02932e-05
2.84444e-05
2.67061e-05
2.50718e-05
2.35353e-05
2.20909e-05
2.07333e-05
1.94573e-05
1.82582e-05
1.71313e-05
1.60725e-05
1.50777e-05
1.41431e-05
1.32652e-05
1.24406e-05
1.16662e-05
1.09389e-05
1.02559e-05
9.61468e-06
9.01266e-06
8.44751e-06
7.91702e-06
7.41911e-06
6.95184e-06
6.51335e-06
6.10191e-06
5.71589e-06
5.35376e-06
5.01406e-06
4.69545e-06
4.39665e-06
4.11644e-06
3.8537e-06
3.60736e-06
3.37643e-06
3.15995e-06
2.95706e-06
2.7669e-06
2.58871e-06
2.42174e-06
2.26531e-06
2.11877e-06
1.98149e-06
1.85292e-06
1.73251e-06
1.61976e-06
1.51419e-06
1.41535e-06
1.32282e-06
1.23621e-06
1.15515e-06
1.07929e-06
1.0083e-06
9.41885e-07
8.79751e-07
8.21627e-07
7.67262e-07
7.16417e-07
6.6887e-07
6.24412e-07
5.82846e-07
5.43989e-07
5.07667e-07
4.7372e-07
4.41995e-07
4.12349e-07
3.84651e-07
3.58774e-07
3.34601e-07
3.12023e-07
2.90937e-07
2.71246e-07
2.52861e-07
2.35695e-07
2.19671e-07
2.04714e-07
1.90754e-07
1.77727e-07
1.65571e-07
1.54229e-07
1.43648e-07
1.33779e-07
1.24574e-07
1.15989e-07
1.07984e-07
1.0052e-07
9.35615e-08
8.7075e-08
8.10293e-08
7.53948e-08
7.01443e-08
6.52521e-08
6.06943e-08
5.64485e-08
5.24938e-08
4.88106e-08
4.53808e-08
4.21872e-08
3.92139e-08
3.6446e-08
3.38696e-08
3.14718e-08
2.92404e-08
2.71641e-08
2.52324e-08
2.34354e-08
2.17638e-08
2.02092e-08
1.87634e-08
1.74191e-08
1.61693e-08
1.50074e-08
1.39274e-08
1.29236e-08
1.19907e-08
1.1124e-08
1.03186e-08
9.5705e-09
8.87558e-09
8.23016e-09
7.63078e-09
7.07423e-09
6.55751e-09
6.07781e-09
5.63255e-09
5.2193e-09
4.83579e-09
4.47994e-09
4.14979e-09
3.84351e-09
3.55942e-09
3.29594e-09
3.05159e-09
2.82503e-09
2.61498e-09
2.42026e-09
2.23977e-09
2.0725e-09
1.91748e-09
1.77385e-09
1.64079e-09
1.51752e-09
1.40334e-09
1.2976e-09
1.19969e-09
1.10902e-09
1.02509e-09
9.47393e-10
8.7548e-10
8.08928e-10
7.47344e-10
6.90365e-10
6.37653e-10
5.88894e-10
5.43797e-10
5.02093e-10
4.63531e-10
4.27879e-10
3.9492e-10
3.64457e-10
3.36302e-10
3.10285e-10
2.86246e-10
2.64037e-10
2.43523e-10
2.24575e-10
2.07077e-10
1.9092e-10
1.76003e-10
1.62233e-10
1.49523e-10
1.37793e-10
1.2697e-10
1.16984e-10
1.07772e-10
9.9276e-11
9.14408e-11
8.42165e-11
7.75565e-11
7.14179e-11
6.57609e-11
6.05487e-11
5.57474e-11
5.13256e-11
4.72544e-11
4.3507e-11
4.00586e-11
3.68865e-11
3.39696e-11
3.12884e-11
2.88252e-11
2.65635e-11
2.44879e-11
2.25847e-11
2.08409e-11
1.92448e-11
1.77855e-11
1.64531e-11
1.52385e-11
1.41334e-11
1.31302e-11
1.22222e-11
1.14029e-11
1.06668e-11
1.00087e-11
9.4242e-12
8.90915e-12
8.46e-12
8.07362e-12
7.74731e-12
7.47882e-12
7.26623e-12
7.10806e-12
7.00313e-12
6.95081e-12
)
;
    }
}


// ************************************************************************* //
