/*--------------------------------*- C++ -*----------------------------------*\
  =========                 |
  \\      /  F ield         | OpenFOAM: The Open Source CFD Toolbox
   \\    /   O peration     | Website:  https://openfoam.org
    \\  /    A nd           | Version:  10
     \\/     M anipulation  |
\*---------------------------------------------------------------------------*/
FoamFile
{
    format      ascii;
    class       volScalarField;
    location    "0.28";
    object      Exp1;
}
// * * * * * * * * * * * * * * * * * * * * * * * * * * * * * * * * * * * * * //

dimensions      [0 0 0 0 0 0 0];

internalField   uniform 0;

boundaryField
{
    frontAndBack
    {
        type            empty;
    }
    inlet
    {
        type            calculated;
        value           uniform 0;
    }
    outlet
    {
        type            calculated;
        value           uniform 0;
    }
    substrate
    {
        type            calculated;
        value           nonuniform List<scalar> 
400
(
1.84927e-06
5.53729e-06
9.20036e-06
1.2827e-05
1.64072e-05
1.9932e-05
2.33933e-05
2.67841e-05
3.0098e-05
3.33295e-05
3.64738e-05
3.95265e-05
4.24844e-05
4.53443e-05
4.81039e-05
5.07614e-05
5.33154e-05
5.57649e-05
5.81094e-05
6.03488e-05
6.24832e-05
6.45131e-05
6.64392e-05
6.82625e-05
6.99841e-05
7.16054e-05
7.31278e-05
7.45532e-05
7.58831e-05
7.71194e-05
7.8264e-05
7.9319e-05
8.02864e-05
8.11682e-05
8.19665e-05
8.26835e-05
8.33213e-05
8.38821e-05
8.43679e-05
8.47809e-05
8.51232e-05
8.53969e-05
8.56042e-05
8.5747e-05
8.58274e-05
8.58475e-05
8.58093e-05
8.57146e-05
8.55656e-05
8.5364e-05
8.51118e-05
8.48108e-05
8.44629e-05
8.40699e-05
8.36336e-05
8.31557e-05
8.26379e-05
8.2082e-05
8.14895e-05
8.08623e-05
8.02017e-05
7.95096e-05
7.87873e-05
7.80365e-05
7.72587e-05
7.64553e-05
7.56277e-05
7.47775e-05
7.39059e-05
7.30145e-05
7.21044e-05
7.11771e-05
7.02339e-05
6.92759e-05
6.83044e-05
6.73206e-05
6.63258e-05
6.5321e-05
6.43075e-05
6.32862e-05
6.22582e-05
6.12247e-05
6.01866e-05
5.91449e-05
5.81005e-05
5.70544e-05
5.60075e-05
5.49606e-05
5.39147e-05
5.28705e-05
5.18288e-05
5.07903e-05
4.97558e-05
4.87261e-05
4.77017e-05
4.66834e-05
4.56717e-05
4.46672e-05
4.36706e-05
4.26823e-05
4.17028e-05
4.07327e-05
3.97724e-05
3.88224e-05
3.7883e-05
3.69546e-05
3.60376e-05
3.51324e-05
3.42392e-05
3.33583e-05
3.24901e-05
3.16346e-05
3.07923e-05
2.99632e-05
2.91475e-05
2.83454e-05
2.75571e-05
2.67826e-05
2.60221e-05
2.52757e-05
2.45433e-05
2.38251e-05
2.3121e-05
2.24312e-05
2.17556e-05
2.10941e-05
2.04469e-05
1.98137e-05
1.91946e-05
1.85895e-05
1.79983e-05
1.74209e-05
1.68573e-05
1.63072e-05
1.57707e-05
1.52475e-05
1.47375e-05
1.42406e-05
1.37567e-05
1.32855e-05
1.28269e-05
1.23807e-05
1.19468e-05
1.15249e-05
1.11149e-05
1.07165e-05
1.03297e-05
9.95413e-06
9.58966e-06
9.23606e-06
8.89313e-06
8.56067e-06
8.23846e-06
7.92629e-06
7.62395e-06
7.33123e-06
7.04792e-06
6.7738e-06
6.50866e-06
6.25229e-06
6.00448e-06
5.76503e-06
5.53372e-06
5.31034e-06
5.0947e-06
4.88659e-06
4.68581e-06
4.49216e-06
4.30544e-06
4.12547e-06
3.95204e-06
3.78498e-06
3.6241e-06
3.46922e-06
3.32015e-06
3.17671e-06
3.03875e-06
2.90608e-06
2.77855e-06
2.65598e-06
2.53822e-06
2.42511e-06
2.3165e-06
2.21224e-06
2.11218e-06
2.01618e-06
1.9241e-06
1.8358e-06
1.75116e-06
1.67004e-06
1.59232e-06
1.51788e-06
1.44659e-06
1.37834e-06
1.31302e-06
1.25051e-06
1.19072e-06
1.13355e-06
1.07888e-06
1.02662e-06
9.76686e-07
9.28979e-07
8.83412e-07
8.39902e-07
7.98364e-07
7.5872e-07
7.20893e-07
6.84808e-07
6.50394e-07
6.17581e-07
5.86301e-07
5.56491e-07
5.28089e-07
5.01034e-07
4.75268e-07
4.50736e-07
4.27384e-07
4.05161e-07
3.84016e-07
3.63903e-07
3.44775e-07
3.26588e-07
3.09299e-07
2.92869e-07
2.77257e-07
2.62427e-07
2.48342e-07
2.34968e-07
2.22272e-07
2.10222e-07
1.98787e-07
1.87939e-07
1.7765e-07
1.67892e-07
1.58641e-07
1.49872e-07
1.41561e-07
1.33687e-07
1.26227e-07
1.19162e-07
1.12473e-07
1.06139e-07
1.00144e-07
9.44708e-08
8.9103e-08
8.40253e-08
7.92229e-08
7.46818e-08
7.03886e-08
6.63307e-08
6.24957e-08
5.88723e-08
5.54493e-08
5.22164e-08
4.91635e-08
4.62812e-08
4.35605e-08
4.09927e-08
3.85698e-08
3.6284e-08
3.41279e-08
3.20946e-08
3.01774e-08
2.837e-08
2.66664e-08
2.5061e-08
2.35484e-08
2.21234e-08
2.07813e-08
1.95174e-08
1.83274e-08
1.72072e-08
1.61529e-08
1.51607e-08
1.42272e-08
1.3349e-08
1.2523e-08
1.17463e-08
1.1016e-08
1.03295e-08
9.68426e-09
9.07788e-09
8.50814e-09
7.97292e-09
7.47019e-09
6.99808e-09
6.5548e-09
6.13864e-09
5.74801e-09
5.38142e-09
5.03743e-09
4.71471e-09
4.41199e-09
4.12808e-09
3.86185e-09
3.61224e-09
3.37825e-09
3.15894e-09
2.95343e-09
2.76087e-09
2.58047e-09
2.4115e-09
2.25326e-09
2.10509e-09
1.96636e-09
1.83651e-09
1.71497e-09
1.60124e-09
1.49483e-09
1.39529e-09
1.30218e-09
1.21511e-09
1.13369e-09
1.05757e-09
9.86413e-10
9.19912e-10
8.57768e-10
7.99705e-10
7.45463e-10
6.94799e-10
6.47483e-10
6.03302e-10
5.62053e-10
5.23548e-10
4.87611e-10
4.54074e-10
4.22782e-10
3.9359e-10
3.6636e-10
3.40965e-10
3.17284e-10
2.95205e-10
2.74623e-10
2.55439e-10
2.37561e-10
2.20903e-10
2.05383e-10
1.90926e-10
1.77461e-10
1.64922e-10
1.53247e-10
1.42379e-10
1.32262e-10
1.22847e-10
1.14086e-10
1.05934e-10
9.83515e-11
9.12988e-11
8.47401e-11
7.86416e-11
7.2972e-11
6.7702e-11
6.28041e-11
5.82528e-11
5.40243e-11
5.00962e-11
4.64479e-11
4.306e-11
3.99145e-11
3.69946e-11
3.42845e-11
3.17696e-11
2.94364e-11
2.72722e-11
2.52652e-11
2.34043e-11
2.16794e-11
2.00809e-11
1.86e-11
1.72284e-11
1.59585e-11
1.47832e-11
1.36958e-11
1.26903e-11
1.17609e-11
1.09023e-11
1.01096e-11
9.37835e-12
8.70429e-12
8.08355e-12
7.51254e-12
6.98794e-12
6.5067e-12
6.06601e-12
5.66329e-12
5.29619e-12
4.96253e-12
4.66035e-12
4.38787e-12
4.14346e-12
3.92568e-12
3.73323e-12
3.56496e-12
3.41987e-12
3.29708e-12
3.19587e-12
3.11562e-12
3.05586e-12
3.01621e-12
2.99644e-12
)
;
    }
    Wall
    {
        type            calculated;
        value           nonuniform List<scalar> 
400
(
1.84928e-06
5.53734e-06
9.20048e-06
1.28272e-05
1.64074e-05
1.99322e-05
2.33935e-05
2.67843e-05
3.00981e-05
3.33296e-05
3.64738e-05
3.95265e-05
4.24842e-05
4.5344e-05
4.81036e-05
5.0761e-05
5.33149e-05
5.57643e-05
5.81087e-05
6.0348e-05
6.24823e-05
6.45121e-05
6.64382e-05
6.82613e-05
6.99829e-05
7.16041e-05
7.31265e-05
7.45517e-05
7.58816e-05
7.71178e-05
7.82624e-05
7.93173e-05
8.02846e-05
8.11664e-05
8.19646e-05
8.26816e-05
8.33193e-05
8.388e-05
8.43658e-05
8.47787e-05
8.5121e-05
8.53947e-05
8.56019e-05
8.57447e-05
8.58252e-05
8.58452e-05
8.5807e-05
8.57123e-05
8.55632e-05
8.53616e-05
8.51094e-05
8.48084e-05
8.44605e-05
8.40675e-05
8.36312e-05
8.31532e-05
8.26355e-05
8.20795e-05
8.14871e-05
8.08598e-05
8.01993e-05
7.95072e-05
7.87849e-05
7.80341e-05
7.72563e-05
7.64529e-05
7.56254e-05
7.47751e-05
7.39036e-05
7.30122e-05
7.21022e-05
7.11749e-05
7.02316e-05
6.92736e-05
6.83022e-05
6.73185e-05
6.63237e-05
6.53189e-05
6.43054e-05
6.32841e-05
6.22562e-05
6.12227e-05
6.01846e-05
5.91429e-05
5.80986e-05
5.70525e-05
5.60056e-05
5.49588e-05
5.39129e-05
5.28687e-05
5.1827e-05
5.07886e-05
4.97542e-05
4.87245e-05
4.77002e-05
4.66818e-05
4.56702e-05
4.46658e-05
4.36691e-05
4.26809e-05
4.17014e-05
4.07314e-05
3.97711e-05
3.88211e-05
3.78817e-05
3.69534e-05
3.60365e-05
3.51313e-05
3.42381e-05
3.33573e-05
3.2489e-05
3.16336e-05
3.07913e-05
2.99622e-05
2.91466e-05
2.83445e-05
2.75562e-05
2.67818e-05
2.60213e-05
2.52749e-05
2.45425e-05
2.38243e-05
2.31203e-05
2.24305e-05
2.17549e-05
2.10935e-05
2.04462e-05
1.98131e-05
1.9194e-05
1.85889e-05
1.79977e-05
1.74204e-05
1.68567e-05
1.63067e-05
1.57702e-05
1.5247e-05
1.47371e-05
1.42402e-05
1.37563e-05
1.32851e-05
1.28265e-05
1.23803e-05
1.19464e-05
1.15245e-05
1.11145e-05
1.07162e-05
1.03294e-05
9.95385e-06
9.58939e-06
9.2358e-06
8.89289e-06
8.56043e-06
8.23823e-06
7.92608e-06
7.62375e-06
7.33104e-06
7.04773e-06
6.77362e-06
6.50849e-06
6.25213e-06
6.00433e-06
5.76488e-06
5.53358e-06
5.31021e-06
5.09457e-06
4.88647e-06
4.68569e-06
4.49205e-06
4.30534e-06
4.12537e-06
3.95195e-06
3.7849e-06
3.62402e-06
3.46914e-06
3.32007e-06
3.17664e-06
3.03868e-06
2.90602e-06
2.77849e-06
2.65592e-06
2.53817e-06
2.42506e-06
2.31645e-06
2.21219e-06
2.11213e-06
2.01614e-06
1.92406e-06
1.83577e-06
1.75113e-06
1.67001e-06
1.59229e-06
1.51785e-06
1.44656e-06
1.37831e-06
1.31299e-06
1.25049e-06
1.1907e-06
1.13353e-06
1.07886e-06
1.0266e-06
9.7667e-07
9.28964e-07
8.83399e-07
8.39889e-07
7.98352e-07
7.58709e-07
7.20883e-07
6.84799e-07
6.50385e-07
6.17572e-07
5.86294e-07
5.56484e-07
5.28082e-07
5.01028e-07
4.75262e-07
4.50731e-07
4.27379e-07
4.05156e-07
3.84012e-07
3.63899e-07
3.44771e-07
3.26585e-07
3.09296e-07
2.92866e-07
2.77255e-07
2.62425e-07
2.4834e-07
2.34966e-07
2.2227e-07
2.1022e-07
1.98786e-07
1.87938e-07
1.77649e-07
1.67891e-07
1.5864e-07
1.49871e-07
1.4156e-07
1.33686e-07
1.26227e-07
1.19162e-07
1.12472e-07
1.06139e-07
1.00144e-07
9.44706e-08
8.91028e-08
8.40251e-08
7.92228e-08
7.46817e-08
7.03886e-08
6.63306e-08
6.24957e-08
5.88723e-08
5.54494e-08
5.22165e-08
4.91636e-08
4.62813e-08
4.35606e-08
4.09928e-08
3.85699e-08
3.62841e-08
3.4128e-08
3.20947e-08
3.01775e-08
2.83701e-08
2.66665e-08
2.50611e-08
2.35485e-08
2.21235e-08
2.07814e-08
1.95175e-08
1.83275e-08
1.72073e-08
1.6153e-08
1.51608e-08
1.42273e-08
1.33491e-08
1.25231e-08
1.17464e-08
1.10161e-08
1.03296e-08
9.68436e-09
9.07798e-09
8.50823e-09
7.973e-09
7.47028e-09
6.99817e-09
6.55487e-09
6.13871e-09
5.74809e-09
5.38149e-09
5.0375e-09
4.71478e-09
4.41205e-09
4.12814e-09
3.86191e-09
3.61229e-09
3.37831e-09
3.159e-09
2.95348e-09
2.76091e-09
2.58052e-09
2.41154e-09
2.2533e-09
2.10512e-09
1.9664e-09
1.83654e-09
1.71501e-09
1.60127e-09
1.49486e-09
1.39532e-09
1.30221e-09
1.21513e-09
1.13371e-09
1.05759e-09
9.86435e-10
9.19932e-10
8.57787e-10
7.99723e-10
7.45481e-10
6.94815e-10
6.47499e-10
6.03317e-10
5.62067e-10
5.23562e-10
4.87623e-10
4.54086e-10
4.22793e-10
3.93601e-10
3.6637e-10
3.40974e-10
3.17293e-10
2.95214e-10
2.74631e-10
2.55447e-10
2.37568e-10
2.20909e-10
2.05389e-10
1.90932e-10
1.77466e-10
1.64927e-10
1.53252e-10
1.42383e-10
1.32266e-10
1.22851e-10
1.14089e-10
1.05938e-10
9.8355e-11
9.1302e-11
8.47431e-11
7.86445e-11
7.29747e-11
6.77045e-11
6.28064e-11
5.8255e-11
5.40263e-11
5.00981e-11
4.64497e-11
4.30617e-11
3.99161e-11
3.6996e-11
3.42858e-11
3.17709e-11
2.94377e-11
2.72734e-11
2.52662e-11
2.34053e-11
2.16803e-11
2.00818e-11
1.86008e-11
1.72292e-11
1.59592e-11
1.47839e-11
1.36965e-11
1.26909e-11
1.17614e-11
1.09028e-11
1.01101e-11
9.37879e-12
8.70471e-12
8.08394e-12
7.5129e-12
6.98828e-12
6.50701e-12
6.0663e-12
5.66357e-12
5.29644e-12
4.96277e-12
4.66058e-12
4.38808e-12
4.14366e-12
3.92587e-12
3.73341e-12
3.56514e-12
3.42004e-12
3.29725e-12
3.19604e-12
3.11579e-12
3.05601e-12
3.01633e-12
2.99653e-12
)
;
    }
}


// ************************************************************************* //
