/*--------------------------------*- C++ -*----------------------------------*\
  =========                 |
  \\      /  F ield         | OpenFOAM: The Open Source CFD Toolbox
   \\    /   O peration     | Website:  https://openfoam.org
    \\  /    A nd           | Version:  10
     \\/     M anipulation  |
\*---------------------------------------------------------------------------*/
FoamFile
{
    format      ascii;
    class       surfaceScalarField;
    location    "4.5";
    object      phi;
}
// * * * * * * * * * * * * * * * * * * * * * * * * * * * * * * * * * * * * * //

dimensions      [1 0 -1 0 0 0 0];

internalField   nonuniform List<scalar> 
10325
(
0.00840003
3.2841e-11
0.00840001
7.19409e-10
0.00840006
1.08262e-09
0.00839993
7.20476e-09
0.00840025
8.56807e-09
0.00839922
4.91234e-08
0.00840181
5.75891e-08
0.00839495
3.31797e-07
0.00840979
3.46594e-07
0.00837939
1.9462e-06
0.008419
2.45008e-06
0.00836208
1.0899e-05
0.00837068
2.89864e-05
0.00823727
0.00011282
0.00767088
0.000569955
0.00700568
0.000665623
0.0063758
0.000630104
0.00572606
0.000649807
0.00504477
0.00068149
0.00432252
0.000722259
0.00355124
0.000771203
0.00273066
0.000820695
0.00186541
0.000864516
0.000956516
0.00090891
0.000956551
0.00840003
1.57136e-10
0.00840002
1.2705e-09
0.00840008
3.22522e-09
0.00839992
1.16358e-08
0.00840026
2.56206e-08
0.00839946
6.91427e-08
0.00840082
1.90038e-07
0.00839777
3.80725e-07
0.00840207
1.29637e-06
0.00839188
2.26259e-06
0.00840297
7.83883e-06
0.0083727
1.84479e-05
0.00835963
6.24435e-05
0.0082384
0.000223996
0.00768257
0.00112672
0.00700236
0.00134645
0.0063804
0.00125217
0.00574009
0.00129018
0.00506329
0.0013585
0.00433359
0.00145196
0.00355311
0.00155161
0.00272384
0.00165008
0.00184684
0.00174079
0.000931331
0.00182443
0.00188791
0.00840002
3.51275e-10
0.00840005
1.07889e-09
0.00839997
6.78112e-09
0.00840017
1.14287e-08
0.00839971
4.80358e-08
0.00840075
8.62217e-08
0.00839836
2.83632e-07
0.00840316
5.77682e-07
0.00839233
1.64918e-06
0.00841013
3.90476e-06
0.00837684
1.0342e-05
0.00840482
2.87696e-05
0.00834385
9.02317e-05
0.00825726
0.00032716
0.00776012
0.00161984
0.00706816
0.00203805
0.00644375
0.00187668
0.00580767
0.00192634
0.00513496
0.00203136
0.00440376
0.00218328
0.00361616
0.00233906
0.00277686
0.00248949
0.00188364
0.00263327
0.000948185
0.00275994
0.00283613
0.00840003
1.87694e-10
0.00840001
2.52593e-09
0.00840007
5.03573e-09
0.00839993
2.45984e-08
0.00840026
3.83219e-08
0.00839929
1.57197e-07
0.00840169
2.56343e-07
0.00839556
9.42031e-07
0.00840886
1.71127e-06
0.00838181
5.55653e-06
0.00841804
1.22979e-05
0.00836672
3.73806e-05
0.00837977
0.00011219
0.00828106
0.000406963
0.00791655
0.00198766
0.00721926
0.0027357
0.00658111
0.00251514
0.00594255
0.00256496
0.00527066
0.00270345
0.00453851
0.00291524
0.00374564
0.00313201
0.00289155
0.00334359
0.00197548
0.00354877
0.00100122
0.00373427
0.00383743
0.00840003
3.82444e-10
0.00840004
2.06147e-09
0.00839999
7.92438e-09
0.00840012
2.0111e-08
0.00839974
5.9108e-08
0.00840075
1.34182e-07
0.00839807
3.79458e-07
0.00840469
8.36347e-07
0.00838988
2.37841e-06
0.00841794
5.39683e-06
0.00837143
1.5226e-05
0.00841968
4.01918e-05
0.00836171
0.000126682
0.00834407
0.000446954
0.008192
0.00213417
0.007489
0.00343858
0.00681169
0.00319247
0.0061575
0.0032192
0.00548189
0.0033793
0.00474699
0.00365021
0.00394552
0.0039332
0.00307369
0.00421586
0.00211976
0.00450175
0.00108691
0.004767
0.00492426
0.00840003
4.13015e-10
0.00840005
1.88082e-09
0.00839997
8.59534e-09
0.00840017
1.83038e-08
0.00839972
6.25387e-08
0.00840081
1.29723e-07
0.00839839
3.82923e-07
0.00840417
8.5441e-07
0.00839193
2.28133e-06
0.00841509
5.58792e-06
0.00837968
1.44756e-05
0.00842445
3.9592e-05
0.00839066
0.000120389
0.00844163
0.000417342
0.00867827
0.00189276
0.00796139
0.00415494
0.00717981
0.00397408
0.00648799
0.00391112
0.00579325
0.00407402
0.00505402
0.00438965
0.00423645
0.00475072
0.00333458
0.00511769
0.00233627
0.00549919
0.00121974
0.00588383
0.00614414
0.00840003
2.6371e-10
0.00840001
2.26547e-09
0.00840008
6.27182e-09
0.00839992
2.22247e-08
0.00840034
4.68194e-08
0.00839933
1.46548e-07
0.00840192
2.88554e-07
0.00839634
9.07748e-07
0.00840979
1.80418e-06
0.00838431
5.41861e-06
0.00842873
1.22473e-05
0.00837971
3.50524e-05
0.00844772
0.000100528
0.00849855
0.00033969
0.00893257
0.00146568
0.0083912
0.00469515
0.0075487
0.00481678
0.00684797
0.00461187
0.00616937
0.00475284
0.00543305
0.0051257
0.00461049
0.0055733
0.00368711
0.00604122
0.00263789
0.00654825
0.00142272
0.00709851
0.0075668
0.00840003
3.75564e-10
0.00840002
1.79654e-09
0.00840006
7.39739e-09
0.00839997
1.74768e-08
0.00840013
5.56357e-08
0.00839988
1.11254e-07
0.00840006
3.63804e-07
0.00840005
6.54562e-07
0.00839946
2.23602e-06
0.00840022
4.14514e-06
0.00840265
1.31549e-05
0.00839819
3.07379e-05
0.00841586
9.47544e-05
0.0084417
0.000308184
0.00860507
0.00130171
0.00830778
0.00499249
0.00764099
0.00548339
0.0070961
0.00515675
0.00648057
0.00536859
0.00581039
0.00579588
0.00502434
0.00635923
0.0041145
0.00695112
0.0030461
0.00761616
0.00173806
0.00840621
0.00930478
0.00840003
2.35276e-10
0.00840003
2.2746e-09
0.00840003
5.76747e-09
0.00840002
2.2121e-08
0.00840005
4.28863e-08
0.00839987
1.4324e-07
0.00840042
2.72138e-07
0.0083985
8.69153e-07
0.00840327
1.7069e-06
0.00839291
5.20465e-06
0.0084098
1.13871e-05
0.00839096
3.28849e-05
0.00840769
9.08579e-05
0.00840562
0.000301857
0.00849836
0.00121323
0.00819541
0.00529413
0.00791298
0.00576585
0.00732912
0.00574064
0.00673272
0.00596508
0.00615159
0.00637726
0.00546277
0.00704762
0.00463979
0.00777441
0.00364485
0.0086105
0.00225972
0.00979112
0.0115645
0.00840003
3.69828e-10
0.00840004
1.73442e-09
0.0084
7.62457e-09
0.00840009
1.70083e-08
0.00839984
5.62779e-08
0.00840053
1.18173e-07
0.00839879
3.41402e-07
0.00840322
7.64937e-07
0.00839325
2.01488e-06
0.00841463
4.87152e-06
0.00837644
1.242e-05
0.00842805
3.25667e-05
0.00837229
9.28787e-05
0.00841503
0.000299917
0.00844908
0.00115844
0.00830463
0.00544256
0.00789486
0.00617595
0.0074693
0.00616618
0.00702264
0.00641168
0.0065184
0.00688173
0.00597479
0.00759127
0.00533665
0.00841282
0.00444572
0.00950149
0.00313737
0.011099
0.0147018
0.00840003
3.23018e-10
0.00840002
2.11461e-09
0.00840007
6.82626e-09
0.00839995
2.07272e-08
0.00840024
5.0556e-08
0.00839959
1.35662e-07
0.00840108
3.29897e-07
0.00839782
8.1151e-07
0.00840507
2.10508e-06
0.00839005
4.8842e-06
0.00841566
1.3279e-05
0.00837717
3.28035e-05
0.00841784
9.51204e-05
0.0083838
0.000299491
0.00844204
0.00111729
0.00849815
0.00538231
0.00807491
0.00659886
0.00765015
0.00659088
0.00730823
0.00675388
0.00693524
0.00725483
0.00657116
0.00795529
0.00614115
0.00884258
0.00572793
0.00991438
0.00569475
0.011132
0.0115064
0.00889017
0.00840003
2.90706e-10
0.00840004
2.17734e-09
0.00840001
6.64379e-09
0.00840008
2.11576e-08
0.00839992
4.96568e-08
0.00840031
1.40013e-07
0.0083995
3.12784e-07
0.00840103
8.78031e-07
0.00839801
1.91983e-06
0.00840313
5.4426e-06
0.00839363
1.23258e-05
0.00840902
3.45946e-05
0.0083885
9.21751e-05
0.00841644
0.000292616
0.00847381
0.00105015
0.00890929
0.00494788
0.00845122
0.00705715
0.00797552
0.00706677
0.00762536
0.00710354
0.00733983
0.00754058
0.00708183
0.0082135
0.00688425
0.00904048
0.00685022
0.00994862
0.00729648
0.010685
0.0104792
0.00832387
0.00840003
3.35462e-10
0.00840003
1.76789e-09
0.00840002
6.92928e-09
0.00840005
1.73308e-08
0.00839996
5.15047e-08
0.00840023
1.14977e-07
0.00839948
3.29198e-07
0.0084017
7.10003e-07
0.00839633
2.04218e-06
0.0084102
4.45998e-06
0.0083838
1.26544e-05
0.00843074
3.00675e-05
0.00838541
8.62687e-05
0.00846659
0.000256426
0.00859094
0.000899553
0.00965303
0.00389205
0.00907601
0.00763424
0.00847484
0.00766779
0.00808229
0.00749671
0.0078147
0.00780783
0.00763942
0.0083888
0.00760829
0.00907137
0.00783518
0.00972167
0.00838088
0.0101396
0.0098514
0.00900834
0.00840003
2.50928e-10
0.00840003
1.55059e-09
0.00840002
5.55314e-09
0.00840006
1.51203e-08
0.00839999
4.09774e-08
0.00840016
1.02404e-07
0.00839998
2.52012e-07
0.0084002
6.45916e-07
0.00840077
1.49693e-06
0.00840036
3.98909e-06
0.00840482
9.16199e-06
0.00841093
2.47675e-05
0.00842889
6.26948e-05
0.00850974
0.000184712
0.00880274
0.000602324
0.0102462
0.00244762
0.00976189
0.0081192
0.00930037
0.00812908
0.00869306
0.00810363
0.00837137
0.00813015
0.00824392
0.00851599
0.00829005
0.00902426
0.00854659
0.00946632
0.00902061
0.00966499
0.00935005
0.00952234
0.00840003
1.9632e-10
0.00840003
1.45107e-09
0.00840005
4.38776e-09
0.0084
1.41114e-08
0.00840013
3.28913e-08
0.00839984
9.11719e-08
0.00840063
2.09634e-07
0.00839906
5.48005e-07
0.00840328
1.30284e-06
0.00839526
3.24737e-06
0.00841421
8.09575e-06
0.00838829
2.00372e-05
0.00844076
5.28541e-05
0.00842978
0.00014809
0.00859474
0.000475593
0.00918595
0.00183572
0.00989929
0.00741075
0.00957194
0.00845668
0.00915214
0.00852288
0.00887549
0.00840776
0.00877959
0.00861112
0.00885133
0.00895321
0.00908631
0.00923029
0.00947184
0.00928066
0.00894247
0.00987884
0.00840003
1.92284e-10
0.00840003
1.17556e-09
0.00840002
4.15984e-09
0.00840006
1.15264e-08
0.00839997
3.05957e-08
0.00840023
7.71206e-08
0.00839967
1.8975e-07
0.00840116
4.805e-07
0.00839816
1.14095e-06
0.00840591
2.96619e-06
0.00839156
6.94903e-06
0.00842093
1.84317e-05
0.0083879
4.57749e-05
0.00845127
0.000129765
0.00848813
0.000401375
0.00887464
0.00146794
0.00987991
0.00640139
0.00975224
0.008584
0.00952487
0.00875071
0.00929167
0.0086403
0.00921851
0.00868473
0.00930041
0.00887008
0.0095078
0.00902478
0.00981141
0.0089755
0.00862755
0.0101284
0.00840003
1.79309e-10
0.00840003
9.67466e-10
0.00840003
3.71823e-09
0.00840003
9.46913e-09
0.00840004
2.76182e-08
0.00840005
6.27939e-08
0.00839999
1.75593e-07
0.00840039
3.86031e-07
0.00839919
1.0808e-06
0.00840333
2.37279e-06
0.00839494
6.63775e-06
0.00841517
1.5103e-05
0.00839424
4.19266e-05
0.00844252
0.000109059
0.00848245
0.000336953
0.00879726
0.00116863
0.0103658
0.00482785
0.010205
0.00874482
0.00996156
0.00899421
0.00969206
0.00890957
0.00961635
0.00876125
0.0096804
0.00880571
0.0098477
0.0088571
0.010081
0.00874231
0.00839195
0.0103172
0.00840003
1.1452e-10
0.00840003
8.64004e-10
0.00840003
2.61858e-09
0.00840003
8.4143e-09
0.00840004
1.94957e-08
0.00840003
5.49666e-08
0.00840016
1.22499e-07
0.00839988
3.34713e-07
0.00840122
7.49427e-07
0.00839864
1.99645e-06
0.00840829
4.58856e-06
0.0083951
1.20254e-05
0.00843492
2.90406e-05
0.00843377
7.80833e-05
0.00857911
0.000219853
0.00901418
0.000715834
0.011074
0.00277495
0.0109098
0.00890651
0.0106607
0.00924337
0.0103009
0.00926945
0.0100763
0.00898481
0.0100541
0.00882928
0.0101576
0.00875268
0.0103181
0.00858267
0.00822645
0.0104825
0.00840003
1.11869e-10
0.00840003
5.9584e-10
0.00840003
2.34507e-09
0.00840004
5.8353e-09
0.00840001
1.72235e-08
0.00840013
3.91462e-08
0.00839989
1.06339e-07
0.00840063
2.42855e-07
0.00839926
6.32743e-07
0.00840337
1.4959e-06
0.00839636
3.7545e-06
0.00841561
9.25465e-06
0.00839232
2.29854e-05
0.00845369
5.97384e-05
0.00845778
0.000164852
0.00869965
0.000517381
0.00951735
0.00193288
0.0109669
0.00746365
0.010908
0.00930257
0.010698
0.00947946
0.0104631
0.00921979
0.0103918
0.00890036
0.0104387
0.00870621
0.0105388
0.00848211
0.00812397
0.0106417
0.00840003
7.3603e-11
0.00840003
5.51205e-10
0.00840003
1.66429e-09
0.00840003
5.35256e-09
0.00840005
1.25047e-08
0.00839999
3.49643e-08
0.00840019
7.94146e-08
0.00839977
2.12304e-07
0.00840112
4.90383e-07
0.00839854
1.27161e-06
0.0084062
3.01903e-06
0.00839287
7.67603e-06
0.00842656
1.9e-05
0.00838991
4.90132e-05
0.00847979
0.000132648
0.00854297
0.000402788
0.00908717
0.00141639
0.0110052
0.00553895
0.0111463
0.00916117
0.0110594
0.00956616
0.0108331
0.0094458
0.0107063
0.00902743
0.0106957
0.0087171
0.010744
0.00843322
0.00806869
0.0107999
0.00840003
6.66812e-11
0.00840003
3.69352e-10
0.00840003
1.41906e-09
0.00840004
3.62669e-09
0.00840002
1.04265e-08
0.00840007
2.41881e-08
0.00839998
6.43968e-08
0.00840036
1.49695e-07
0.00839965
3.83237e-07
0.00840212
9.12141e-07
0.00839813
2.27296e-06
0.00841152
5.56545e-06
0.00839408
1.36656e-05
0.00844758
3.47672e-05
0.00843735
8.99312e-05
0.00863434
0.000257118
0.00918929
0.000831086
0.0116293
0.00310504
0.0117158
0.00907513
0.0116214
0.00966067
0.0113677
0.00969944
0.0110875
0.00930811
0.0109795
0.00882473
0.0109638
0.00844917
0.00806072
0.0109713
0.00840003
4.75428e-11
0.00840003
2.94838e-10
0.00840003
1.01519e-09
0.00840003
2.87096e-09
0.00840005
7.50041e-09
0.00840001
1.86942e-08
0.00840013
4.71845e-08
0.00839995
1.12694e-07
0.00840054
2.86173e-07
0.00839976
6.71458e-07
0.00840235
1.71849e-06
0.00839984
4.01774e-06
0.00841029
1.0404e-05
0.00840758
2.4797e-05
0.00845183
6.56673e-05
0.00850553
0.000176525
0.00880953
0.000551198
0.00989814
0.00200299
0.0117327
0.00724464
0.0118382
0.00955528
0.011689
0.00984861
0.0114058
0.00959107
0.0112761
0.00895461
0.0111976
0.00852703
0.00809771
0.0111616
0.00840003
3.21447e-11
0.00840003
2.30791e-10
0.00840003
7.25243e-10
0.00840003
2.24871e-09
0.00840003
5.3947e-09
0.00840003
1.4809e-08
0.00840008
3.36915e-08
0.00839998
9.04781e-08
0.00840042
2.04138e-07
0.00839958
5.41259e-07
0.00840266
1.23919e-06
0.00839736
3.23834e-06
0.00841482
7.56649e-06
0.0083909
1.97251e-05
0.00845621
4.84793e-05
0.00843851
0.000132237
0.00866161
0.000386625
0.00929392
0.00133494
0.0117092
0.00483818
0.0119979
0.00926636
0.0120682
0.00977833
0.0119169
0.00974239
0.011584
0.00928768
0.0114505
0.00866003
0.00818543
0.0113626
0.00840003
2.57311e-11
0.00840003
1.54451e-10
0.00840003
5.55408e-10
0.00840003
1.51411e-09
0.00840003
4.07494e-09
0.00840004
9.99837e-09
0.00840004
2.52657e-08
0.00840009
6.10082e-08
0.00840004
1.51712e-07
0.00840055
3.65482e-07
0.00839984
9.01815e-07
0.00840373
2.18637e-06
0.00839882
5.39459e-06
0.00842097
1.32116e-05
0.0084085
3.31298e-05
0.00849366
8.50915e-05
0.00860595
0.000236987
0.00922052
0.00074407
0.0113959
0.00265389
0.012419
0.00824579
0.012413
0.00978438
0.0122302
0.00992512
0.0118877
0.00962976
0.0117267
0.0088215
0.00832733
0.0115843
0.00840003
1.85766e-11
0.00840003
1.11124e-10
0.00840003
3.98747e-10
0.00840003
1.08267e-09
0.00840003
2.95151e-09
0.00840003
7.09937e-09
0.00840004
1.84341e-08
0.00840006
4.30795e-08
0.00840007
1.1061e-07
0.00840032
2.58812e-07
0.0084
6.59176e-07
0.00840225
1.55412e-06
0.00839928
3.9221e-06
0.00841417
9.4673e-06
0.00840031
2.38265e-05
0.00846284
6.00575e-05
0.00849325
0.000161776
0.00879472
0.000483775
0.00972118
0.00170314
0.0121794
0.00579118
0.012515
0.0094488
0.0125881
0.0098523
0.0124446
0.00977327
0.0120513
0.0092148
0.0085493
0.0118291
0.00840003
1.24265e-11
0.00840003
7.81335e-11
0.00840003
2.68822e-10
0.00840003
7.63512e-10
0.00840003
1.98104e-09
0.00840003
4.98508e-09
0.00840006
1.23511e-08
0.00840002
3.00401e-08
0.00840017
7.42337e-08
0.00840003
1.77855e-07
0.00840062
4.41511e-07
0.00840058
1.04952e-06
0.00840215
2.63335e-06
0.00840533
6.22395e-06
0.00841243
1.57865e-05
0.00843377
3.84838e-05
0.00849983
0.000100841
0.00869565
0.000279716
0.00950842
0.000896131
0.0122313
0.00306494
0.0129393
0.00874208
0.0129566
0.0098352
0.0127393
0.00999058
0.0123961
0.00955692
0.0088065
0.01214
0.00840003
8.24822e-12
0.00840003
5.50824e-11
0.00840003
1.80552e-10
0.00840003
5.37048e-10
0.00840003
1.33559e-09
0.00840003
3.49115e-09
0.00840005
8.35788e-09
0.00840002
2.08816e-08
0.00840013
5.05336e-08
0.00839999
1.22717e-07
0.0084006
3.03213e-07
0.00839994
7.19904e-07
0.00840289
1.80959e-06
0.00840056
4.25659e-06
0.00841332
1.08827e-05
0.0084121
2.58305e-05
0.00846747
6.77412e-05
0.00853804
0.000177558
0.00892456
0.000540232
0.0100985
0.00187275
0.0126798
0.00616594
0.0129839
0.00953126
0.013158
0.0098165
0.0128881
0.00982637
0.00917659
0.0125177
0.00840003
5.47436e-12
0.00840003
3.66369e-11
0.00840003
1.22058e-10
0.00840003
3.56828e-10
0.00840003
9.01641e-10
0.00840003
2.32799e-09
0.00840003
5.57843e-09
0.00840005
1.41095e-08
0.00840005
3.31891e-08
0.00840008
8.3697e-08
0.00840026
1.96552e-07
0.00840017
4.93889e-07
0.00840177
1.16575e-06
0.00840025
2.91067e-06
0.00841167
6.96455e-06
0.00840323
1.7395e-05
0.00845828
4.29565e-05
0.00848377
0.000111504
0.00875307
0.000312103
0.00959441
0.00100458
0.0124117
0.0033539
0.0132813
0.0086633
0.013362
0.00973572
0.0132186
0.00996954
0.00955495
0.0128394
0.00840003
3.99131e-12
0.00840003
2.3258e-11
0.00840003
8.58557e-11
0.00840003
2.27501e-10
0.00840003
6.29283e-10
0.00840003
1.50361e-09
0.00840003
3.85027e-09
0.00840005
9.16449e-09
0.00840003
2.26288e-08
0.00840013
5.50349e-08
0.00840006
1.32116e-07
0.00840044
3.28737e-07
0.00840057
7.69929e-07
0.00840142
1.96019e-06
0.00840486
4.52554e-06
0.00840638
1.1724e-05
0.00843056
2.74456e-05
0.00845661
7.25879e-05
0.00859429
0.000188219
0.00901153
0.000572639
0.0104372
0.00193804
0.0130108
0.0060887
0.0133308
0.00941523
0.0135646
0.00973578
0.00976248
0.0133569
0.00840003
2.50407e-12
0.00840003
1.57668e-11
0.00840003
5.41869e-11
0.00840003
1.53633e-10
0.00840003
3.9878e-10
0.00840003
9.97832e-10
0.00840004
2.47693e-09
0.00840003
5.97444e-09
0.00840006
1.47977e-08
0.00840004
3.51176e-08
0.00840016
8.72846e-08
0.00840014
2.05938e-07
0.00840057
5.14283e-07
0.00840117
1.20676e-06
0.00840224
3.02847e-06
0.00840805
7.1368e-06
0.00841438
1.79779e-05
0.008447
4.38008e-05
0.00852029
0.000113921
0.00877599
0.000315201
0.00970866
0.00100786
0.012552
0.00324262
0.0135919
0.00837627
0.0136596
0.00966818
0.00978323
0.0136387
0.00840003
1.52927e-12
0.00840003
1.04931e-11
0.00840003
3.39785e-11
0.00840003
1.02512e-10
0.00840003
2.50571e-10
0.00840003
6.65881e-10
0.00840003
1.55095e-09
0.00840003
3.97051e-09
0.00840005
9.30134e-09
0.00840003
2.32213e-08
0.00840014
5.53383e-08
0.00840003
1.34908e-07
0.00840066
3.29284e-07
0.00840015
7.85845e-07
0.0084032
1.94998e-06
0.00840185
4.60772e-06
0.00841496
1.16523e-05
0.00841915
2.76863e-05
0.00848078
7.19265e-05
0.00858024
0.000186247
0.00905957
0.000558564
0.0104264
0.0018568
0.0131994
0.0056091
0.0136927
0.00917501
0.00961126
0.0138648
0.00840003
1.01085e-12
0.00840003
6.35387e-12
0.00840003
2.21133e-11
0.00840003
6.19544e-11
0.00840003
1.62442e-10
0.00840003
4.03545e-10
0.00840003
9.96487e-10
0.00840004
2.42421e-09
0.00840003
5.8641e-09
0.00840005
1.42699e-08
0.00840005
3.42036e-08
0.00840013
8.36066e-08
0.00840025
1.99093e-07
0.00840042
4.87735e-07
0.00840176
1.16125e-06
0.00840146
2.84578e-06
0.00841194
6.7955e-06
0.00840946
1.67817e-05
0.00846549
4.09548e-05
0.00851129
0.000105007
0.00882255
0.000285829
0.00976418
0.000890007
0.0126097
0.00276804
0.0139074
0.00787909
0.00956063
0.013958
0.00840003
6.41239e-13
0.00840003
3.96598e-12
0.00840003
1.4042e-11
0.00840003
3.86281e-11
0.00840003
1.02734e-10
0.00840003
2.52337e-10
0.00840003
6.25518e-10
0.00840003
1.52466e-09
0.00840003
3.65705e-09
0.00840005
9.01823e-09
0.00840004
2.12109e-08
0.0084001
5.30463e-08
0.00840015
1.23051e-07
0.00840028
3.10266e-07
0.008401
7.17668e-07
0.00840084
1.8072e-06
0.00840691
4.22089e-06
0.00840414
1.05674e-05
0.00843923
2.53211e-05
0.00844662
6.43141e-05
0.00861142
0.000165808
0.00896905
0.000485392
0.0101796
0.00158671
0.0132409
0.00481183
0.00878956
0.0140112
0.00840003
4.04999e-13
0.00840003
2.42421e-12
0.00840003
8.69347e-12
0.00840003
2.36258e-11
0.00840003
6.36753e-11
0.00840003
1.53003e-10
0.00840003
3.91007e-10
0.00840003
9.10578e-10
0.00840003
2.29887e-09
0.00840004
5.34413e-09
0.00840003
1.33294e-08
0.00840009
3.12947e-08
0.00840004
7.68397e-08
0.00840042
1.83409e-07
0.00840012
4.42426e-07
0.00840221
1.07556e-06
0.00840098
2.54878e-06
0.00841187
6.31717e-06
0.00840812
1.48991e-05
0.00846182
3.77129e-05
0.00849234
9.28074e-05
0.00877245
0.000253055
0.0095676
0.000760142
0.0119945
0.00239231
0.00681618
0.013968
0.00840003
2.28328e-13
0.00840003
1.55343e-12
0.00840003
5.04643e-12
0.00840003
1.51243e-11
0.00840003
3.72025e-11
0.00840003
9.72374e-11
0.00840003
2.29532e-10
0.00840003
5.73107e-10
0.00840003
1.3656e-09
0.00840003
3.31028e-09
0.00840004
8.04076e-09
0.00840004
1.90039e-08
0.00840009
4.72678e-08
0.00840015
1.09231e-07
0.00840026
2.76085e-07
0.00840096
6.31183e-07
0.00840088
1.60614e-06
0.00840649
3.67631e-06
0.00840415
9.35847e-06
0.00843838
2.18144e-05
0.00844076
5.61534e-05
0.00860377
0.000140402
0.0089071
0.000401245
0.0100648
0.00127192
0.00381127
0.0130603
0.00840003
1.47657e-13
0.00840003
8.8959e-13
0.00840003
3.20497e-12
0.00840003
8.67851e-12
0.00840003
2.34082e-11
0.00840003
5.65628e-11
0.00840003
1.41959e-10
0.00840003
3.40487e-10
0.00840003
8.24913e-10
0.00840003
2.00677e-09
0.00840003
4.74516e-09
0.00840005
1.17761e-08
0.00840006
2.72973e-08
0.00840009
6.86588e-08
0.00840026
1.57542e-07
0.00840027
3.98964e-07
0.00840162
9.16162e-07
0.00840108
2.30531e-06
0.00841004
5.3661e-06
0.00840683
1.34596e-05
0.00845426
3.20748e-05
0.00847586
8.19636e-05
0.00870678
0.000212518
0.00931748
0.000630362
0.00197525
0.0111674
0.00840003
8.5101e-14
0.00840003
5.44633e-13
0.00840003
1.84954e-12
0.00840003
5.28709e-12
0.00840003
1.35724e-11
0.00840003
3.39218e-11
0.00840003
8.35732e-11
0.00840003
1.99594e-10
0.00840003
4.92143e-10
0.00840003
1.15111e-09
0.00840003
2.86866e-09
0.00840004
6.61749e-09
0.00840005
1.65715e-08
0.00840009
3.8166e-08
0.0084001
9.53123e-08
0.00840045
2.20589e-07
0.00840029
5.45458e-07
0.0084028
1.28105e-06
0.00840132
3.11505e-06
0.00841663
7.46096e-06
0.00841065
1.80285e-05
0.00848797
4.4366e-05
0.00852591
0.000111341
0.00892765
0.000301706
0.000919823
0.00993341
0.00840003
4.84764e-14
0.00840003
3.233e-13
0.00840003
1.07734e-12
0.00840003
3.15514e-12
0.00840003
7.86101e-12
0.00840003
2.03732e-11
0.00840003
4.77772e-11
0.00840003
1.20572e-10
0.00840003
2.79567e-10
0.00840003
6.96531e-10
0.00840003
1.62228e-09
0.00840003
3.99461e-09
0.00840005
9.41635e-09
0.00840004
2.27945e-08
0.00840014
5.47094e-08
0.0084001
1.30002e-07
0.0084006
3.17039e-07
0.00840066
7.41787e-07
0.00840254
1.83953e-06
0.00840513
4.25021e-06
0.00841192
1.06766e-05
0.00843304
2.48997e-05
0.00847831
6.3729e-05
0.00862063
0.00015949
0.000458177
0.00908279
0.00840003
3.01398e-14
0.00840003
1.78574e-13
0.00840003
6.50796e-13
0.00840003
1.74021e-12
0.00840003
4.74695e-12
0.00840003
1.13035e-11
0.00840003
2.86957e-11
0.00840003
6.72477e-11
0.00840003
1.65773e-10
0.00840003
3.93671e-10
0.00840003
9.46772e-10
0.00840003
2.28675e-09
0.00840004
5.39264e-09
0.00840005
1.32798e-08
0.00840007
3.07135e-08
0.0084001
7.66769e-08
0.00840033
1.75861e-07
0.00840033
4.41006e-07
0.00840205
1.01113e-06
0.00840129
2.52889e-06
0.00841253
5.86603e-06
0.00840835
1.46091e-05
0.00846748
3.47349e-05
0.00848847
8.826e-05
0.000228548
0.00877892
0.00840003
1.64895e-14
0.00840003
1.05141e-13
0.00840003
3.60014e-13
0.00840003
1.02412e-12
0.00840003
2.6272e-12
0.00840003
6.58179e-12
0.00840003
1.59687e-11
0.00840003
3.87239e-11
0.00840003
9.32398e-11
0.00840003
2.22618e-10
0.00840003
5.36839e-10
0.00840003
1.27437e-09
0.00840004
3.08483e-09
0.00840004
7.27409e-09
0.00840005
1.76477e-08
0.0084001
4.15756e-08
0.00840012
1.00892e-07
0.00840048
2.3745e-07
0.00840043
5.74466e-07
0.00840301
1.35997e-06
0.00840194
3.27446e-06
0.00841793
7.79876e-06
0.00841393
1.88902e-05
0.00849601
4.58767e-05
0.000115538
0.00854472
0.00840003
9.0352e-15
0.00840003
6.10216e-14
0.00840003
1.99693e-13
0.00840003
5.91212e-13
0.00840003
1.46024e-12
0.00840003
3.77586e-12
0.00840003
8.89589e-12
0.00840003
2.20915e-11
0.00840003
5.19193e-11
0.00840003
1.26079e-10
0.00840003
3.00576e-10
0.00840003
7.14431e-10
0.00840003
1.73157e-09
0.00840003
4.04494e-09
0.00840004
9.96087e-09
0.00840006
2.29293e-08
0.00840009
5.69353e-08
0.00840025
1.30623e-07
0.00840029
3.24459e-07
0.00840156
7.45957e-07
0.00840113
1.8405e-06
0.00840956
4.29075e-06
0.00840652
1.04899e-05
0.00845351
2.49963e-05
6.19804e-05
0.00845798
0.00840003
5.31419e-15
0.00840003
3.20906e-14
0.00840003
1.151e-13
0.00840003
3.12739e-13
0.00840003
8.34614e-13
0.00840003
2.02429e-12
0.00840003
4.99398e-12
0.00840003
1.19797e-11
0.00840003
2.86314e-11
0.00840003
6.93583e-11
0.00840003
1.61886e-10
0.00840003
3.9865e-10
0.00840003
9.15177e-10
0.00840003
2.27899e-09
0.00840004
5.186e-09
0.00840004
1.29505e-08
0.0084001
2.9545e-08
0.00840007
7.32929e-08
0.00840044
1.68598e-07
0.0084003
4.13878e-07
0.00840226
9.67261e-07
0.00840189
2.33212e-06
0.00841204
5.5688e-06
0.00841253
1.32927e-05
3.25559e-05
0.00846346
0.00840003
2.7378e-15
0.00840003
1.76072e-14
0.00840003
6.03645e-14
0.00840003
1.70194e-13
0.00840003
4.38578e-13
0.00840003
1.08315e-12
0.00840003
2.65336e-12
0.00840003
6.27845e-12
0.00840003
1.52926e-11
0.00840003
3.561e-11
0.00840003
8.70415e-11
0.00840003
2.00457e-10
0.00840003
4.91199e-10
0.00840003
1.12934e-09
0.00840003
2.75976e-09
0.00840004
6.365e-09
0.00840004
1.54069e-08
0.00840012
3.59313e-08
0.0084001
8.58516e-08
0.00840058
2.02029e-07
0.00840044
4.77289e-07
0.00840311
1.13581e-06
0.00840277
2.65192e-06
0.00841719
6.37599e-06
1.49119e-05
0.00841842
0.00840003
1.26651e-15
0.00840003
9.02422e-15
0.00840003
2.95785e-14
0.00840003
8.82608e-14
0.00840003
2.15833e-13
0.00840003
5.59347e-13
0.00840003
1.2786e-12
0.00840003
3.24036e-12
0.00840003
7.22365e-12
0.00840003
1.82083e-11
0.00840003
4.03765e-11
0.00840003
1.00634e-10
0.00840003
2.25972e-10
0.00840003
5.49897e-10
0.00840003
1.26141e-09
0.00840003
2.98218e-09
0.00840005
7.037e-09
0.00840006
1.60251e-08
0.00840009
3.88762e-08
0.00840028
8.60461e-08
0.00840027
2.12822e-07
0.00840173
4.57475e-07
0.00840098
1.15126e-06
0.00841062
2.43662e-06
6.14533e-06
0.00840582
0.00840003
7.05789e-16
0.00840003
4.28688e-15
0.00840003
1.49577e-14
0.00840003
4.18682e-14
0.00840003
1.06122e-13
0.00840003
2.6134e-13
0.00840003
6.37543e-13
0.00840003
1.45817e-12
0.00840003
3.62509e-12
0.00840003
7.91305e-12
0.00840003
2.01998e-11
0.00840003
4.24825e-11
0.00840003
1.10614e-10
0.00840003
2.29026e-10
0.00840003
5.96574e-10
0.00840004
1.23231e-09
0.00840003
3.1719e-09
0.00840006
6.66974e-09
0.00840004
1.65528e-08
0.00840017
3.57899e-08
0.00840015
8.48625e-08
0.00840052
1.91995e-07
0.00840119
4.23166e-07
0.00840168
1.01515e-06
2.07961e-06
0.00840758
0.00840003
3.29869e-16
0.00840003
2.08172e-15
0.00840003
6.6506e-15
0.00840003
1.9382e-14
0.00840003
4.9095e-14
0.00840003
1.22266e-13
0.00840003
2.79987e-13
0.00840003
7.0944e-13
0.00840003
1.48857e-12
0.00840003
3.95038e-12
0.00840003
7.78698e-12
0.00840003
2.16524e-11
0.00840003
4.04251e-11
0.00840003
1.157e-10
0.00840003
2.11647e-10
0.00840003
6.04403e-10
0.00840004
1.1205e-09
0.00840002
3.08896e-09
0.00840008
6.01534e-09
0.00839997
1.53043e-08
0.00840034
3.26336e-08
0.00839967
7.3538e-08
0.00840176
1.78683e-07
0.0083981
3.42636e-07
9.6037e-07
0.00840842
0.00840003
6.74916e-17
0.00840003
8.69476e-16
0.00840003
3.40773e-15
0.00840003
7.82829e-15
0.00840003
2.24858e-14
0.00840003
4.87409e-14
0.00840003
1.2725e-13
0.00840003
2.74367e-13
0.00840003
6.82441e-13
0.00840003
1.50808e-12
0.00840003
3.50943e-12
0.00840003
8.18026e-12
0.00840003
1.77953e-11
0.00840003
4.43048e-11
0.00840003
8.83177e-11
0.00840003
2.37204e-10
0.00840003
4.24729e-10
0.00840004
1.26041e-09
0.00840002
2.02127e-09
0.00840007
6.41636e-09
0.00840002
9.37042e-09
0.00840002
3.27571e-08
0.00840035
4.2413e-08
0.00839916
1.56229e-07
2.17506e-07
0.00840275
0.00840003
1.67157e-16
0.00840003
2.83139e-16
0.00840003
1.30923e-15
0.00840003
2.61325e-15
0.00840003
1.04356e-14
0.00840003
1.67569e-14
0.00840003
6.21588e-14
0.00840003
9.1152e-14
0.00840003
3.35791e-13
0.00840003
4.87894e-13
0.00840003
1.73974e-12
0.00840003
2.78298e-12
0.00840003
8.04909e-12
0.00840003
1.59191e-11
0.00840003
3.58661e-11
0.00840003
9.19032e-11
0.00840002
1.44144e-10
0.00840005
5.12616e-10
0.0084
5.39022e-10
0.00840011
2.99369e-09
0.00839987
1.6517e-09
0.0084004
1.69709e-08
0.00839929
3.0125e-09
0.00840125
9.91276e-08
-1.88007e-08
0.00839721
0.00840003
-8.42967e-18
0.00840003
2.31884e-16
0.00840003
5.03883e-16
0.00840003
1.12077e-15
0.00840003
4.04383e-15
0.00840003
7.66444e-15
0.00840003
2.44409e-14
0.00840003
3.12282e-14
0.00840003
1.69199e-13
0.00840003
9.63971e-14
0.00840003
1.0881e-12
0.00840003
7.57463e-14
0.00840003
6.70165e-12
0.00840003
-2.10706e-12
0.00840003
3.69845e-11
0.00840003
-1.84316e-11
0.00840003
1.84361e-10
0.00840004
-1.28917e-10
0.0084
7.75765e-10
0.00840011
-2.59245e-10
0.0083998
2.61371e-09
0.00840059
2.8909e-09
0.0083987
3.12175e-09
0.00840322
4.15489e-08
-3.7142e-08
0.00839293
0.00840003
0.00840003
0.00840003
0.00840003
0.00840003
0.00840003
0.00840003
0.00840003
0.00840003
0.00840003
0.00840003
0.00840003
0.00840003
0.00840003
0.00840003
0.00840003
0.00840004
0.00840002
0.00840005
0.00839999
0.00840007
0.00839996
0.00839977
0.00840038
0.00839752
0.00483441
0.00405582
0.00321333
0.0016209
0.0025201
0.000693283
0.00223814
0.000280649
0.00221612
1.91584e-05
0.00241261
-0.000199745
0.00263139
-0.000224607
0.00272049
-0.000102049
0.00267326
2.13803e-05
0.00242113
0.000206816
0.00192169
0.00038724
0.00110311
0.000674638
0.000356865
0.000717127
-0.000302396
0.000640841
-0.000925155
0.000620406
-0.00143248
0.000524087
-0.00182654
0.000407181
-0.00212396
0.00030185
-0.00231298
0.00019599
-0.00242611
0.000118694
-0.00252276
9.9644e-05
-0.00261898
0.000102639
-0.00271778
0.000104605
-0.00280308
8.996e-05
-0.00286617
7.00599e-05
-0.00292642
6.4501e-05
-0.00298274
6.03296e-05
-0.00302323
4.42249e-05
-0.00304001
1.88244e-05
-0.00302666
-1.36905e-05
-0.00296923
-6.02245e-05
-0.00285678
-0.000116926
-0.00269099
-0.000170885
-0.00247151
-0.000224327
-0.00221839
-0.000257493
-0.00194449
-0.000277148
-0.00165921
-0.000287524
-0.00136836
-0.000292174
-0.00107038
-0.000298532
-0.000774351
-0.000296013
-0.000482709
-0.00029127
-0.0001889
-0.000293217
0.000108524
-0.000296709
0.000384572
-0.000275248
0.00064279
-0.00025725
0.000889267
-0.000245468
0.00112528
-0.000234908
0.00134948
-0.000223129
0.0015618
-0.000211213
0.00176505
-0.000202311
0.00196447
-0.000198763
0.00215545
-0.000190604
0.00233725
-0.000181749
0.00250905
-0.000172055
0.00267187
-0.000163346
0.00282595
-0.000154685
0.00297187
-0.000146789
0.00310993
-0.000138765
0.00324043
-0.000131376
0.00336368
-0.000123827
0.00348019
-0.000116935
0.00359005
-0.000109952
0.00369371
-0.000103615
0.00379099
-9.72497e-05
0.0038824
-9.14792e-05
0.00396786
-8.57333e-05
0.0040481
-8.05186e-05
0.00412311