/*--------------------------------*- C++ -*----------------------------------*\
  =========                 |
  \\      /  F ield         | OpenFOAM: The Open Source CFD Toolbox
   \\    /   O peration     | Website:  https://openfoam.org
    \\  /    A nd           | Version:  10
     \\/     M anipulation  |
\*---------------------------------------------------------------------------*/
FoamFile
{
    format      ascii;
    class       volVectorField;
    location    "4.5";
    object      U;
}
// * * * * * * * * * * * * * * * * * * * * * * * * * * * * * * * * * * * * * //

dimensions      [0 1 -1 0 0 0 0];

internalField   nonuniform List<vector> 
5250
(
(3 -6.7095e-09 0)
(2.99999 1.12976e-07 0)
(2.99996 2.19874e-08 0)
(2.99991 1.13014e-06 0)
(2.99978 4.23103e-07 0)
(2.99947 7.7305e-06 0)
(2.99866 2.52111e-06 0)
(2.99673 5.12088e-05 0)
(2.99183 2.18236e-05 0)
(2.97972 0.000283157 0)
(2.94806 0.000321538 0)
(2.8616 0.00140748 0)
(2.61096 0.00325289 0)
(1.87575 0.00981572 0)
(0.871457 0.0264788 0)
(0.441915 0.0243626 0)
(0.534959 0.0244233 0)
(0.560416 0.026269 0)
(0.505777 0.028133 0)
(0.415154 0.0300284 0)
(0.330237 0.0322555 0)
(0.261554 0.0348489 0)
(0.192904 0.0375396 0)
(0.114863 0.0405974 0)
(0.049535 0.0446585 0)
(3 2.42489e-08 0)
(2.99999 2.87311e-07 0)
(2.99997 5.68967e-07 0)
(2.99991 2.713e-06 0)
(2.99979 4.57861e-06 0)
(2.99947 1.67189e-05 0)
(2.9987 3.2601e-05 0)
(2.99675 9.94331e-05 0)
(2.99202 0.00022079 0)
(2.97997 0.000592459 0)
(2.94899 0.00143321 0)
(2.86406 0.00386099 0)
(2.6178 0.0104847 0)
(1.89463 0.0302589 0)
(0.881952 0.080739 0)
(0.438583 0.0703672 0)
(0.535012 0.0672849 0)
(0.561675 0.070279 0)
(0.506745 0.0733412 0)
(0.416145 0.0765637 0)
(0.331202 0.0801293 0)
(0.261924 0.0839982 0)
(0.192238 0.0875313 0)
(0.112869 0.0908144 0)
(0.0469172 0.0935886 0)
(3 7.46301e-08 0)
(2.99999 3.40132e-07 0)
(2.99997 1.48739e-06 0)
(2.99992 3.29732e-06 0)
(2.99979 1.10228e-05 0)
(2.99949 2.19802e-05 0)
(2.99873 7.09081e-05 0)
(2.99689 0.000135326 0)
(2.99224 0.000436036 0)
(2.98072 0.000879995 0)
(2.95082 0.00258884 0)
(2.86902 0.00626019 0)
(2.63334 0.0178704 0)
(1.93553 0.051144 0)
(0.90777 0.13848 0)
(0.43605 0.119563 0)
(0.538979 0.113075 0)
(0.568388 0.118253 0)
(0.513305 0.124045 0)
(0.422987 0.130728 0)
(0.338014 0.137513 0)
(0.26792 0.144568 0)
(0.196823 0.151278 0)
(0.115509 0.157178 0)
(0.0471677 0.160701 0)
(3 7.47917e-08 0)
(2.99999 5.43166e-07 0)
(2.99997 1.7226e-06 0)
(2.99992 5.42964e-06 0)
(2.9998 1.27726e-05 0)
(2.99952 3.66027e-05 0)
(2.99879 8.00611e-05 0)
(2.99705 0.000227866 0)
(2.99264 0.00049424 0)
(2.98177 0.00139311 0)
(2.95347 0.0032302 0)
(2.8768 0.00885805 0)
(2.65556 0.0240029 0)
(1.99949 0.0697361 0)
(0.948727 0.19222 0)
(0.436459 0.168175 0)
(0.547954 0.158412 0)
(0.581581 0.165576 0)
(0.526567 0.17424 0)
(0.436603 0.184986 0)
(0.351165 0.195466 0)
(0.279916 0.206264 0)
(0.206872 0.216928 0)
(0.122394 0.226259 0)
(0.0496904 0.231033 0)
(3 8.8764e-08 0)
(2.99999 6.85777e-07 0)
(2.99997 1.96861e-06 0)
(2.99993 6.73411e-06 0)
(2.99982 1.47653e-05 0)
(2.99955 4.3851e-05 0)
(2.99889 9.62147e-05 0)
(2.99724 0.000266704 0)
(2.99321 0.000612808 0)
(2.983 0.00162272 0)
(2.95703 0.00394733 0)
(2.88641 0.0105431 0)
(2.68438 0.0287893 0)
(2.0828 0.0837464 0)
(1.00687 0.237644 0)
(0.445935 0.218125 0)
(0.563917 0.206261 0)
(0.602213 0.213992 0)
(0.547487 0.224553 0)
(0.457873 0.239142 0)
(0.371293 0.25358 0)
(0.298303 0.268644 0)
(0.222599 0.284032 0)
(0.133447 0.297903 0)
(0.054311 0.304955 0)
(3 1.17537e-07 0)
(2.99999 5.93386e-07 0)
(2.99997 2.47723e-06 0)
(2.99993 5.78004e-06 0)
(2.99983 1.82774e-05 0)
(2.99959 3.97366e-05 0)
(2.99898 0.000114785 0)
(2.99748 0.000254284 0)
(2.99377 0.000699746 0)
(2.98454 0.00162742 0)
(2.96094 0.00431201 0)
(2.89748 0.0109155 0)
(2.7174 0.0303808 0)
(2.18221 0.0875502 0)
(1.08944 0.256019 0)
(0.479779 0.262652 0)
(0.592478 0.256727 0)
(0.632795 0.264802 0)
(0.578313 0.276534 0)
(0.489044 0.29466 0)
(0.400564 0.313641 0)
(0.324937 0.333945 0)
(0.245649 0.355424 0)
(0.150254 0.37595 0)
(0.0619268 0.387676 0)
(3 9.91201e-08 0)
(2.99999 6.18327e-07 0)
(2.99998 2.21097e-06 0)
(2.99994 6.04064e-06 0)
(2.99985 1.63061e-05 0)
(2.99963 4.11022e-05 0)
(2.99907 0.000100035 0)
(2.99772 0.000261444 0)
(2.99436 0.000605349 0)
(2.98602 0.00161212 0)
(2.96475 0.00383295 0)
(2.9083 0.0101682 0)
(2.74853 0.0272213 0)
(2.27841 0.0777636 0)
(1.18803 0.23012 0)
(0.528314 0.295855 0)
(0.62435 0.309499 0)
(0.664618 0.317123 0)
(0.613305 0.329615 0)
(0.527321 0.351705 0)
(0.438398 0.376373 0)
(0.360622 0.403262 0)
(0.27787 0.432817 0)
(0.175251 0.463398 0)
(0.0744018 0.48487 0)
(3 9.49353e-08 0)
(2.99999 5.94165e-07 0)
(2.99998 2.0162e-06 0)
(2.99994 5.81387e-06 0)
(2.99986 1.51035e-05 0)
(2.99966 3.79053e-05 0)
(2.99916 9.60096e-05 0)
(2.99791 0.000229273 0)
(2.9949 0.00059025 0)
(2.98723 0.00138731 0)
(2.96806 0.00360195 0)
(2.91704 0.00892847 0)
(2.77345 0.0241087 0)
(2.3509 0.067295 0)
(1.29088 0.198672 0)
(0.575063 0.336694 0)
(0.639026 0.370431 0)
(0.678779 0.368911 0)
(0.640226 0.381599 0)
(0.564956 0.408062 0)
(0.48056 0.440457 0)
(0.403989 0.476201 0)
(0.320579 0.516871 0)
(0.212499 0.562981 0)
(0.095573 0.605561 0)
(3 9.06582e-08 0)
(2.99999 5.98549e-07 0)
(2.99998 1.95124e-06 0)
(2.99995 5.83221e-06 0)
(2.99987 1.45725e-05 0)
(2.99969 3.75322e-05 0)
(2.99923 9.39969e-05 0)
(2.99814 0.000224521 0)
(2.99532 0.000579588 0)
(2.98853 0.00136431 0)
(2.97104 0.00351097 0)
(2.92529 0.00874053 0)
(2.79707 0.0233345 0)
(2.42003 0.065164 0)
(1.42102 0.191922 0)
(0.655735 0.386326 0)
(0.647007 0.418748 0)
(0.677233 0.415028 0)
(0.660442 0.431644 0)
(0.601198 0.46137 0)
(0.526283 0.503081 0)
(0.455203 0.5502 0)
(0.376556 0.605365 0)
(0.270527 0.677084 0)
(0.134075 0.764797 0)
(3 8.77177e-08 0)
(2.99999 5.96082e-07 0)
(2.99998 1.97834e-06 0)
(2.99995 5.80364e-06 0)
(2.99989 1.4689e-05 0)
(2.99972 3.86894e-05 0)
(2.99932 9.08685e-05 0)
(2.99831 0.000241238 0)
(2.99585 0.000548845 0)
(2.98967 0.00147399 0)
(2.97421 0.00343068 0)
(2.93349 0.00907037 0)
(2.82056 0.0234923 0)
(2.48992 0.0660037 0)
(1.5747 0.192737 0)
(0.756583 0.434591 0)
(0.654347 0.451098 0)
(0.68248 0.453355 0)
(0.680511 0.476478 0)
(0.637204 0.510434 0)
(0.5769 0.56074 0)
(0.515842 0.620047 0)
(0.452124 0.696665 0)
(0.366604 0.813483 0)
(0.206816 1.02447 0)
(3 1.02198e-07 0)
(2.99999 5.72658e-07 0)
(2.99998 2.14352e-06 0)
(2.99996 5.6106e-06 0)
(2.9999 1.58476e-05 0)
(2.99976 3.77716e-05 0)
(2.9994 9.97246e-05 0)
(2.99852 0.000234117 0)
(2.99635 0.000610231 0)
(2.99093 0.00143475 0)
(2.97736 0.00373073 0)
(2.94205 0.00914183 0)
(2.84437 0.0244894 0)
(2.56127 0.0675842 0)
(1.749 0.196721 0)
(0.87611 0.48294 0)
(0.663741 0.485378 0)
(0.694904 0.488049 0)
(0.705888 0.51303 0)
(0.676548 0.553034 0)
(0.632623 0.609103 0)
(0.590532 0.679949 0)
(0.561404 0.777081 0)
(0.561278 0.925557 0)
(0.603038 1.17649 0)
(3 9.19027e-08 0)
(2.99999 6.41724e-07 0)
(2.99999 2.01834e-06 0)
(2.99997 6.28079e-06 0)
(2.99992 1.50129e-05 0)
(2.99979 4.13074e-05 0)
(2.99948 9.61895e-05 0)
(2.99874 0.00025278 0)
(2.99685 0.00060038 0)
(2.99228 0.00153377 0)
(2.98064 0.0037426 0)
(2.9508 0.00958383 0)
(2.8693 0.0248525 0)
(2.63386 0.069157 0)
(1.94554 0.199824 0)
(1.01797 0.526086 0)
(0.683958 0.52359 0)
(0.716224 0.524322 0)
(0.738417 0.544348 0)
(0.721757 0.588016 0)
(0.693943 0.647645 0)
(0.67486 0.726173 0)
(0.682196 0.832233 0)
(0.745275 0.978374 0)
(0.900627 1.17041 0)
(3 9.34009e-08 0)
(3 5.92442e-07 0)
(2.99999 2.04048e-06 0)
(2.99997 5.79474e-06 0)
(2.99993 1.525e-05 0)
(2.99982 3.84269e-05 0)
(2.99957 9.68036e-05 0)
(2.99894 0.000239226 0)
(2.99742 0.00059662 0)
(2.99355 0.00148351 0)
(2.98408 0.00370824 0)
(2.95962 0.00934299 0)
(2.89422 0.0244 0)
(2.70772 0.0670409 0)
(2.15735 0.194151 0)
(1.19151 0.543834 0)
(0.735483 0.565828 0)
(0.754674 0.570715 0)
(0.781368 0.578261 0)
(0.776101 0.618487 0)
(0.761045 0.678535 0)
(0.762038 0.757098 0)
(0.795376 0.857957 0)
(0.88555 0.980527 0)
(1.06392 1.10173 0)
(3 8.73292e-08 0)
(3 4.94172e-07 0)
(2.99999 1.86175e-06 0)
(2.99998 4.83474e-06 0)
(2.99994 1.3797e-05 0)
(2.99986 3.24068e-05 0)
(2.99965 8.6745e-05 0)
(2.99915 0.000202036 0)
(2.99789 0.000527138 0)
(2.99487 0.00125228 0)
(2.98718 0.0032099 0)
(2.96808 0.00788678 0)
(2.91746 0.0204818 0)
(2.77653 0.0550534 0)
(2.36759 0.157328 0)
(1.41117 0.465148 0)
(0.836949 0.589404 0)
(0.814618 0.614105 0)
(0.832455 0.620329 0)
(0.83908 0.650399 0)
(0.8331 0.704356 0)
(0.845587 0.77551 0)
(0.892572 0.861554 0)
(0.98907 0.956752 0)
(1.15805 1.03437 0)
(3 6.59021e-08 0)
(3 4.43972e-07 0)
(2.99999 1.4674e-06 0)
(2.99998 4.31144e-06 0)
(2.99995 1.08849e-05 0)
(2.99988 2.85041e-05 0)
(2.99972 6.78666e-05 0)
(2.9993 0.000175473 0)
(2.99829 0.000409929 0)
(2.99579 0.00105662 0)
(2.98961 0.00249519 0)
(2.97404 0.00637325 0)
(2.93339 0.0157828 0)
(2.82133 0.0418195 0)
(2.49634 0.115728 0)
(1.6274 0.344316 0)
(0.935159 0.623609 0)
(0.855611 0.655954 0)
(0.872071 0.667818 0)
(0.892021 0.684653 0)
(0.899736 0.727424 0)
(0.920726 0.786972 0)
(0.973259 0.856273 0)
(1.06739 0.927838 0)
(1.21845 0.981142 0)
(3 5.78113e-08 0)
(3 3.89653e-07 0)
(2.99999 1.26815e-06 0)
(2.99998 3.80406e-06 0)
(2.99996 9.4116e-06 0)
(2.99991 2.49598e-05 0)
(2.99977 5.91351e-05 0)
(2.99944 0.000152324 0)
(2.99862 0.000361045 0)
(2.99661 0.000916394 0)
(2.99161 0.0022018 0)
(2.97913 0.00556482 0)
(2.9469 0.0137722 0)
(2.85864 0.0362782 0)
(2.60546 0.0993652 0)
(1.88119 0.290225 0)
(1.08531 0.665419 0)
(0.885935 0.69154 0)
(0.899101 0.704139 0)
(0.930021 0.712421 0)
(0.955432 0.745441 0)
(0.985123 0.794168 0)
(1.03974 0.849202 0)
(1.12849 0.902804 0)
(1.26099 0.940895 0)
(3 5.52356e-08 0)
(3 3.19545e-07 0)
(3 1.17675e-06 0)
(2.99999 3.13185e-06 0)
(2.99997 8.70743e-06 0)
(2.99993 2.08943e-05 0)
(2.99982 5.47053e-05 0)
(2.99956 0.00012949 0)
(2.99893 0.000332755 0)
(2.99732 0.000796796 0)
(2.99348 0.00202524 0)
(2.98367 0.00493416 0)
(2.95898 0.0126117 0)
(2.89228 0.0324174 0)
(2.70313 0.0892869 0)
(2.14695 0.257851 0)
(1.28056 0.679995 0)
(0.936827 0.723497 0)
(0.933821 0.732437 0)
(0.966334 0.736111 0)
(1.00491 0.757938 0)
(1.04137 0.797345 0)
(1.09575 0.841791 0)
(1.17786 0.882767 0)
(1.29365 0.910625 0)
(3 4.38146e-08 0)
(3 2.72507e-07 0)
(3 9.42637e-07 0)
(2.99999 2.6645e-06 0)
(2.99998 7.00703e-06 0)
(2.99994 1.75543e-05 0)
(2.99986 4.4354e-05 0)
(2.99967 0.000107455 0)
(2.99918 0.000272276 0)
(2.99802 0.000650272 0)
(2.99506 0.00166315 0)
(2.98796 0.00398867 0)
(2.96978 0.0102272 0)
(2.92263 0.0257769 0)
(2.7926 0.0698384 0)
(2.41561 0.198903 0)
(1.55073 0.575874 0)
(1.0476 0.730733 0)
(0.993945 0.755076 0)
(1.01195 0.763939 0)
(1.05351 0.7736 0)
(1.09478 0.801676 0)
(1.14646 0.836315 0)
(1.22048 0.867694 0)
(1.32129 0.888171 0)
(3 3.33472e-08 0)
(3 2.1577e-07 0)
(3 7.31809e-07 0)
(2.99999 2.09823e-06 0)
(2.99998 5.40729e-06 0)
(2.99996 1.38355e-05 0)
(2.9999 3.36419e-05 0)
(2.99975 8.47372e-05 0)
(2.99938 0.000202617 0)
(2.99848 0.000510401 0)
(2.99626 0.00121453 0)
(2.99081 0.00307299 0)
(2.97713 0.00739459 0)
(2.94182 0.0188632 0)
(2.84572 0.0487759 0)
(2.57005 0.134601 0)
(1.8218 0.399848 0)
(1.16801 0.736091 0)
(1.04279 0.775944 0)
(1.05062 0.793224 0)
(1.09186 0.795577 0)
(1.13995 0.810608 0)
(1.19099 0.835025 0)
(1.25796 0.858147 0)
(1.34607 0.872649 0)
(3 2.74937e-08 0)
(3 1.70155e-07 0)
(3 5.94268e-07 0)
(2.99999 1.65772e-06 0)
(2.99999 4.40487e-06 0)
(2.99997 1.09854e-05 0)
(2.99992 2.754e-05 0)
(2.99981 6.74918e-05 0)
(2.99953 0.000166546 0)
(2.99886 0.000410083 0)
(2.9972 0.00100276 0)
(2.99311 0.002494 0)
(2.98291 0.00612678 0)
(2.95698 0.0154331 0)
(2.88705 0.0398386 0)
(2.68971 0.108636 0)
(2.11421 0.316564 0)
(1.34973 0.755182 0)
(1.09245 0.807713 0)
(1.08576 0.820382 0)
(1.12144 0.819045 0)
(1.17554 0.82107 0)
(1.22907 0.836139 0)
(1.29104 0.852568 0)
(1.36882 0.862446 0)
(3 2.08506e-08 0)
(3 1.36684e-07 0)
(3 4.57589e-07 0)
(3 1.33259e-06 0)
(2.99999 3.40379e-06 0)
(2.99998 8.78195e-06 0)
(2.99994 2.13488e-05 0)
(2.99986 5.37882e-05 0)
(2.99967 0.000129687 0)
(2.99918 0.000324619 0)
(2.998 0.00078462 0)
(2.99508 0.00196088 0)
(2.98791 0.00478723 0)
(2.96988 0.0120722 0)
(2.923 0.030566 0)
(2.79424 0.082544 0)
(2.42092 0.235402 0)
(1.62637 0.652239 0)
(1.19735 0.809768 0)
(1.14175 0.834994 0)
(1.15873 0.841341 0)
(1.20914 0.835914 0)
(1.26494 0.840821 0)
(1.32252 0.850493 0)
(1.39121 0.85632 0)
(3 1.68787e-08 0)
(3 9.81944e-08 0)
(3 3.59046e-07 0)
(3 9.56638e-07 0)
(2.99999 2.6393e-06 0)
(2.99998 6.3055e-06 0)
(2.99996 1.64144e-05 0)
(2.9999 3.85085e-05 0)
(2.99976 9.83436e-05 0)
(2.99941 0.000231773 0)
(2.99856 0.000584478 0)
(2.99644 0.0013946 0)
(2.99133 0.00348632 0)
(2.97843 0.00848098 0)
(2.94557 0.0214208 0)
(2.85676 0.0553727 0)
(2.60394 0.152752 0)
(1.92545 0.449134 0)
(1.3281 0.797221 0)
(1.19505 0.845481 0)
(1.19563 0.864105 0)
(1.23711 0.858805 0)
(1.29464 0.851606 0)
(1.351 0.852769 0)
(1.41316 0.85431 0)
(3 1.18217e-08 0)
(3 7.791e-08 0)
(3 2.5726e-07 0)
(3 7.57538e-07 0)
(3 1.90381e-06 0)
(2.99999 4.95409e-06 0)
(2.99997 1.19371e-05 0)
(2.99993 3.00434e-05 0)
(2.99983 7.23552e-05 0)
(2.99958 0.000179314 0)
(2.99897 0.00043612 0)
(2.99749 0.00107089 0)
(2.99381 0.00263581 0)
(2.98481 0.00648051 0)
(2.96182 0.016185 0)
(2.90121 0.0414951 0)
(2.73144 0.111995 0)
(2.23866 0.325062 0)
(1.53038 0.772092 0)
(1.26103 0.863282 0)
(1.23698 0.882475 0)
(1.26103 0.88147 0)
(1.31532 0.867892 0)
(1.37459 0.860542 0)
(1.43386 0.857101 0)
(3 8.56579e-09 0)
(3 5.70147e-08 0)
(3 1.89226e-07 0)
(3 5.54924e-07 0)
(3 1.39817e-06 0)
(2.99999 3.65741e-06 0)
(2.99998 8.70302e-06 0)
(2.99995 2.23486e-05 0)
(2.99988 5.25236e-05 0)
(2.99971 0.00013384 0)
(2.9993 0.000315709 0)
(2.99828 0.0008 0)
(2.99584 0.00190276 0)
(2.98971 0.00481025 0)
(2.97472 0.0116874 0)
(2.93579 0.0299875 0)
(2.83111 0.0787642 0)
(2.52948 0.223311 0)
(1.82817 0.620835 0)
(1.37948 0.85424 0)
(1.29434 0.887396 0)
(1.29726 0.898211 0)
(1.33905 0.886506 0)
(1.39663 0.871442 0)
(1.4537 0.863101 0)
(3 6.56991e-09 0)
(3 3.92633e-08 0)
(3 1.40697e-07 0)
(3 3.82222e-07 0)
(3 1.03352e-06 0)
(2.99999 2.51381e-06 0)
(2.99999 6.42373e-06 0)
(2.99997 1.52889e-05 0)
(2.99992 3.8542e-05 0)
(2.9998 9.15911e-05 0)
(2.99952 0.000229063 0)
(2.99882 0.000547494 0)
(2.99716 0.00136141 0)
(2.99295 0.00329336 0)
(2.98279 0.00816725 0)
(2.95669 0.0202356 0)
(2.88781 0.0520674 0)
(2.69461 0.141107 0)
(2.15232 0.411624 0)
(1.54276 0.833306 0)
(1.35098 0.900171 0)
(1.33441 0.913484 0)
(1.35955 0.905978 0)
(1.4136 0.885879 0)
(1.47175 0.871393 0)
(3 4.60251e-09 0)
(3 2.79985e-08 0)
(3 9.84519e-08 0)
(3 2.71976e-07 0)
(3 7.25971e-07 0)
(3 1.77854e-06 0)
(2.99999 4.5304e-06 0)
(2.99998 1.0757e-05 0)
(2.99995 2.7201e-05 0)
(2.99987 6.42163e-05 0)
(2.99968 0.00016193 0)
(2.99922 0.00038269 0)
(2.99813 0.000962519 0)
(2.99538 0.00229626 0)
(2.98882 0.00574984 0)
(2.9722 0.0140534 0)
(2.92972 0.0357909 0)
(2.81517 0.0945966 0)
(2.48293 0.270647 0)
(1.81665 0.697449 0)
(1.45192 0.882273 0)
(1.38728 0.912899 0)
(1.39138 0.919824 0)
(1.43304 0.903601 0)
(1.48924 0.881298 0)
(3 3.06526e-09 0)
(3 1.96654e-08 0)
(3 6.60513e-08 0)
(3 1.90962e-07 0)
(3 4.85941e-07 0)
(3 1.24222e-06 0)
(2.99999 3.03063e-06 0)
(2.99999 7.45654e-06 0)
(2.99996 1.82466e-05 0)
(2.99991 4.39662e-05 0)
(2.99979 0.000108776 0)
(2.99948 0.000258335 0)
(2.99875 0.000647488 0)
(2.99694 0.00152264 0)
(2.99258 0.00385056 0)
(2.98167 0.00916428 0)
(2.95426 0.0232688 0)
(2.88155 0.0590411 0)
(2.67735 0.161513 0)
(2.13045 0.460899 0)
(1.59348 0.847818 0)
(1.44162 0.914815 0)
(1.42639 0.929798 0)
(1.4501 0.92201 0)
(1.50134 0.896995 0)
(3 2.03202e-09 0)
(3 1.35366e-08 0)
(3 4.44581e-08 0)
(3 1.31223e-07 0)
(3 3.27864e-07 0)
(3 8.53181e-07 0)
(3 2.04112e-06 0)
(2.99999 5.12941e-06 0)
(2.99998 1.22595e-05 0)
(2.99994 3.02571e-05 0)
(2.99986 7.31815e-05 0)
(2.99967 0.000177905 0)
(2.99918 0.000435474 0)
(2.99805 0.00104844 0)
(2.99518 0.00260162 0)
(2.98835 0.0062507 0)
(2.97104 0.0157074 0)
(2.92682 0.0391513 0)
(2.80707 0.104343 0)
(2.46165 0.296843 0)
(1.84314 0.727916 0)
(1.52856 0.898691 0)
(1.47219 0.929658 0)
(1.47625 0.936096 0)
(1.51536 0.918108 0)
(3 1.39649e-09 0)
(3 8.81941e-09 0)
(3 3.04997e-08 0)
(3 8.54312e-08 0)
(3 2.24022e-07 0)
(3 5.59449e-07 0)
(3 1.37854e-06 0)
(2.99999 3.39675e-06 0)
(2.99998 8.15725e-06 0)
(2.99996 2.02448e-05 0)
(2.99991 4.80036e-05 0)
(2.99979 0.000120028 0)
(2.99948 0.000282428 0)
(2.99875 0.000709801 0)
(2.99692 0.00167033 0)
(2.99258 0.00421015 0)
(2.98161 0.0100513 0)
(2.9544 0.0254757 0)
(2.88216 0.0647718 0)
(2.67964 0.177734 0)
(2.15502 0.498477 0)
(1.6672 0.862424 0)
(1.52671 0.930895 0)
(1.50925 0.945829 0)
(1.52855 0.938048 0)
(3 9.59616e-10 0)
(3 5.74231e-09 0)
(3 2.05349e-08 0)
(3 5.57228e-08 0)
(3 1.50315e-07 0)
(3 3.65301e-07 0)
(3 9.2465e-07 0)
(3 2.20963e-06 0)
(2.99999 5.46788e-06 0)
(2.99998 1.3152e-05 0)
(2.99994 3.20453e-05 0)
(2.99986 7.79692e-05 0)
(2.99968 0.000187435 0)
(2.9992 0.000461475 0)
(2.9981 0.00109964 0)
(2.99532 0.00273511 0)
(2.98873 0.00653348 0)
(2.9721 0.016426 0)
(2.92981 0.0407473 0)
(2.81625 0.108257 0)
(2.49009 0.307322 0)
(1.91418 0.730465 0)
(1.61355 0.90884 0)
(1.5541 0.942556 0)
(1.55344 0.949531 0)
(3 5.96566e-10 0)
(3 3.86129e-09 0)
(3 1.28968e-08 0)
(3 3.74401e-08 0)
(3 9.46241e-08 0)
(3 2.42721e-07 0)
(3 5.86335e-07 0)
(3 1.45001e-06 0)
(2.99999 3.50738e-06 0)
(2.99999 8.50281e-06 0)
(2.99996 2.07533e-05 0)
(2.99992 4.96504e-05 0)
(2.9998 0.000122728 0)
(2.99951 0.00028992 0)
(2.99881 0.000723452 0)
(2.9971 0.00170258 0)
(2.99301 0.00427367 0)
(2.9828 0.0101849 0)
(2.95744 0.0256981 0)
(2.89087 0.0649399 0)
(2.70499 0.177269 0)
(2.22498 0.490086 0)
(1.75566 0.86492 0)
(1.60834 0.940186 0)
(1.58587 0.955908 0)
(3 3.74699e-10 0)
(3 2.47513e-09 0)
(3 8.19375e-09 0)
(3 2.3981e-08 0)
(3 6.01473e-08 0)
(3 1.55712e-07 0)
(3 3.70648e-07 0)
(3 9.30668e-07 0)
(3 2.20529e-06 0)
(2.99999 5.45511e-06 0)
(2.99998 1.30172e-05 0)
(2.99995 3.1789e-05 0)
(2.99988 7.67794e-05 0)
(2.9997 0.000185172 0)
(2.99928 0.000451786 0)
(2.99828 0.00108122 0)
(2.99579 0.00266716 0)
(2.9899 0.00638011 0)
(2.97512 0.0159189 0)
(2.93815 0.0393593 0)
(2.83986 0.103723 0)
(2.56004 0.291746 0)
(2.01631 0.701381 0)
(1.70262 0.903942 0)
(1.63385 0.946292 0)
(3 2.43207e-10 0)
(3 1.5125e-09 0)
(3 5.27221e-09 0)
(3 1.46097e-08 0)
(3 3.85046e-08 0)
(3 9.50492e-08 0)
(3 2.35155e-07 0)
(3 5.71854e-07 0)
(3 1.37897e-06 0)
(2.99999 3.36958e-06 0)
(2.99999 8.01568e-06 0)
(2.99997 1.97554e-05 0)
(2.99992 4.65283e-05 0)
(2.99982 0.000115199 0)
(2.99956 0.000270835 0)
(2.99895 0.000669997 0)
(2.99742 0.00158042 0)
(2.99383 0.00390302 0)
(2.98482 0.00934205 0)
(2.96275 0.0231881 0)
(2.9051 0.0581951 0)
(2.74715 0.155743 0)
(2.32672 0.429063 0)
(1.85585 0.826605 0)
(1.68904 0.930025 0)
(3 1.5423e-10 0)
(3 9.36535e-10 0)
(3 3.31705e-09 0)
(3 9.04941e-09 0)
(3 2.41872e-08 0)
(3 5.8819e-08 0)
(3 1.47588e-07 0)
(3 3.53235e-07 0)
(3 8.64434e-07 0)
(3 2.08371e-06 0)
(2.99999 5.01212e-06 0)
(2.99998 1.22397e-05 0)
(2.99996 2.90038e-05 0)
(2.99989 7.16712e-05 0)
(2.99974 0.000168284 0)
(2.99937 0.000418452 0)
(2.99849 0.000980713 0)
(2.99637 0.00244294 0)
(2.99116 0.00577758 0)
(2.97853 0.0144452 0)
(2.94667 0.0352884 0)
(2.86305 0.0922052 0)
(2.62695 0.25401 0)
(2.12588 0.640706 0)
(1.79238 0.890097 0)
(3 9.33343e-11 0)
(3 5.81048e-10 0)
(3 1.99593e-09 0)
(3 5.61638e-09 0)
(3 1.45855e-08 0)
(3 3.61952e-08 0)
(3 8.96425e-08 0)
(3 2.14342e-07 0)
(3 5.29014e-07 0)
(3 1.24913e-06 0)
(3 3.08358e-06 0)
(2.99999 7.25321e-06 0)
(2.99997 1.78944e-05 0)
(2.99994 4.21557e-05 0)
(2.99985 0.000103488 0)
(2.99962 0.00024551 0)
(2.99911 0.000597124 0)
(2.99782 0.00143243 0)
(2.99481 0.0034614 0)
(2.98727 0.00840537 0)
(2.969 0.0205537 0)
(2.92183 0.0514317 0)
(2.79492 0.135655 0)
(2.44813 0.376425 0)
(1.97943 0.777368 0)
(3 5.51494e-11 0)
(3 3.57107e-10 0)
(3 1.19788e-09 0)
(3 3.44765e-09 0)
(3 8.76664e-09 0)
(3 2.2235e-08 0)
(3 5.36707e-08 0)
(3 1.32021e-07 0)
(3 3.16361e-07 0)
(3 7.68271e-07 0)
(3 1.84633e-06 0)
(2.99999 4.44739e-06 0)
(2.99998 1.07698e-05 0)
(2.99996 2.57109e-05 0)
(2.99991 6.26598e-05 0)
(2.99978 0.000148939 0)
(2.99948 0.000364571 0)
(2.99875 0.000864156 0)
(2.99697 0.00212306 0)
(2.99275 0.0050624 0)
(2.98226 0.012504 0)
(2.95645 0.0305683 0)
(2.88926 0.0783434 0)
(2.70172 0.212869 0)
(2.26473 0.554581 0)
(3 3.40585e-11 0)
(3 2.09087e-10 0)
(3 7.329e-10 0)
(3 2.0157e-09 0)
(3 5.33873e-09 0)
(3 1.30321e-08 0)
(3 3.25194e-08 0)
(3 7.77366e-08 0)
(3 1.89818e-07 0)
(3 4.54347e-07 0)
(3 1.09666e-06 0)
(3 2.64617e-06 0)
(2.99999 6.31578e-06 0)
(2.99998 1.53696e-05 0)
(2.99995 3.63793e-05 0)
(2.99988 8.91322e-05 0)
(2.99971 0.000210053 0)
(2.99929 0.000515479 0)
(2.99831 0.00121521 0)
(2.99591 0.00299264 0)
(2.9902 0.00709884 0)
(2.97612 0.0176107 0)
(2.94115 0.0431728 0)
(2.84882 0.112929 0)
(2.59304 0.311862 0)
(3 1.96192e-11 0)
(3 1.26394e-10 0)
(3 4.23386e-10 0)
(3 1.21877e-09 0)
(3 3.08412e-09 0)
(3 7.8185e-09 0)
(3 1.88775e-08 0)
(3 4.6046e-08 0)
(3 1.10828e-07 0)
(3 2.65412e-07 0)
(3 6.44636e-07 0)
(3 1.52282e-06 0)
(2.99999 3.72752e-06 0)
(2.99999 8.73677e-06 0)
(2.99997 2.15004e-05 0)
(2.99993 5.01732e-05 0)
(2.99983 0.000123393 0)
(2.99959 0.000288913 0)
(2.99903 0.000706682 0)
(2.99765 0.00166487 0)
(2.99442 0.00405744 0)
(2.98636 0.00967851 0)
(2.96688 0.0237907 0)
(2.91684 0.0589398 0)
(2.78153 0.156264 0)
(3 1.14945e-11 0)
(3 7.31235e-11 0)
(3 2.499e-10 0)
(3 7.05523e-10 0)
(3 1.81581e-09 0)
(3 4.55564e-09 0)
(3 1.09971e-08 0)
(3 2.69951e-08 0)
(3 6.40039e-08 0)
(3 1.56711e-07 0)
(3 3.69093e-07 0)
(3 9.02965e-07 0)
(3 2.12748e-06 0)
(2.99999 5.18652e-06 0)
(2.99998 1.22718e-05 0)
(2.99996 2.97207e-05 0)
(2.9999 7.08376e-05 0)
(2.99977 0.000170098 0)
(2.99945 0.000409718 0)
(2.99871 0.000974264 0)
(2.99687 0.00237222 0)
(2.99253 0.00563936 0)
(2.98183 0.0138635 0)
(2.95557 0.0337778 0)
(2.88753 0.0862826 0)
(3 6.82608e-12 0)
(3 4.11875e-11 0)
(3 1.4587e-10 0)
(3 3.96928e-10 0)
(3 1.05842e-09 0)
(3 2.56227e-09 0)
(3 6.40159e-09 0)
(3 1.51679e-08 0)
(3 3.70976e-08 0)
(3 8.81688e-08 0)
(3 2.12377e-07 0)
(3 5.0925e-07 0)
(3 1.21273e-06 0)
(3 2.93872e-06 0)
(2.99999 6.91314e-06 0)
(2.99998 1.69034e-05 0)
(2.99995 3.95355e-05 0)
(2.99987 9.69469e-05 0)
(2.9997 0.000226258 0)
(2.99928 0.000555012 0)
(2.9983 0.0013009 0)
(2.99592 0.00318099 0)
(2.99027 0.00754395 0)
(2.97636 0.018534 0)
(2.94208 0.0454241 0)
(3 3.74395e-12 0)
(3 2.4122e-11 0)
(3 8.06513e-11 0)
(3 2.32168e-10 0)
(3 5.8541e-10 0)
(3 1.4838e-09 0)
(3 3.55519e-09 0)
(3 8.70255e-09 0)
(3 2.07436e-08 0)
(3 4.9846e-08 0)
(3 1.19595e-07 0)
(3 2.84047e-07 0)
(3 6.87548e-07 0)
(3 1.61475e-06 0)
(2.99999 3.93892e-06 0)
(2.99999 9.19263e-06 0)
(2.99997 2.24983e-05 0)
(2.99993 5.23812e-05 0)
(2.99983 0.000127976 0)
(2.9996 0.000299197 0)
(2.99906 0.000726054 0)
(2.99773 0.00171013 0)
(2.99461 0.0041345 0)
(2.98694 0.00985572 0)
(2.9684 0.0240175 0)
(3 2.09808e-12 0)
(3 1.35211e-11 0)
(3 4.53051e-11 0)
(3 1.29701e-10 0)
(3 3.28497e-10 0)
(3 8.2989e-10 0)
(3 1.9854e-09 0)
(3 4.87083e-09 0)
(3 1.15057e-08 0)
(3 2.79243e-08 0)
(3 6.60393e-08 0)
(3 1.58984e-07 0)
(3 3.77898e-07 0)
(3 9.03048e-07 0)
(3 2.16296e-06 0)
(2.99999 5.12274e-06 0)
(2.99998 1.2352e-05 0)
(2.99996 2.91197e-05 0)
(2.99991 7.04483e-05 0)
(2.99978 0.000165633 0)
(2.99948 0.00040119 0)
(2.99876 0.000945275 0)
(2.99705 0.00228842 0)
(2.9929 0.00542823 0)
(2.98296 0.0132287 0)
(3 1.17047e-12 0)
(3 7.17536e-12 0)
(3 2.51536e-11 0)
(3 6.88623e-11 0)
(3 1.815e-10 0)
(3 4.41963e-10 0)
(3 1.08792e-09 0)
(3 2.59383e-09 0)
(3 6.24241e-09 0)
(3 1.49053e-08 0)
(3 3.53455e-08 0)
(3 8.50407e-08 0)
(3 1.99554e-07 0)
(3 4.83709e-07 0)
(3 1.12655e-06 0)
(3 2.74032e-06 0)
(2.99999 6.36948e-06 0)
(2.99998 1.54886e-05 0)
(2.99995 3.6022e-05 0)
(2.99988 8.72751e-05 0)
(2.99971 0.000204302 0)
(2.9993 0.000490555 0)
(2.99834 0.00115943 0)
(2.99605 0.00276716 0)
(2.99052 0.00661924 0)
(3 5.78044e-13 0)
(3 3.82255e-12 0)
(3 1.27897e-11 0)
(3 3.66835e-11 0)
(3 9.24789e-11 0)
(3 2.3215e-10 0)
(3 5.54222e-10 0)
(3 1.342e-09 0)
(3 3.16801e-09 0)
(3 7.57159e-09 0)
(3 1.78995e-08 0)
(3 4.22499e-08 0)
(3 1.00558e-07 0)
(3 2.34911e-07 0)
(3 5.62483e-07 0)
(3 1.30283e-06 0)
(2.99999 3.12861e-06 0)
(2.99999 7.20951e-06 0)
(2.99997 1.73125e-05 0)
(2.99992 3.97678e-05 0)
(2.99982 9.52084e-05 0)
(2.99955 0.000218454 0)
(2.99894 0.000520138 0)
(2.99745 0.00119501 0)
(2.9939 0.00283048 0)
(3 2.79793e-13 0)
(3 1.89622e-12 0)
(3 6.25003e-12 0)
(3 1.82117e-11 0)
(3 4.48454e-11 0)
(3 1.14325e-10 0)
(3 2.65938e-10 0)
(3 6.52044e-10 0)
(3 1.50058e-09 0)
(3 3.61108e-09 0)
(3 8.34956e-09 0)
(3 1.96816e-08 0)
(3 4.62049e-08 0)
(3 1.06446e-07 0)
(3 2.53641e-07 0)
(3 5.71389e-07 0)
(3 1.38444e-06 0)
(2.99999 3.046e-06 0)
(2.99998 7.44602e-06 0)
(2.99994 1.61689e-05 0)
(2.99986 3.9518e-05 0)
(2.99966 8.48889e-05 0)
(2.99915 0.00020543 0)
(2.99797 0.000442296 0)
(2.99498 0.0010424 0)
(3 1.48282e-13 0)
(3 8.9486e-13 0)
(3 2.99966e-12 0)
(3 8.46087e-12 0)
(3 2.14021e-11 0)
(3 5.28178e-11 0)
(3 1.26021e-10 0)
(3 2.97108e-10 0)
(3 6.99571e-10 0)
(3 1.61817e-09 0)
(3 3.81214e-09 0)
(3 8.70686e-09 0)
(3 2.04711e-08 0)
(3 4.65352e-08 0)
(3 1.08862e-07 0)
(3 2.46097e-07 0)
(3 5.7311e-07 0)
(2.99999 1.29523e-06 0)
(2.99998 2.98064e-06 0)
(2.99995 6.70214e-06 0)
(2.99987 1.53163e-05 0)
(2.99969 3.43656e-05 0)
(2.99924 7.72608e-05 0)
(2.99814 0.000172657 0)
(2.99542 0.000382923 0)
(3 5.57158e-14 0)
(3 4.1789e-13 0)
(3 1.40079e-12 0)
(3 3.76902e-12 0)
(3 9.81821e-12 0)
(3 2.33092e-11 0)
(3 5.50996e-11 0)
(3 1.33174e-10 0)
(3 2.90673e-10 0)
(3 7.36704e-10 0)
(3 1.49786e-09 0)
(3 4.01179e-09 0)
(3 7.64854e-09 0)
(3 2.14372e-08 0)
(3 3.90511e-08 0)
(3 1.11839e-07 0)
(3 1.99073e-07 0)
(2.99999 5.71021e-07 0)
(2.99998 1.02319e-06 0)
(2.99995 2.79762e-06 0)
(2.99988 5.29656e-06 0)
(2.99971 1.33325e-05 0)
(2.99927 2.76771e-05 0)
(2.99823 6.01033e-05 0)
(2.99554 0.00014679 0)
(3 3.23891e-14 0)
(3 1.5046e-13 0)
(3 6.35004e-13 0)
(3 1.37352e-12 0)
(3 4.41994e-12 0)
(3 8.58585e-12 0)
(3 2.54337e-11 0)
(3 4.7777e-11 0)
(3 1.35694e-10 0)
(3 2.60537e-10 0)
(3 6.92488e-10 0)
(3 1.4325e-09 0)
(3 3.34207e-09 0)
(3 7.89165e-09 0)
(3 1.56963e-08 0)
(3 4.31189e-08 0)
(3 6.9445e-08 0)
(2.99999 2.31672e-07 0)
(2.99998 2.97448e-07 0)
(2.99995 1.22055e-06 0)
(2.99988 1.19657e-06 0)
(2.99971 6.43632e-06 0)
(2.99928 4.49988e-06 0)
(2.99824 3.24196e-05 0)
(2.9956 1.96667e-05 0)
(3 2.25812e-14 0)
(3 6.3887e-14 0)
(3 2.28343e-13 0)
(3 4.167e-13 0)
(3 1.94951e-12 0)
(3 2.79764e-12 0)
(3 1.17513e-11 0)
(3 1.32859e-11 0)
(3 6.92693e-11 0)
(3 5.39633e-11 0)
(3 3.88167e-10 0)
(3 2.35778e-10 0)
(3 2.00617e-09 0)
(3 1.07685e-09 0)
(3 9.67231e-09 0)
(3 6.39878e-09 0)
(3 4.16314e-08 0)
(2.99999 4.28227e-08 0)
(2.99998 1.52984e-07 0)
(2.99995 3.5981e-07 0)
(2.99988 2.92254e-07 0)
(2.99971 2.7607e-06 0)
(2.99929 -9.79265e-07 0)
(2.99824 2.03548e-05 0)
(2.99564 -1.68741e-05 0)
(3 -3.51969e-15 0)
(3 3.75136e-14 0)
(3 9.1629e-14 0)
(3 1.32541e-13 0)
(3 6.25445e-13 0)
(3 7.53101e-13 0)
(3 3.48929e-12 0)
(3 1.79246e-12 0)
(3 2.44703e-11 0)
(3 -7.5649e-12 0)
(3 1.58523e-10 0)
(3 -1.20959e-10 0)
(3 9.82529e-10 0)
(3 -9.6027e-10 0)
(3 5.3441e-09 0)
(3 -5.36504e-09 0)
(3 2.58897e-08 0)
(2.99999 -2.14754e-08 0)
(2.99998 1.0541e-07 0)
(2.99995 -1.80689e-08 0)
(2.99988 2.29221e-07 0)
(2.99971 5.99004e-07 0)
(2.9993 -6.51739e-07 0)
(2.99823 7.61588e-06 0)
(2.99568 -1.30393e-05 0)
(1.27775 1.08149 0)
(1.6891 0.881428 0)
(1.87116 0.617192 0)
(1.89528 0.355488 0)
(1.84099 0.1372 0)
(1.73601 -0.00869429 0)
(1.61535 -0.0463889 0)
(1.52091 -0.00472989 0)
(1.42604 0.053895 0)
(1.2562 0.100874 0)
(0.884028 0.132705 0)
(0.457709 0.163749 0)
(0.170643 0.159415 0)
(0.0157335 0.129173 0)
(-0.205223 0.100621 0)
(-0.369586 0.0585691 0)
(-0.513162 0.0230414 0)
(-0.632159 0.00136314 0)
(-0.709371 -0.00795677 0)
(-0.756165 -0.00317354 0)
(-0.792962 0.00524523 0)
(-0.830401 0.0115413 0)
(-0.869613 0.0140194 0)
(-0.907953 0.0119645 0)
(-0.944772 0.00764735 0)
(-0.976947 0.00510086 0)
(-0.998317 0.00320466 0)
(-1.00964 0.00110128 0)
(-1.01271 -0.00102718 0)
(-0.999819 -0.00329265 0)
(-0.963328 -0.00739683 0)
(-0.905072 -0.0129417 0)
(-0.829331 -0.0184747 0)
(-0.741469 -0.0237604 0)
(-0.649258 -0.0271079 0)
(-0.557506 -0.0291349 0)
(-0.468762 -0.0309562 0)
(-0.383714 -0.0328563 0)
(-0.300748 -0.0357588 0)
(-0.22274 -0.0365374 0)
(-0.148455 -0.0367704 0)
(-0.0780291 -0.0384938 0)
(-0.00769434 -0.0408139 0)
(0.0635146 -0.0352552 0)
(0.122957 -0.0315174 0)
(0.181202 -0.0297463 0)
(0.235859 -0.0283158 0)
(0.286927 -0.0267621 0)
(0.334339 -0.0251819 0)
(0.380657 -0.024272 0)
(0.428255 -0.0242757 0)
(0.47481 -0.0234176 0)
(0.519007 -0.022318 0)
(0.561149 -0.0212113 0)
(0.601777 -0.0202485 0)
(0.641029 -0.0193367 0)
(0.679061 -0.0184894 0)
(0.715913 -0.0176456 0)
(0.751691 -0.0168472 0)
(0.786428 -0.0160514 0)
(0.820216 -0.0153059 0)
(0.853072 -0.0145691 0)
(0.885074 -0.0138819 0)
(0.916234 -0.013207 0)
(0.946619 -0.0125774 0)
(0.976235 -0.0119627 0)
(1.00514 -0.0113882 0)
(1.03333 -0.0108282 0)
(1.06086 -0.0102987 0)
(1.08774 -0.00977792 0)
(1.11401 -0.00928075 0)
(1.13969 -0.00878993 0)
(1.16482 -0.00831888 0)
(1.1894 -0.00785318 0)
(1.21349 -0.0074045 0)
(1.23707 -0.00696153 0)
(1.26018 -0.00653433 0)
(1.28282 -0.0061145 0)
(1.305 -0.00571093 0)
(1.32672 -0.00531727 0)
(1.34801 -0.00494146 0)
(1.36885 -0.00457787 0)
(1.38926 -0.00423347 0)
(1.40924 -0.00390347 0)
(1.4288 -0.00359332 0)
(1.44795 -0.00329909 0)
(1.4667 -0.00302523 0)
(1.48505 -0.00276833 0)
(1.50299 -0.00253513 0)
(1.52052 -0.00232639 0)
(1.53762 -0.00214454 0)
(1.55426 -0.00198912 0)
(1.57039 -0.00186297 0)
(1.58592 -0.0017653 0)
(1.60074 -0.00169525 0)
(1.61464 -0.00164887 0)
(1.62727 -0.00161361 0)
(1.63818 -0.00157843 0)
(1.64605 -0.00145565 0)
(1.65337 -0.00148137 0)
(1.37162 0.992703 0)
(1.68476 0.71001 0)
(1.85778 0.397349 0)
(1.94087 0.131219 0)
(1.98688 -0.058763 0)
(2.00737 -0.157634 0)
(2.00464 -0.165404 0)
(1.9799 -0.116464 0)
(1.90893 -0.0470093 0)
(1.73671 0.0341732 0)
(1.41985 0.125599 0)
(1.05701 0.227921 0)
(0.794564 0.244365 0)
(0.637293 0.226955 0)
(0.490396 0.218455 0)
(0.355674 0.201484 0)
(0.240379 0.175304 0)
(0.116463 0.146724 0)
(-0.0205177 0.109764 0)