/*--------------------------------*- C++ -*----------------------------------*\
  =========                 |
  \\      /  F ield         | OpenFOAM: The Open Source CFD Toolbox
   \\    /   O peration     | Website:  https://openfoam.org
    \\  /    A nd           | Version:  10
     \\/     M anipulation  |
\*---------------------------------------------------------------------------*/
FoamFile
{
    format      ascii;
    class       surfaceScalarField;
    location    "2";
    object      phi;
}
// * * * * * * * * * * * * * * * * * * * * * * * * * * * * * * * * * * * * * //

dimensions      [1 0 -1 0 0 0 0];

internalField   nonuniform List<scalar> 
10325
(
0.00840003
8.13032e-11
0.00840003
5.77117e-11
0.00840003
1.49679e-09
0.0084
6.51989e-10
0.00840003
1.05962e-08
0.00839995
5.40965e-09
0.00839972
6.49526e-08
0.00840007
4.19334e-08
0.00839796
3.48406e-07
0.00840007
4.44789e-07
0.00839426
1.72267e-06
0.00839102
3.91982e-06
0.00837353
1.25538e-05
0.00832545
4.2716e-05
0.0080922
0.000199708
0.0074166
0.000644709
0.00675088
0.000661383
0.00608917
0.000662955
0.00540078
0.000690727
0.00466185
0.000738744
0.00385631
0.000802354
0.00298821
0.000868683
0.00205773
0.00092891
0.00106147
0.000991354
0.00105432
0.00840003
7.13691e-11
0.00840002
4.81176e-10
0.00840008
1.54337e-09
0.00839992
4.68724e-09
0.00840027
1.16886e-08
0.00839945
3.08865e-08
0.00840127
7.2409e-08
0.00839712
1.94628e-07
0.00840456
4.53416e-07
0.00839021
1.21103e-06
0.00840772
3.00558e-06
0.00837761
8.34206e-06
0.0083829
2.49282e-05
0.00832252
8.55333e-05
0.00809863
0.000393722
0.00742367
0.00128807
0.00675668
0.00132374
0.00609876
0.00132227
0.00541558
0.00137647
0.00467038
0.00148398
0.00385271
0.00161689
0.00297324
0.00174876
0.00202895
0.00187163
0.00102773
0.00198765
0.00207489
0.00840003
5.57961e-11
0.00840002
8.94472e-10
0.00840007
1.46708e-09
0.00839993
8.89772e-09
0.00840025
1.15014e-08
0.0083995
5.61496e-08
0.00840108
8.5644e-08
0.00839754
3.20569e-07
0.00840346
6.32763e-07
0.00839193
1.78566e-06
0.00840543
4.49175e-06
0.00838054
1.19724e-05
0.00838304
3.6597e-05
0.0083295
0.000123729
0.00813038
0.000563468
0.00747294
0.00191277
0.00679206
0.00199917
0.00613399
0.00198203
0.00546127
0.00205238
0.00471911
0.00222633
0.00389696
0.00243582
0.00300966
0.00263714
0.00205174
0.00282846
0.00103636
0.0029982
0.00310415
0.00840003
2.44492e-10
0.00840004
5.25472e-10
0.0084
4.47909e-09
0.00840009
5.16501e-09
0.00839982
3.1934e-08
0.00840051
3.95599e-08
0.00839859
1.87385e-07
0.0084031
2.87033e-07
0.00839272
1.04847e-06
0.00841115
2.07806e-06
0.00837999
5.94735e-06
0.00840849
1.54114e-05
0.00836735
4.61175e-05
0.00834274
0.000156834
0.00817447
0.000698687
0.0075427
0.00251005
0.00684203
0.00269287
0.00619434
0.00263216
0.00554282
0.00270735
0.00480968
0.00296046
0.00399
0.00325323
0.00309692
0.00353098
0.00212561
0.00379724
0.0010802
0.00403817
0.00417806
0.00840003
1.27004e-10
0.00840001
1.36747e-09
0.00840008
2.98853e-09
0.00839991
1.27875e-08
0.00840031
2.38411e-08
0.00839939
7.71495e-08
0.00840146
1.71677e-07
0.00839682
4.34555e-07
0.00840592
1.17226e-06
0.00838829
2.49282e-06
0.0084117
7.41246e-06
0.00837683
1.77365e-05
0.00839164
5.54127e-05
0.00834563
0.000182456
0.00821859
0.000801542
0.00760425
0.00308706
0.00688003
0.00340728
0.00627826
0.00323802
0.00565448
0.0033357
0.00493173
0.0036841
0.00411984
0.00406164
0.00322437
0.00442656
0.00223545
0.00478438
0.00115142
0.00511679
0.00531999
0.00840003
2.68063e-10
0.00840004
9.9578e-10
0.00839999
5.2603e-09
0.00840012
1.0166e-08
0.00839983
3.66675e-08
0.00840047
7.48234e-08
0.00839907
2.15003e-07
0.00840163
4.98208e-07
0.00839605
1.23594e-06
0.00840462
3.27565e-06
0.00838836
7.67954e-06
0.00840282
2.18064e-05
0.00837505
6.16998e-05
0.00835214
0.000207868
0.00824669
0.000880913
0.00760557
0.00368793
0.00701293
0.00398447
0.00640574
0.00385447
0.00577403
0.00397453
0.00508739
0.00437009
0.00429528
0.00485091
0.00340611
0.00531474
0.00239588
0.00579446
0.00125403
0.00625602
0.0065656
0.00840003
1.45919e-10
0.00840002
1.75196e-09
0.00840006
3.82533e-09
0.00839995
1.71261e-08
0.00840024
2.97564e-08
0.00839944
1.10279e-07
0.00840142
1.93173e-07
0.00839676
6.65625e-07
0.00840708
1.25401e-06
0.00838588
3.89306e-06
0.00841675
8.6173e-06
0.00837281
2.46627e-05
0.00839671
6.94581e-05
0.00834823
0.000230675
0.00827099
0.000940301
0.00768898
0.00422146
0.00718985
0.00448195
0.00659686
0.00445288
0.00591539
0.00465908
0.00526152
0.00502507
0.0045102
0.00559747
0.0036447
0.00618058
0.00262953
0.00680976
0.00142187
0.00746083
0.00798283
0.00840003
3.28861e-10
0.00840003
1.36673e-09
0.00840002
6.41344e-09
0.00840003
1.33079e-08
0.00839994
4.748e-08
0.00840022
8.71948e-08
0.00839913
3.05205e-07
0.00840185
5.34384e-07
0.00839491
1.8548e-06
0.00840781
3.46612e-06
0.0083842
1.08883e-05
0.00840804
2.54892e-05
0.0083722
7.72249e-05
0.00836899
0.000247438
0.00829986
0.000978657
0.00783988
0.00462877
0.00727639
0.00504832
0.00673627
0.00499708
0.00613763
0.0052607
0.00550009
0.00566583
0.00480051
0.00629551
0.00396371
0.00702078
0.0029568
0.00781762
0.00169549
0.00871889
0.00967163
0.00840003
2.34931e-10
0.00840003
1.92235e-09
0.00840002
5.46618e-09
0.00840003
1.88617e-08
0.00840003
4.00889e-08
0.00839989
1.26981e-07
0.00840028
2.458e-07
0.00839857
7.9879e-07
0.00840239
1.50728e-06
0.00839278
4.84393e-06
0.0084069
1.01126e-05
0.00838341
2.99547e-05
0.00839396
8.03903e-05
0.00835709
0.000263883
0.00832376
0.00100057
0.00801332
0.00487826
0.00745383
0.00561379
0.00693071
0.0055265
0.00639291
0.00579975
0.00581604
0.0062431
0.00517201
0.00693622
0.00441665
0.00777571
0.00349472
0.00874001
0.00216967
0.010039
0.0118346
0.00840003
3.32898e-10
0.00840003
1.70594e-09
0.00840004
6.78656e-09
0.0084
1.65879e-08
0.00840004
5.10586e-08
0.0084
1.08488e-07
0.00839976
3.30211e-07
0.0084005
6.62225e-07
0.0083975
2.04668e-06
0.00840308
4.16926e-06
0.00839131
1.24318e-05
0.00840177
2.92694e-05
0.00838232
8.65854e-05
0.00837983
0.000269085
0.00835674
0.00100021
0.00830635
0.00486374
0.00773772
0.00619182
0.00719441
0.006077
0.00672298
0.00627358
0.0062008
0.00676721
0.00567304
0.00746459
0.0050867
0.00836304
0.00426016
0.00956785
0.00300711
0.0112897
0.0148333
0.00840003
2.44182e-10
0.00840003
1.98511e-09
0.00840002
5.69498e-09
0.00840003
1.94445e-08
0.00840002
4.25228e-08
0.00839996
1.29925e-07
0.00840019
2.67484e-07
0.0083991
8.13428e-07
0.00840172
1.67394e-06
0.008395
4.99465e-06
0.00840626
1.1023e-05
0.00838857
3.13585e-05
0.00840321
8.32596e-05
0.00839032
0.000263097
0.00843815
0.000944691
0.00882629
0.00440394
0.00821799
0.00681204
0.00757818
0.00672643
0.0071232
0.00673189
0.00671924
0.00717345
0.0063254
0.00785988
0.00590477
0.0087846
0.00553517
0.00993899
0.00556229
0.0112635
0.0116374
0.00875535
0.00840003
2.99299e-10
0.00840003
1.46807e-09
0.00840003
6.13056e-09
0.00840004
1.43815e-08
0.00839999
4.56495e-08
0.00840017
9.62448e-08
0.00839956
2.90142e-07
0.0084014
6.05711e-07
0.0083969
1.77419e-06
0.00840804
3.83952e-06
0.00838776
1.08486e-05
0.00842264
2.58139e-05
0.00839459
7.33565e-05
0.00846394
0.000216816
0.0086231
0.000755406
0.00970511
0.00325175
0.0089988
0.00752756
0.00818031
0.0075535
0.00769136
0.00722544
0.00728792
0.00757979
0.00694882
0.00820067
0.00671986
0.00901418
0.00669952
0.00996003
0.00718822
0.0107762
0.0105814
0.00824524
0.00840003
1.9528e-10
0.00840003
1.46986e-09
0.00840003
4.48635e-09
0.00840002
1.44204e-08
0.00840007
3.31708e-08
0.00839992
9.66102e-08
0.00840044
2.05732e-07
0.00839905
5.99427e-07
0.00840313
1.25557e-06
0.00839468
3.63716e-06
0.00841505
7.90062e-06
0.00838825
2.21479e-05
0.00844105
5.51363e-05
0.00845663
0.000163699
0.00868866
0.000534744
0.00971277
0.00218715
0.00943863
0.00778365
0.00902102
0.00796279
0.00833641
0.00791398
0.00790995
0.00800832
0.0076349
0.00847679
0.00753653
0.00911338
0.00774805
0.00974885
0.00830099
0.0102215
0.00994418
0.00893677
0.00840003
1.90443e-10
0.00840003
1.25442e-09
0.00840004
4.12841e-09
0.00840001
1.21699e-08
0.00840007
3.10731e-08
0.00839999
7.88825e-08
0.00840004
2.00432e-07
0.00840026
4.74336e-07
0.00839926
1.2423e-06
0.00840237
2.84138e-06
0.00839677
7.65948e-06
0.00840938
1.80662e-05
0.00840275
4.9255e-05
0.00843647
0.000136569
0.00851106
0.000442995
0.00897223
0.00170949
0.00949412
0.00720634
0.00916247
0.00828514
0.0087219
0.00835012
0.00842457
0.00830612
0.00826621
0.00863618
0.00826608
0.00911496
0.00850292
0.00951444
0.00898738
0.00973939
0.00944584
0.00948702
0.00840003
1.76243e-10
0.00840003
1.10016e-09
0.00840002
3.80974e-09
0.00840006
1.07968e-08
0.00839997
2.82739e-08
0.00840021
7.16894e-08
0.00839965
1.78334e-07
0.00840108
4.43253e-07
0.00839805
1.0925e-06
0.0084052
2.73837e-06
0.00839172
6.70104e-06
0.00841588
1.71288e-05
0.00838757
4.39384e-05
0.00843132
0.000123074
0.00845773
0.000384784
0.00874805
0.00141537
0.00956542
0.00632804
0.00937979
0.00846717
0.00911566
0.00861236
0.0088666
0.0085563
0.00878677
0.00871707
0.0088467
0.00905536
0.00906122
0.00929971
0.00945409
0.0093454
0.00902728
0.00987143
0.00840003
1.55697e-10
0.00840003
9.52199e-10
0.00840002
3.35713e-09
0.00840004
9.31149e-09
0.00839999
2.50193e-08
0.00840015
6.23434e-08
0.00839975
1.58558e-07
0.00840091
3.88732e-07
0.00839828
9.78405e-07
0.00840513
2.40198e-06
0.00839177
6.06518e-06
0.00841878
1.51733e-05
0.0083842
3.93018e-05
0.00843997
0.000107362
0.00845672
0.000326612
0.00872546
0.00115232
0.0101248
0.00486261
0.00988771
0.00869746
0.00957447
0.00892246
0.00930041
0.00883312
0.00923048
0.00878894
0.00931529
0.00897294
0.009501
0.00911588
0.00979845
0.00905065
0.00870264
0.0101249
0.00840003
1.23763e-10
0.00840003
7.61711e-10
0.00840003
2.69646e-09
0.00840004
7.4336e-09
0.00840001
1.99811e-08
0.00840012
4.95487e-08
0.00839986
1.24556e-07
0.00840074
3.07069e-07
0.00839892
7.51826e-07
0.00840441
1.87447e-06
0.00839491
4.54317e-06
0.00841985
1.15145e-05
0.00839477
2.85622e-05
0.00846715
7.61501e-05
0.00853224
0.000217562
0.00898704
0.000712589
0.0109944
0.00281817
0.0106278
0.00903664
0.0103448
0.00920139
0.00993234
0.00924504
0.00972291
0.00900077
0.00974145
0.00895653
0.00988472
0.00897442
0.0100954
0.00883946
0.00847117
0.010326
0.00840003
1.02801e-10
0.00840003
6.01382e-10
0.00840003
2.20973e-09
0.00840003
5.88996e-09
0.00840003
1.63494e-08
0.00840006
3.91589e-08
0.00839997
1.02098e-07
0.00840037
2.42506e-07
0.00839942
6.12058e-07
0.00840258
1.4825e-06
0.00839654
3.67918e-06
0.00841333
9.09897e-06
0.00839266
2.27743e-05
0.00844307
5.90713e-05
0.00845603
0.000164805
0.00866893
0.000521336
0.00946994
0.00198053
0.0107519
0.00769968
0.01062
0.00932607
0.0103744
0.00948594
0.0101435
0.00923511
0.010099
0.00900361
0.0101927
0.00888074
0.0103409
0.00869086
0.008317
0.0104946
0.00840003
8.31949e-11
0.00840003
4.96795e-10
0.00840003
1.77744e-09
0.00840002
4.86067e-09
0.00840005
1.31671e-08
0.0084
3.23102e-08
0.00840012
8.32359e-08
0.00839999
1.99251e-07
0.00840019
5.10402e-07
0.00840047
1.21435e-06
0.00839987
3.10656e-06
0.00840375
7.52092e-06
0.00840155
1.92256e-05
0.00841745
4.88933e-05
0.00843736
0.000134533
0.00855003
0.000409613
0.00903787
0.0014706
0.0107728
0.00590377
0.0108602
0.00923838
0.0107274
0.00961894
0.0104882
0.00947786
0.0104218
0.00907456
0.0104693
0.00883721
0.0105676
0.00859473
0.00822101
0.0106639
0.00840003
6.01433e-11
0.00840003
4.03805e-10
0.00840003
1.30615e-09
0.00840002
3.92813e-09
0.00840005
9.75566e-09
0.0084
2.55465e-08
0.00840016
6.26312e-08
0.0083999
1.54175e-07
0.00840066
3.89664e-07
0.0083996
9.16323e-07
0.00840252
2.40547e-06
0.00840013
5.52751e-06
0.00841039
1.47967e-05
0.00841289
3.5335e-05
0.00845979
9.69987e-05
0.00857609
0.000275621
0.00911694
0.000920494
0.0114118
0.00353398
0.0113832
0.00925972
0.0113055
0.00970475
0.0110707
0.00971985
0.0108211
0.009329
0.0107575
0.00890465
0.0107906
0.00856443
0.00817492
0.0108379
0.00840003
4.68996e-11
0.00840003
2.95052e-10
0.00840003
1.02139e-09
0.00840004
2.89908e-09
0.00840002
7.55154e-09
0.00840006
1.92242e-08
0.00840001
4.72241e-08
0.00840017
1.18019e-07
0.00840006
2.85318e-07
0.00840036
7.13459e-07
0.00840113
1.71902e-06
0.00840077
4.30145e-06
0.00840799
1.04876e-05
0.00841007
2.65433e-05
0.00844451
6.79535e-05
0.00851934
0.000189495
0.00884949
0.000591564
0.0101537
0.00220055
0.0116084
0.00776473
0.0116145
0.00969814
0.0114321
0.00990382
0.0111777
0.00958555
0.0110626
0.00902149
0.0110265
0.00859983
0.00817945
0.0110224
0.00840003
3.50247e-11
0.00840003
2.26452e-10
0.00840003
7.69469e-10
0.00840004
2.21874e-09
0.00840002
5.70727e-09
0.00840006
1.47555e-08
0.00840001
3.56622e-08
0.00840015
9.10155e-08
0.0084
2.16223e-07
0.00840042
5.54179e-07
0.00840047
1.30834e-06
0.0084011
3.36181e-06
0.00840405
8.04818e-06
0.00840731
2.06605e-05
0.00842464
5.18943e-05
0.00846756
0.000141432
0.0086334
0.000422526
0.00932197
0.00149414
0.0115664
0.00546269
0.0118213
0.00943309
0.0118249
0.00989408
0.0116251
0.00978341
0.0113853
0.00926209
0.0112843
0.00870127
0.00823173
0.0112322
0.00840003
2.63308e-11
0.00840003
1.5819e-10
0.00840003
5.66537e-10
0.00840003
1.54697e-09
0.00840003
4.19501e-09
0.00840005
1.02091e-08
0.00840001
2.62561e-08
0.00840016
6.23951e-08
0.00839992
1.58139e-07
0.0084008
3.75945e-07
0.00839962
9.44153e-07
0.00840409
2.26391e-06
0.00839902
5.64954e-06
0.00841916
1.38143e-05
0.00841323
3.48003e-05
0.00849129
9.01213e-05
0.00862725
0.000253391
0.00931946
0.000810936
0.0118353
0.00291536
0.0123394
0.00889589
0.0123119
0.00991147
0.0120697
0.0100191
0.0117265
0.00960564
0.0115614
0.00886793
0.00834717
0.0114476
0.00840003
1.83112e-11
0.00840003
1.16749e-10
0.00840003
4.01157e-10
0.00840003
1.14151e-09
0.00840003
2.96608e-09
0.00840004
7.56367e-09
0.00840002
1.84069e-08
0.0084001
4.63147e-08
0.00840001
1.10521e-07
0.00840032
2.79404e-07
0.00840029
6.59132e-07
0.00840088
1.67966e-06
0.00840271
3.95586e-06
0.00840457
1.01049e-05
0.00841691
2.45076e-05
0.008439
6.33117e-05
0.00852056
0.000170349
0.0088004
0.000520388
0.00983347
0.00186581
0.0121729
0.00649371
0.0124568
0.00961618
0.0124519
0.0100145
0.0121329
0.00992159
0.0118737
0.00913024
0.00852917
0.0116931
0.00840003
1.32165e-11
0.00840003
7.9952e-11
0.00840003
2.851e-10
0.00840003
7.81846e-10
0.00840003
2.10706e-09
0.00840004
5.15949e-09
0.00840002
1.31492e-08
0.00840009
3.147e-08
0.00839998
7.92381e-08
0.00840041
1.88825e-07
0.00839983
4.7377e-07
0.00840211
1.13219e-06
0.00839941
2.83252e-06
0.00840964
6.85276e-06
0.00840349
1.71348e-05
0.0084426
4.29157e-05
0.00846973
0.000112495
0.00868806
0.000321592
0.00946263
0.00106077
0.0121574
0.00373084
0.0127185
0.00903488
0.0127992
0.00993278
0.0126588
0.0100605
0.0122476
0.00954601
0.0087989
0.0119828
0.00840003
8.8351e-12
0.00840003
5.64413e-11
0.00840003
1.94238e-10
0.00840003
5.50098e-10
0.00840003
1.43592e-09
0.00840004
3.61918e-09
0.00840003
8.92148e-09
0.00840007
2.21456e-08
0.00840002
5.33416e-08
0.00840023
1.33057e-07
0.00840009
3.16946e-07
0.00840077
7.95652e-07
0.0084012
1.88934e-06
0.00840306
4.75229e-06
0.00840903
1.1423e-05
0.00842038
2.8888e-05
0.00846015
7.27831e-05
0.00857604
0.000199383
0.0090274
0.000606415
0.0105952
0.00213652
0.0127071
0.00687328
0.0129336
0.00970201
0.0130031
0.00998902
0.0126267
0.00992396
0.00911201
0.0123227
0.00840003
6.24133e-12
0.00840003
3.72225e-11
0.00840003
1.34972e-10
0.00840003
3.65061e-10
0.00840003
9.9253e-10
0.00840003
2.41559e-09
0.00840003
6.12667e-09
0.00840006
1.4808e-08
0.00840001
3.65093e-08
0.0084002
8.91397e-08
0.00839996
2.15857e-07
0.00840099
5.35964e-07
0.00839988
1.27541e-06
0.00840491
3.21832e-06
0.00840101
7.62287e-06
0.00842303
1.94894e-05
0.00842599
4.76374e-05
0.00852082
0.00012685
0.00873583
0.000360715
0.00966439
0.00120602
0.0124325
0.00403294
0.0131247
0.00899002
0.0132455
0.00986898
0.0131089
0.0100623
0.0095204
0.0127054
0.00840003
4.11214e-12
0.00840003
2.51815e-11
0.00840003
8.77827e-11
0.00840003
2.46062e-10
0.00840003
6.50881e-10
0.00840003
1.6027e-09
0.00840003
4.09313e-09
0.00840004
9.59755e-09
0.00840004
2.47509e-08
0.00840011
5.68793e-08
0.00840001
1.477e-07
0.00840068
3.37505e-07
0.00839976
8.74009e-07
0.00840428
2.02046e-06
0.00839887
5.17107e-06
0.00842292
1.2228e-05
0.00840696
3.1204e-05
0.00849923
7.79032e-05
0.00859378
0.000213212
0.00917463
0.000648341
0.0109589
0.00221326
0.0131195
0.00678193
0.0133145
0.00966842
0.0134854
0.00988827
0.00986621
0.0131419
0.00840003
2.54724e-12
0.00840003
1.67894e-11
0.00840003
5.65087e-11
0.00840003
1.63764e-10
0.00840003
4.18095e-10
0.00840003
1.07196e-09
0.00840003
2.59343e-09
0.00840004
6.50102e-09
0.00840004
1.54849e-08
0.00840005
3.87251e-08
0.00840014
9.1892e-08
0.00840008
2.28841e-07
0.00840088
5.47424e-07
0.00840005
1.34888e-06
0.00840559
3.26497e-06
0.00840084
8.0125e-06
0.00842986
1.9731e-05
0.00842608
4.92506e-05
0.00854759
0.000128303
0.008784
0.000364965
0.00980697
0.00119799
0.0126439
0.00386952
0.0135154
0.00877611
0.0136563
0.00974804
0.0100122
0.0135121
0.00840003
1.6863e-12
0.00840003
1.06331e-11
0.00840003
3.70864e-11
0.00840003
1.03748e-10
0.00840003
2.73569e-10
0.00840003
6.82588e-10
0.00840003
1.68247e-09
0.00840004
4.16431e-09
0.00840003
9.95322e-09
0.00840007
2.49047e-08
0.00840006
5.85726e-08
0.00840017
1.48151e-07
0.00840037
3.44827e-07
0.00840049
8.76242e-07
0.00840285
2.04627e-06
0.00840159
5.18002e-06
0.00841778
1.22982e-05
0.00841782
3.11177e-05
0.00849123
7.75425e-05
0.00861515
0.00020986
0.00919416
0.000630598
0.0109249
0.00210794
0.0133633
0.00628754
0.0136298
0.00947315
0.00974228
0.0139007
0.00840003
1.10237e-12
0.00840003
6.54057e-12
0.00840003
2.37521e-11
0.00840003
6.39858e-11
0.00840003
1.74427e-10
0.00840003
4.18915e-10
0.00840003
1.07674e-09
0.00840003
2.53335e-09
0.00840003
6.3865e-09
0.00840006
1.5078e-08
0.00840003
3.73441e-08
0.00840021
8.96813e-08
0.00840003
2.17977e-07
0.00840108
5.31773e-07
0.00840025
1.27229e-06
0.00840569
3.15897e-06
0.00840275
7.48143e-06
0.00842819
1.88931e-05
0.00843602
4.57265e-05
0.00855172
0.000119948
0.0088137
0.000331655
0.00985889
0.00106544
0.0127306
0.00333954
0.0138571
0.00832476
0.00965874
0.0139405
0.00840003
6.59594e-13
0.00840003
4.22783e-12
0.00840003
1.43009e-11
0.00840003
4.12986e-11
0.00840003
1.05438e-10
0.00840003
2.67585e-10
0.00840003
6.59544e-10
0.00840003
1.59273e-09
0.00840004
3.96788e-09
0.00840004
9.31373e-09
0.00840005
2.36015e-08
0.00840009
5.45595e-08
0.00840011
1.39007e-07
0.00840051
3.21418e-07
0.00840025
8.16838e-07
0.00840336
1.90215e-06
0.00840098
4.79517e-06
0.00841985
1.14061e-05
0.0084126
2.862e-05
0.00849721
7.11686e-05
0.00858664
0.000189427
0.00913309
0.000558251
0.010579
0.00184243
0.0134204
0.00543223
0.00909089
0.0139765
0.00840003
3.90216e-13
0.00840003
2.58736e-12
0.00840003
8.68188e-12
0.00840003
2.52576e-11
0.00840003
6.39383e-11
0.00840003
1.64981e-10
0.00840003
3.92694e-10
0.00840003
9.90796e-10
0.00840003
2.32536e-09
0.00840003
5.82363e-09
0.00840005
1.37086e-08
0.00840004
3.38267e-08
0.0084002
8.09203e-08
0.00840006
1.96394e-07
0.008401
4.75508e-07
0.00840037
1.14146e-06
0.00840552
2.7968e-06
0.00840309
6.66654e-06
0.00842815
1.65559e-05
0.00843537
4.00545e-05
0.00855078
0.000103117
0.00879199
0.00027825
0.00978613
0.000861269
0.0125431
0.00264546
0.00749607
0.0141018
0.00840003
2.46746e-13
0.00840003
1.53355e-12
0.00840003
5.4038e-12
0.00840003
1.49982e-11
0.00840003
3.96118e-11
0.00840003
9.83135e-11
0.00840003
2.41935e-10
0.00840003
5.9467e-10
0.00840003
1.41821e-09
0.00840004
3.52156e-09
0.00840004
8.26012e-09
0.00840005
2.07253e-08
0.00840009
4.80847e-08
0.0084001
1.21211e-07
0.0084005
2.81715e-07
0.00840023
7.04102e-07
0.00840321
1.65998e-06
0.00840093
4.08718e-06
0.00841889
9.84914e-06
0.00841056
2.41549e-05
0.00849149
6.01786e-05
0.00855656
0.000155945
0.00901666
0.000446693
0.0101678
0.00144269
0.00432673
0.013275
0.00840003
1.51734e-13
0.00840003
9.10821e-13
0.00840003
3.27605e-12
0.00840003
8.88399e-12
0.00840003
2.40713e-11
0.00840003
5.77888e-11
0.00840003
1.47908e-10
0.00840003
3.46257e-10
0.00840003
8.71636e-10
0.00840003
2.04208e-09
0.00840003
5.06302e-09
0.00840006
1.20333e-08
0.00840004
2.92963e-08
0.00840017
7.08127e-08
0.0084001
1.69371e-07
0.00840075
4.16184e-07
0.00840072
9.81261e-07
0.00840319
2.44405e-06
0.00840595
5.7187e-06
0.00841592
1.44179e-05
0.00843968
3.42874e-05
0.00850799
8.82493e-05
0.00871432
0.000231482
0.0094539
0.000694797
0.00217543
0.0115847
0.00840003
8.56542e-14
0.00840003
5.50107e-13
0.00840003
1.86376e-12
0.00840003
5.36535e-12
0.00840003
1.37022e-11
0.00840003
3.4629e-11
0.00840003
8.46902e-11
0.00840003
2.05088e-10
0.00840003
5.02856e-10
0.00840003
1.19114e-09
0.00840003
2.94867e-09
0.00840004
6.8985e-09
0.00840005
1.71995e-08
0.00840009
3.99825e-08
0.0084001
9.98099e-08
0.00840045
2.32649e-07
0.00840029
5.7617e-07
0.00840283
1.36008e-06
0.0084013
3.32271e-06
0.00841678
7.98354e-06
0.00841144
1.94295e-05
0.0084858
4.79857e-05
0.00853923
0.000121583
0.00894838
0.000335008
0.0010386
0.0100305
0.00840003
4.80422e-14
0.00840003
3.23412e-13
0.00840003
1.07236e-12
0.00840003
3.15973e-12
0.00840003
7.86337e-12
0.00840003
2.05147e-11
0.00840003
4.80199e-11
0.00840003
1.22378e-10
0.00840003
2.82666e-10
0.00840003
7.12491e-10
0.00840003
1.65335e-09
0.00840003
4.11032e-09
0.00840005
9.68136e-09
0.00840004
2.36231e-08
0.00840014
5.67786e-08
0.00840011
1.35519e-07
0.00840056
3.32331e-07
0.00840079
7.79589e-07
0.00840224
1.94236e-06
0.00840603
4.50816e-06
0.00841063
1.13797e-05
0.00843848
2.66976e-05
0.00847553
6.84939e-05
0.00865284
0.000173719
0.000504773
0.00915289
0.00840003
2.98695e-14
0.00840003
1.77157e-13
0.00840003
6.44683e-13
0.00840003
1.72716e-12
0.00840003
4.71664e-12
0.00840003
1.12295e-11
0.00840003
2.87049e-11
0.00840003
6.72092e-11
0.00840003
1.67265e-10
0.00840003
3.95037e-10
0.00840003
9.62899e-10
0.00840003
2.31481e-09
0.00840003
5.52453e-09
0.00840005
1.35138e-08
0.00840006
3.17117e-08
0.00840013
7.8753e-08
0.00840027
1.82508e-07
0.00840046
4.55966e-07
0.00840178
1.05692e-06
0.00840188
2.63505e-06
0.00841137
6.15478e-06
0.00841173
1.53123e-05
0.0084629
3.66925e-05
0.00850978
9.3023e-05
0.000244321
0.00880074
0.00840003
1.62526e-14
0.00840003
1.03238e-13
0.00840003
3.51903e-13
0.00840003
1.00576e-12
0.00840003
2.57575e-12
0.00840003
6.47501e-12
0.00840003
1.58043e-11
0.00840003
3.81758e-11
0.00840003
9.31339e-11
0.00840003
2.20503e-10
0.00840003
5.41301e-10
0.00840003
1.26957e-09
0.00840003
3.12907e-09
0.00840004
7.30768e-09
0.00840004
1.80316e-08
0.00840011
4.22084e-08
0.00840009
1.03097e-07
0.00840055
2.44872e-07
0.00840035
5.89122e-07
0.00840308
1.41611e-06
0.00840228
3.37741e-06
0.00841696
8.21546e-06
0.00841705
1.9603e-05
0.00848792
4.86961e-05
0.00012157
0.00856475
0.00840003
8.79142e-15
0.00840003
5.82269e-14
0.00840003
1.94217e-13
0.00840003
5.67033e-13
0.00840003
1.42524e-12
0.00840003
3.65696e-12
0.00840003
8.70193e-12
0.00840003
2.16158e-11
0.00840003
5.09995e-11
0.00840003
1.24627e-10
0.00840003
2.96563e-10
0.00840003
7.13036e-10
0.00840003
1.72099e-09
0.00840003
4.07854e-09
0.00840005
9.94048e-09
0.00840005
2.33541e-08
0.0084001
5.74494e-08
0.00840023
1.33626e-07
0.00840032
3.30674e-07
0.00840145
7.69662e-07
0.00840128
1.89184e-06
0.00840912
4.46714e-06
0.0084073
1.0867e-05
0.00845101
2.62877e-05
6.47576e-05
0.00846524
0.00840003
4.80071e-15
0.00840003
3.16654e-14
0.00840003
1.083e-13
0.00840003
3.08652e-13
0.00840003
7.92467e-13
0.00840003
1.99726e-12
0.00840003
4.80864e-12
0.00840003
1.18678e-11
0.00840003
2.79342e-11
0.00840003
6.89414e-11
0.00840003
1.60849e-10
0.00840003
3.97002e-10
0.00840003
9.27074e-10
0.00840003
2.26874e-09
0.00840004
5.36001e-09
0.00840004
1.29518e-08
0.0084001
3.09244e-08
0.00840008
7.3955e-08
0.00840039
1.78608e-07
0.0084004
4.22202e-07
0.00840175
1.03194e-06
0.00840295
2.41572e-06
0.00840785
5.97424e-06
0.00842005
1.39929e-05
3.50016e-05
0.00844646
0.00840003
2.83316e-15
0.00840003
1.66315e-14
0.00840003
6.04892e-14
0.00840003
1.63932e-13
0.00840003
4.39103e-13
0.00840003
1.06563e-12
0.00840003
2.65288e-12
0.00840003
6.33272e-12
0.00840003
1.53506e-11
0.00840003
3.67982e-11
0.00840003
8.78029e-11
0.00840003
2.12584e-10
0.00840003
5.00619e-10
0.00840003
1.22422e-09
0.00840003
2.85672e-09
0.00840004
7.00427e-09
0.00840006
1.63516e-08
0.00840007
3.99849e-08
0.00840023
9.36232e-08
0.00840019
2.27373e-07
0.00840125
5.37266e-07
0.00840096
1.29063e-06
0.00840701
3.08523e-06
0.00840631
7.35533e-06
1.7835e-05
0.00843786
0.00840003
1.40987e-15
0.00840003
9.23212e-15
0.00840003
3.2121e-14
0.00840003
8.95074e-14
0.00840003
2.35755e-13
0.00840003
5.72964e-13
0.00840003
1.43918e-12
0.00840003
3.35874e-12
0.00840003
8.37249e-12
0.00840003
1.93562e-11
0.00840003
4.79689e-11
0.00840003
1.11184e-10
0.00840003
2.7268e-10
0.00840003
6.40084e-10
0.00840003
1.54294e-09
0.00840004
3.68785e-09
0.00840004
8.71804e-09
0.00840007
2.1178e-08
0.0084001
4.92825e-08
0.00840019
1.21266e-07
0.00840052
2.79297e-07
0.00840069
6.90813e-07
0.00840335
1.59132e-06
0.00840321
3.91679e-06
9.14456e-06
0.00842027
0.00840003
8.3077e-16
0.00840003
5.01153e-15
0.00840003
1.67189e-14
0.00840003
4.89497e-14
0.00840003
1.22127e-13
0.00840003
3.13938e-13
0.00840003
7.39101e-13
0.00840003
1.84782e-12
0.00840003
4.28577e-12
0.00840003
1.06067e-11
0.00840003
2.46378e-11
0.00840003
6.03286e-11
0.00840003
1.41556e-10
0.00840003
3.41647e-10
0.00840003
8.12184e-10
0.00840003
1.93303e-09
0.00840004
4.65407e-09
0.00840005
1.09211e-08
0.00840006
2.66219e-08
0.00840016
6.19178e-08
0.00840014
1.51277e-07
0.00840083
3.52283e-07
0.00840067
8.5873e-07
0.00840455
2.00748e-06
4.87743e-06
0.00840422
0.00840003
3.953e-16
0.00840003
2.72284e-15
0.00840003
8.75992e-15
0.00840003
2.53689e-14
0.00840003
6.48534e-14
0.00840003
1.61934e-13
0.00840003
3.94267e-13
0.00840003
9.48644e-13
0.00840003
2.29068e-12
0.00840003
5.43051e-12
0.00840003
1.31451e-11
0.00840003
3.08827e-11
0.00840003
7.50745e-11
0.00840003
1.75589e-10
0.00840003
4.27306e-10
0.00840003
9.98277e-10
0.00840003
2.42881e-09
0.00840004
5.68215e-09
0.00840004
1.37657e-08
0.0084001
3.23663e-08
0.00840011
7.79039e-08
0.00840036
1.84685e-07
0.00840063
4.3986e-07
0.00840158
1.05436e-06
2.48982e-06
0.00840417
0.00840003
2.02285e-16
0.00840003
1.10431e-15
0.00840003
4.56173e-15
0.00840003
1.24007e-14
0.00840003
3.39454e-14
0.00840003
8.26628e-14
0.00840003
2.07122e-13
0.00840003
4.86729e-13
0.00840003
1.19537e-12
0.00840003
2.80302e-12
0.00840003
6.78584e-12
0.00840003
1.6049e-11
0.00840003
3.8376e-11
0.00840003
9.1742e-11
0.00840003
2.16668e-10
0.00840003
5.22692e-10
0.00840003
1.22468e-09
0.00840004
2.97585e-09
0.00840004
6.91854e-09
0.00840005
1.68725e-08
0.0084001
3.92196e-08
0.00840014
9.54142e-08
0.0084005
2.22422e-07
0.00840054
5.37627e-07
1.26403e-06
0.00840293
0.00840003
5.34512e-17
0.00840003
6.3003e-16
0.00840003
2.2169e-15
0.00840003
6.37392e-15
0.00840003
1.68898e-14
0.00840003
4.1858e-14
0.00840003
1.03699e-13
0.00840003
2.47235e-13
0.00840003
6.018e-13
0.00840003
1.4119e-12
0.00840003
3.44763e-12
0.00840003
7.97439e-12
0.00840003
1.96263e-11
0.00840003
4.51283e-11
0.00840003
1.11005e-10
0.00840003
2.56131e-10
0.00840003
6.24524e-10
0.00840003
1.45502e-09
0.00840003
3.50555e-09
0.00840005
8.27608e-09
0.00840005
1.95936e-08
0.00840013
4.69861e-08
0.00840019
1.09541e-07
0.0084005
2.65906e-07
6.13037e-07
0.00840112
0.00840003
2.27682e-17
0.00840003
3.53477e-16
0.00840003
1.27242e-15
0.00840003
3.42532e-15
0.00840003
8.72712e-15
0.00840003
2.09159e-14
0.00840003
4.95383e-14
0.00840003
1.228e-13
0.00840003
2.8303e-13
0.00840003
6.98593e-13
0.00840003
1.61245e-12
0.00840003
3.94984e-12
0.00840003
9.15386e-12
0.00840003
2.2197e-11
0.00840003
5.20907e-11
0.00840003
1.2424e-10
0.00840003
2.9619e-10
0.00840003
6.94644e-10
0.00840003
1.67611e-09
0.00840004
3.88722e-09
0.00840005
9.46228e-09
0.00840007
2.17112e-08
0.0084001
5.3175e-08
0.00840032
1.21801e-07
2.9617e-07
0.00840037
0.00840003
4.96836e-17
0.00840003
2.18738e-16
0.00840003
6.03982e-16
0.00840003
1.68889e-15
0.00840003
3.70423e-15
0.00840003
9.16877e-15
0.00840003
2.0615e-14
0.00840003
4.88983e-14
0.00840003
1.15706e-13
0.00840003
2.74046e-13
0.00840003
6.52203e-13
0.00840003
1.54197e-12
0.00840003
3.67424e-12
0.00840003
8.68681e-12
0.00840003
2.05894e-11
0.00840003
4.88613e-11
0.00840003
1.15055e-10
0.00840003
2.74902e-10
0.00840003
6.39717e-10
0.00840003
1.54074e-09
0.00840004
3.55746e-09
0.00840004
8.59319e-09
0.0084001
1.978e-08
0.00840011
4.7718e-08
1.09726e-07
0.00840042
0.00840003
0.00840003
0.00840003
0.00840003
0.00840003
0.00840003
0.00840003
0.00840003
0.00840003
0.00840003
0.00840003
0.00840003
0.00840003
0.00840003
0.00840003
0.00840003
0.00840003
0.00840003
0.00840003
0.00840003
0.00840004
0.00840004
0.00840007
0.0084001
0.0084002
0.00472584
0.00402765
0.00312726
0.00159802
0.00244691
0.000680224
0.00217617
0.000270434
0.00216254
1.34267e-05
0.00235439
-0.000192425
0.00256862
-0.000215158
0.00268883
-0.0001215
0.00273058
-4.29379e-05
0.00272628
3.17374e-06
0.00270402
2.12172e-05
0.00269195
1.10799e-05
0.00268978
1.20252e-06
0.00269892
-9.90499e-06
0.00271106
-1.33758e-05
0.00272213
-1.19788e-05
0.00273088
-9.74861e-06
0.00273731
-7.29495e-06
0.00274178
-5.29468e-06
0.00274534
-4.33129e-06
0.00274997
-5.13792e-06
0.00275666
-6.81823e-06
0.00276482
-7.94597e-06
0.00277365
-8.33125e-06
0.00278274
-8.40577e-06
0.0027919
-8.43212e-06
0.00280099
-8.50763e-06
0.00280986
-8.616e-06
0.00281845
-8.71062e-06
0.00282669
-8.75494e-06
0.00283455
-8.74263e-06
0.0028419
-8.68331e-06
0.00284873
-8.59093e-06
0.00285489
-8.48501e-06
0.00286027
-8.3666e-06
0.00286495
-8.24477e-06
0.00286881
-8.08124e-06
0.00286988
-7.98977e-06
0.00287063
-8.11939e-06
0.00287057
-8.40762e-06
0.0028665
-8.73501e-06
0.00285655
-8.8465e-06
0.00283502
-8.05895e-06
0.00278625
-4.97465e-06
0.00266379
1.00036e-05
0.00232103
7.97028e-05
0.00134529
0.000389233
0.000570564
0.000500949
0.000582401
6.87196e-05
0.00106547
-0.000458631
0.00160512
-0.000559668
0.00209669
-0.000518168
0.00254987
-0.000465872
0.00296034
-0.00041535
0.00331567
-0.000358267
0.00361368
-0.000297873
0.00386795
-0.000254858
0.00410227
-0.000229754
0.00430886
-0.000201322
0.00448997
-0.000179019
0.00465022
-0.000160343
0.00479243
-0.000143372
0.00492007
-0.000128441
0.00503402
-0.000115294
0.00513645
-0.00010399
0.00522822
-9.41103e-05
0.00530995
-8.54198e-05
0.00538258