/*--------------------------------*- C++ -*----------------------------------*\
  =========                 |
  \\      /  F ield         | OpenFOAM: The Open Source CFD Toolbox
   \\    /   O peration     | Website:  https://openfoam.org
    \\  /    A nd           | Version:  10
     \\/     M anipulation  |
\*---------------------------------------------------------------------------*/
FoamFile
{
    format      ascii;
    class       volScalarField;
    location    "2";
    object      T;
}
// * * * * * * * * * * * * * * * * * * * * * * * * * * * * * * * * * * * * * //

dimensions      [0 0 0 1 0 0 0];

internalField   nonuniform List<scalar> 
5250
(
1
1.00001
1.00003
1.00008
1.00017
1.00049
1.00107
1.00293
1.00674
1.01761
1.04316
1.11353
1.30308
1.80528
2.5734
2.78122
2.75064
2.73811
2.75138
2.76679
2.78563
2.79474
2.80235
2.81342
2.84803
1
1.00001
1.00003
1.00008
1.00017
1.0005
1.00101
1.00303
1.00638
1.01791
1.04203
1.11302
1.29915
1.79733
2.56715
2.77926
2.74949
2.73717
2.75039
2.76563
2.78434
2.79343
2.80104
2.81213
2.84669
1
1.00001
1.00003
1.00008
1.00016
1.00049
1.00099
1.00295
1.00628
1.01747
1.04119
1.11036
1.29222
1.77998
2.55309
2.77454
2.7467
2.73479
2.74766
2.76241
2.78107
2.79008
2.79709
2.80849
2.8432
1
1.00001
1.00003
1.00007
1.00018
1.00043
1.00109
1.00255
1.00675
1.01574
1.04153
1.1047
1.28338
1.75394
2.53114
2.76683
2.74241
2.73114
2.74336
2.75726
2.77487
2.78322
2.79049
2.80093
2.8352
1
1.00001
1.00003
1.00007
1.00016
1.00045
1.00094
1.00273
1.0058
1.01632
1.03785
1.10205
1.26866
1.72133
2.50031
2.75577
2.73646
2.72676
2.7379
2.74975
2.76706
2.77611
2.78378
2.79384
2.82562
1
1.00001
1.00003
1.00006
1.00017
1.00035
1.00107
1.00216
1.00635
1.01393
1.03798
1.09392
1.255
1.6814
2.45971
2.73994
2.73062
2.72246
2.73067
2.74065
2.75671
2.76396
2.76968
2.78028
2.81457
1
1.00001
1.00002
1.00006
1.00014
1.00038
1.00085
1.00238
1.00516
1.01449
1.03327
1.08994
1.23527
1.63573
2.40595
2.71853
2.72235
2.71724
2.72093
2.73009
2.74443
2.75358
2.75506
2.76055
2.79276
1
1.00001
1.00002
1.00006
1.00013
1.00035
1.00083
1.00204
1.00516
1.01244
1.03202
1.08074
1.2166
1.57975
2.33411
2.69081
2.71491
2.70991
2.71009
2.71672
2.72853
2.73339
2.73593
2.73772
2.76017
1
1.00001
1.00002
1.00005
1.00013
1.00029
1.00078
1.00181
1.00465
1.0114
1.02855
1.07315
1.19358
1.52175
2.24175
2.65527
2.70697
2.69978
2.69614
2.70065
2.7096
2.71121
2.7076
2.70323
2.7122
1
1.00001
1.00002
1.00005
1.0001
1.00029
1.00063
1.0017
1.00397
1.0102
1.02506
1.06438
1.16935
1.45641
2.12625
2.60807
2.69778
2.68903
2.68221
2.68422
2.68877
2.68641
2.675
2.64919
2.61517
1
1.00001
1.00002
1.00003
1.0001
1.00022
1.0006
1.00137
1.00356
1.0086
1.02165
1.05475
1.14345
1.38655
1.98195
2.54771
2.68228
2.67048
2.66103
2.66119
2.66089
2.65301
2.62952
2.57424
2.47325
1
1
1.00001
1.00003
1.00008
1.0002
1.00048
1.00117
1.00296
1.00702
1.01836
1.04441
1.11776
1.31214
1.81057
2.46903
2.6583
2.64882
2.63811
2.63646
2.63267
2.61801
2.58247
2.50587
2.38086
1
1
1.00001
1.00002
1.00007
1.00016
1.0004
1.00098
1.00236
1.00608
1.0143
1.03745
1.09344
1.2507
1.65754
2.37234
2.62246
2.6203
2.61356
2.60561
2.59869
2.57912
2.53836
2.45561
2.34477
1
1
1.00001
1.00002
1.00005
1.00014
1.0003
1.00085
1.00191
1.00504
1.01198
1.03061
1.07733
1.20514
1.54679
2.25284
2.57639
2.60005
2.5918
2.5817
2.5684
2.54465
2.50524
2.42562
2.32173
1
1
1.00001
1.00002
1.00005
1.0001
1.00028
1.00062
1.00175
1.00373
1.01052
1.02377
1.06406
1.1639
1.44283
2.08231
2.50691
2.58117
2.57196
2.55902
2.54106
2.50981
2.47535
2.40833
2.31324
1
1
1.00001
1.00001
1.00004
1.00009
1.00022
1.0005
1.00136
1.00298
1.00831
1.01868
1.05045
1.12662
1.34301
1.87614
2.4128
2.55667
2.55277
2.53753
2.52024
2.48465
2.44656
2.3926
2.31066
1
1
1
1.00001
1.00003
1.00007
1.00017
1.00039
1.00104
1.00227
1.00631
1.01396
1.03782
1.09222
1.2472
1.64264
2.28618
2.50995
2.52112
2.50799
2.49119
2.46199
2.42024
2.37183
2.30492
1
1
1
1.00001
1.00002
1.00005
1.00012
1.00031
1.00076
1.00184
1.00468
1.01103
1.0287
1.07061
1.18797
1.49507
2.14414
2.45687
2.49426
2.48386
2.46496
2.4389
2.40212
2.35593
2.29894
1
1
1
1.00001
1.00001
1.00004
1.00009
1.00025
1.00053
1.00149
1.00333
1.00878
1.02098
1.05404
1.13927
1.37158
1.93097
2.36487
2.46246
2.45818
2.4405
2.41529
2.38186
2.33945
2.2889
1
1
1
1
1.00001
1.00003
1.00006
1.00019
1.00038
1.00113
1.00232
1.0066
1.01472
1.03919
1.097
1.25823
1.6669
2.23775
2.41924
2.42978
2.41763
2.39326
2.36278
2.32447
2.27948
1
1
1
1
1.00001
1.00002
1.00006
1.00011
1.00033
1.00069
1.00191
1.00431
1.01126
1.027
1.06944
1.17931
1.4727
2.0678
2.35786
2.39967
2.39149
2.3698
2.34084
2.30792
2.26844
1
1
1
1
1.00001
1.00001
1.00004
1.00008
1.00024
1.00049
1.00139
1.00303
1.00813
1.01905
1.04932
1.12525
1.3322
1.83461
2.25382
2.36488
2.36684
2.35255
2.32418
2.29186
2.25519
1
1
1
1
1
1.00001
1.00003
1.00006
1.00016
1.00034
1.00097
1.00198
1.00579
1.01228
1.03371
1.08052
1.21348
1.55232
2.10169
2.30592
2.33449
2.32718
2.30676
2.27597
2.24387
1
1
1
1
1
1.00001
1.00002
1.00004
1.00011
1.00023
1.00066
1.00142
1.00384
1.00879
1.02273
1.0555
1.1446
1.37817
1.90499
2.23154
2.3011
2.30017
2.28581
2.259
2.22824
1
1
1
1
1
1
1.00001
1.00003
1.00007
1.00016
1.00045
1.00092
1.00269
1.00559
1.01567
1.03574
1.09512
1.2425
1.62765
2.1016
2.25573
2.27311
2.26473
2.2439
2.21397
1
1
1
1
1
1
1.00001
1.00002
1.00005
1.0001
1.0003
1.00062
1.00173
1.0038
1.01007
1.02359
1.06076
1.1538
1.40366
1.90984
2.18309
2.23907
2.23866
2.2241
2.20008
1
1
1
1
1
1
1.00001
1.00001
1.00003
1.00007
1.00019
1.0004
1.00116
1.00236
1.00681
1.01468
1.03973
1.09612
1.25387
1.64119
2.06173
2.19683
2.21322
2.20573
2.18588
1
1
1
1
1
1
1
1.00001
1.00002
1.00005
1.00011
1.00027
1.0007
1.00157
1.00424
1.00929
1.02515
1.05863
1.15477
1.39973
1.87661
2.12423
2.1777
2.1804
2.16883
1
1
1
1
1
1
1
1
1.00001
1.00003
1.00007
1.00017
1.00043
1.00105
1.00247
1.0063
1.01463
1.03783
1.09241
1.24157
1.60619
2.00416
2.13595
2.15525
2.14996
1
1
1
1
1
1
1
1
1.00001
1.00002
1.00005
1.0001
1.00028
1.00062
1.00159
1.00377
1.00916
1.02274
1.05579
1.14232
1.37009
1.81391
2.06079
2.11885
2.12492
1
1
1
1
1
1
1
1
1
1.00001
1.00003
1.00006
1.00017
1.00036
1.00102
1.00208
1.00598
1.01264
1.03433
1.08114
1.21248
1.53278
1.93036
2.07497
2.09909
1
1
1
1
1
1
1
1
1
1.00001
1.00002
1.00004
1.00009
1.00024
1.00057
1.00136
1.00341
1.00785
1.0204
1.04782
1.12446
1.31697
1.72747
1.99388
2.06596
1
1
1
1
1
1
1
1
1
1
1.00001
1.00002
1.00006
1.00014
1.00031
1.00086
1.00178
1.00507
1.01061
1.02888
1.06694
1.17419
1.43937
1.84136
2.01204
1
1
1
1
1
1
1
1
1
1
1.00001
1.00001
1.00004
1.00008
1.0002
1.00048
1.00112
1.00288
1.00641
1.01707
1.03887
1.10189
1.25546
1.61617
1.92294
1
1
1
1
1
1
1
1
1
1
1
1.00001
1.00002
1.00004
1.00012
1.00025
1.00072
1.00147
1.00405
1.00891
1.02318
1.05485
1.14042
1.35888
1.74491
1
1
1
1
1
1
1
1
1
1
1
1
1.00001
1.00003
1.00006
1.00016
1.00038
1.00088
1.00224
1.00495
1.01316
1.02948
1.07708
1.18901
1.47339
1
1
1
1
1
1
1
1
1
1
1
1
1.00001
1.00002
1.00003
1.0001
1.00019
1.00054
1.00115
1.00305
1.0069
1.01733
1.04174
1.10422
1.26589
1
1
1
1
1
1
1
1
1
1
1
1
1
1.00001
1.00002
1.00005
1.00012
1.00027
1.00068
1.0016
1.00384
1.00943
1.0222
1.05563
1.13668
1
1
1
1
1
1
1
1
1
1
1
1
1
1
1.00001
1.00003
1.00006
1.00015
1.00038
1.00082
1.00224
1.00462
1.01284
1.02771
1.07326
1
1
1
1
1
1
1
1
1
1
1
1
1
1
1.00001
1.00002
1.00003
1.00009
1.00019
1.00048
1.00115
1.00265
1.00676
1.01516
1.03944
1
1
1
1
1
1
1
1
1
1
1
1
1
1
1
1.00001
1.00002
1.00005
1.0001
1.00027
1.00055
1.00154
1.00326
1.00859
1.01945
1
1
1
1
1
1
1
1
1
1
1
1
1
1
1
1
1.00001
1.00002
1.00005
1.00013
1.0003
1.00079
1.00167
1.00455
1.00951
1
1
1
1
1
1
1
1
1
1
1
1
1
1
1
1
1.00001
1.00001
1.00003
1.00007
1.00017
1.00039
1.00093
1.00226
1.00513
1
1
1
1
1
1
1
1
1
1
1
1
1
1
1
1
1
1.00001
1.00001
1.00004
1.00009
1.00019
1.00051
1.00107
1.00293
1
1
1
1
1
1
1
1
1
1
1
1
1
1
1
1
1
1
1.00001
1.00002
1.00005
1.00009
1.00026
1.00055
1.00144
1
1
1
1
1
1
1
1
1
1
1
1
1
1
1
1
1
1
1
1.00001
1.00002
1.00005
1.00012
1.0003
1.00067
1
1
1
1
1
1
1
1
1
1
1
1
1
1
1
1
1
1
1
1
1.00001
1.00002
1.00007
1.00013
1.00036
1
1
1
1
1
1
1
1
1
1
1
1
1
1
1
1
1
1
1
1
1.00001
1.00001
1.00003
1.00007
1.00017
1
1
1
1
1
1
1
1
1
1
1
1
1
1
1
1
1
1
1
1
1
1.00001
1.00002
1.00004
1.00008
1
1
1
1
1
1
1
1
1
1
1
1
1
1
1
1
1
1
1
1
1
1.00001
1.00001
1.00003
1.00006
2.26397
2.09699
2.04772
2.08039
2.14345
2.21609
2.28546
2.3167
2.3234
2.32151
2.31734
2.31686
2.31781
2.31906
2.32108
2.32267
2.32188
2.32094
2.31965
2.31777
2.31537
2.31262
2.30941
2.30571
2.30154
2.29704
2.29242
2.28787
2.28349
2.27931
2.27533
2.2715
2.26802
2.26466
2.26191
2.25953
2.25765
2.25807
2.25952
2.26284
2.26782
2.27994
2.30671
2.36512
2.49058
2.74235
3.09186
3.36086
3.35326
3.3478
3.32461
3.30016
3.27275
3.24163
3.21669
3.1915
3.16713
3.14597
3.12384
3.10549
3.08526
3.06865
3.05017
3.03437
3.01816
3.00368
2.98875
2.97552
2.96142
2.94841
2.93517
2.92266
2.91008
2.89839
2.88617
2.87542
2.86333
2.85354
2.84153
2.83269
2.82067
2.81269
2.80073
2.79349
2.78162
2.77498
2.76345
2.757
2.74555
2.73897
2.72777
2.72109
2.7102
2.70344
2.69273
2.68611
2.67593
2.67068
2.66355
2.66651
2.24974
2.15908
2.10628
2.071
2.03463
2.00554
1.99796
2.00137
2.01427
2.03339
2.04686
2.05279
2.0521
2.05072
2.04899
2.04829
2.04822
2.04811
2.04794
2.04757
2.04687
2.04551
2.04359
2.0414
2.03921
2.03682
2.03443
2.03165
2.02893
2.02586
2.02289
2.01967
2.01675
2.01326
2.01078
2.00712
2.00506
2.00308
2.00312
2.004
2.00634
2.01377
2.03219
2.07487
2.17066
2.36902
2.69532
3.05544
3.03164
2.97368
2.91309
2.86359
2.8264
2.79998
2.77697
2.7572
2.73949
2.72336
2.7075
2.69225
2.67756
2.66356
2.6501
2.63726
2.62473
2.61244
2.6002
2.58774
2.57573
2.56283
2.55139
2.53815
2.52684
2.51345
2.50183
2.48866
2.47676
2.46404
2.45205
2.43974
2.4278
2.41576
2.40386
2.39217
2.38045
2.36929
2.35797
2.34751
2.33698
2.3274
2.31776
2.30902
2.30024
2.29235
2.28441
2.27752
2.27058
2.26559
2.26145
2.26563
2.24771
2.16089
2.08367
2.00888
1.93845
1.88437
1.85749
1.85597
1.8597
1.87174
1.8863
1.89958
1.90532
1.90841
1.90783
1.9073
1.90645
1.90586
1.9056
1.90545
1.90512
1.90467
1.9037
1.90282
1.90112
1.89994
1.89774
1.8963
1.89384
1.89202
1.88956
1.88726
1.88509
1.88225
1.88035
1.87748
1.87558
1.87449
1.87462
1.8754
1.87795
1.88564
1.90404
1.94416
2.02977
2.16893
2.37536
2.59514
2.68965
2.66954
2.64486
2.61051
2.58237
2.56441
2.55104
2.53966
2.52946
2.51914
2.50861
2.49787
2.48715
2.47588
2.46503
2.4534
2.44313
2.43207
2.42213
2.41136
2.40064
2.39005
2.37852
2.3682
2.35632
2.34595
2.33367
2.32316
2.3105
2.29994
2.28701
2.27647
2.26338
2.25304
2.23988
2.22978
2.21671
2.20692
2.19419
2.1848
2.17258
2.16365
2.152
2.14362
2.13256
2.12489
2.11441
2.10769
2.09792
2.09292
2.08538
2.08728
2.23377
2.15239
2.07251
1.99853
1.93245
1.87903
1.83685
1.8077
1.7906
1.78739
1.78868
1.79496
1.80306
1.81232
1.8161
1.81843
1.81781
1.81699
1.81566
1.81434
1.81361
1.81313
1.81264
1.81202
1.8109
1.80968
1.80792
1.8062
1.80414
1.80198
1.79984
1.79732
1.79495
1.79233
1.78967
1.78717
1.78531
1.7844
1.7846
1.78579
1.79056
1.80295
1.83112
1.894
1.99354
2.12799
2.21472
2.31105
2.40606
2.47733
2.49714
2.48268
2.46898
2.45029
2.43219
2.41886
2.40809
2.39729
2.38813
2.37871
2.37014
2.36059
2.35042
2.34031
2.32942
2.32007
2.30893
2.30018
2.28819
2.27987
2.26777
2.25964
2.24743
2.23913
2.22689
2.21838
2.20618
2.1979
2.18609
2.17815
2.16657
2.1586
2.14706
2.13914
2.12763
2.11991
2.10822
2.10069
2.08869
2.08141
2.06919
2.06229
2.04992
2.04344
2.0311
2.02509
2.0131
2.00806
1.99774
1.99775
2.2232
2.14161
2.06789
2.00053
1.93727
1.88161
1.83168
1.79041
1.75845
1.73792
1.72986
1.73011
1.73175
1.73723
1.74308
1.7496
1.75252
1.75491
1.75462
1.7543
1.75372
1.75248
1.75185
1.7507
1.75008
1.74878
1.74793
1.7462
1.74487
1.74298
1.74108
1.73916
1.73703
1.73492
1.73284
1.73117
1.7303
1.73047
1.73144
1.73538
1.74571
1.76958
1.8234
1.9162
2.0386
2.11137
2.13572
2.16028
2.20418
2.25961
2.31747
2.35961
2.37969
2.37802
2.37143
2.36083
2.34254
2.32987
2.31787
2.30851
2.298
2.2895
2.27929
2.27107
2.2602
2.25216
2.24044
2.23239
2.22046
2.21259
2.20081
2.19324
2.18182
2.17452
2.16349
2.1565
2.14559
2.13869
2.12785
2.12109
2.11037
2.10376
2.0931
2.08657
2.07582
2.06935
2.05822
2.05181
2.04013
2.03379
2.02166
2.01539
2.00302
1.99681
1.98438
1.97829
1.96603
1.96063
1.95008
1.94843
2.22463
2.14485
2.07126
2.00491
1.94431
1.88913
1.84028
1.79764
1.76134
1.73208
1.70881
1.69474
1.68799
1.68803
1.68907
1.69299
1.6974
1.70289
1.70525
1.7072
1.70684
1.70634
1.70512
1.70394
1.70191
1.70095
1.69931
1.69838
1.69681
1.69516
1.6935
1.69144
1.68953
1.68755
1.68592
1.68528
1.68548
1.6864
1.68993
1.69921
1.72078
1.76804
1.86333
1.98239
2.05889
2.08566
2.0831
2.08532
2.09254
2.11081
2.1408
2.18142
2.23438
2.28152
2.30592
2.31073
2.30406
2.29374
2.27754
2.26417
2.25056
2.24067
2.22933
2.22261
2.21288
2.20677
2.19617
2.1885
2.17677
2.16892
2.15709
2.14952
2.13859
2.13185
2.12135
2.11483
2.10443
2.09804
2.08775
2.0815
2.07121
2.06503
2.05468
2.04855
2.03809
2.03203
2.02125
2.01521
2.00388
1.99784
1.98596
1.97987
1.96765
1.96148
1.94908
1.94297
1.9307
1.92495
1.91454
1.91224
2.22731
2.15177
2.0797
2.01436
1.95415
1.90002
1.84994
1.80579
1.76581
1.73249
1.70365
1.68007
1.663
1.65267
1.64891
1.64907
1.64993
1.653
1.65609
1.66013
1.66153
1.66312
1.66281
1.66226
1.66149
1.65982
1.65866
1.6572
1.65583
1.65501
1.65336
1.65234
1.65074
1.6493
1.64893
1.64918
1.65008
1.65336
1.6619
1.68183
1.72566
1.81967
1.93725
2.03005
2.06173
2.05855
2.05135
2.04622
2.03545
2.03347
2.03726
2.05357
2.08469
2.12732
2.17801
2.22591
2.25302
2.26368
2.25853
2.24854
2.231
2.21618
2.20106
2.19104
2.17987
2.17436
2.16578
2.16033
2.14949
2.14187
2.13036
2.12281
2.11135
2.10398
2.09305
2.08649
2.07621
2.07006
2.05984
2.05374
2.04353
2.03769
2.02753
2.02178
2.01137
2.0056
1.99488
1.9892
1.97807
1.97233
1.96076
1.95486
1.94299
1.937
1.92495
1.91895
1.90704
1.901
1.89088
1.88822
2.23099
2.16136
2.09345
2.02982
1.97048
1.91634
1.86654
1.82153
1.78058
1.74338
1.71123
1.68405
1.66154
1.64339
1.63042
1.62268
1.61963
1.61981
1.62051
1.62329
1.62568
1.62956
1.63093
1.63261
1.63229
1.63174
1.63064
1.62862
1.62728
1.62561
1.6243
1.62338
1.62222
1.62232
1.62285
1.62389
1.62715
1.63525
1.65374
1.69471
1.78465
1.90374
2.00804
2.04346
2.04876
2.04376
2.03174
2.01713
1.99835
1.98655
1.9812
1.98201
1.98661
2.00243
2.03116
2.07273
2.12478
2.17579
2.20812
2.22193
2.21688
2.2058
2.18811
2.17101
2.15279
2.14121
2.13132
2.1265
2.1188
2.11377
2.10378
2.09686
2.08575
2.07829
2.06704
2.05988
2.04913
2.04251
2.03209
2.02586
2.01567
2.00973
1.99956
1.99377
1.98347
1.97772
1.96715
1.96149
1.95068
1.94515
1.93408
1.92846
1.91716
1.91148
1.90009
1.89446
1.88313
1.87785
1.86788
1.86591
2.23041
2.16843
2.10577
2.04597
1.98887
1.93605
1.88625
1.84105
1.79926
1.76181
1.7276
1.69741
1.67045
1.64789
1.62922
1.61445
1.60444
1.5986
1.59664
1.59687
1.59743
1.59892
1.60197
1.60327
1.60527
1.60535
1.60543
1.60521
1.60457
1.60328
1.60243
1.6012
1.60136
1.60203
1.6032
1.60641
1.61428
1.63191
1.67069
1.75648
1.87879
1.99253
2.03363
2.04353
2.03445
2.02346
2.00687
1.99084
1.97094
1.95746
1.94323
1.93468
1.93034
1.93128
1.93641
1.95212
1.98177
2.02309
2.07586
2.13085
2.16467
2.17946
2.17454
2.16423
2.14442
2.12764
2.10824
2.09573
2.0844
2.07889
2.07089
2.06621
2.05685
2.0504
2.0397
2.0326
2.02161
2.01457
2.00378
1.99714
1.98672
1.98068
1.97053
1.96472
1.95452
1.94891
1.93863
1.93319
1.92273
1.91743
1.90686
1.90155
1.89087
1.88549
1.8747
1.86936
1.8586
1.85373
1.844
1.84256
2.22709
2.17156
2.11476
2.05896
2.00471
1.95416
1.90639
1.86173
1.82029
1.78186
1.7471
1.71518
1.687
1.66151
1.63961
1.62091
1.60585
1.59393
1.58584
1.58115
1.57929
1.57945
1.57991
1.58114
1.5839
1.58506
1.58741
1.58745
1.5876
1.58741
1.58685
1.58668
1.58704
1.58825
1.59114
1.59838
1.61497
1.65086
1.73166
1.85315
1.97686
2.02455
2.03523
2.02714
2.01513
2.00257
1.98453
1.96658
1.94636
1.93162
1.9156
1.90631
1.89576
1.88823
1.88409
1.88521
1.89092
1.90725
1.93656
1.97794
2.02969
2.08404
2.12218
2.13972
2.13462
2.12413
2.10557
2.08706
2.06693
2.05429
2.04174
2.03549
2.02692
2.02232
2.01323
2.00741
1.99718
1.99059
1.97998
1.97337
1.96263
1.95624
1.94588
1.94008
1.92984
1.92424
1.91399
1.90875
1.89856
1.89348
1.88332
1.87823
1.86801
1.86286
1.85252
1.84739
1.83704
1.83232
1.82288
1.82152
2.22302
2.17284
2.12067
2.07
2.01962
1.97106
1.92505
1.88205
1.84163
1.80387
1.76872
1.73621
1.70651
1.67947
1.65529
1.63367
1.61499
1.59892
1.586
1.57578
1.5689
1.56484
1.56316
1.56328
1.5637
1.56459
1.56667
1.56766
1.56949
1.57016
1.57061
1.57159
1.57265
1.57552
1.58226
1.59762
1.63127
1.70782
1.82611
1.96182
2.01697
2.02799
2.01891
2.0101
1.99617
1.98072
1.96091
1.94299
1.92569
1.91181
1.89645
1.88511
1.87069
1.85978
1.84986
1.84238
1.84077
1.84235
1.84807
1.86344
1.89133
1.92947
1.98038
2.03594
2.07561
2.09948
2.09444
2.08405
2.06716
2.04817
2.02732
2.0143
2.00125
1.99464
1.98558
1.9806
1.97152
1.96618
1.95648
1.95063
1.9404
1.93413
1.92346
1.91748
1.90723
1.90172
1.89141
1.88612
1.87609
1.87108
1.86122
1.8563
1.84648
1.84155
1.83165
1.8267
1.81671
1.81212
1.80293
1.80163
2.21405
2.1708
2.12403
2.0761
2.02962
1.98488
1.94071
1.89891
1.85941
1.82251
1.78789
1.75554
1.72537
1.69742
1.67178
1.6484
1.62741
1.60878
1.59268
1.57902
1.56809
1.55957
1.55393
1.55053
1.54933
1.54949
1.54996
1.55087
1.55294
1.55443
1.55644
1.5582
1.56172
1.56888
1.5839
1.61573
1.68649
1.80235
1.94534
2.0078
2.02117
2.01443
2.00354
1.99248
1.97536
1.95922
1.93986
1.92404
1.90679
1.89322
1.87925
1.86824
1.85228
1.84066
1.82544
1.8154
1.80664
1.80066
1.79911
1.80034
1.80473
1.81791
1.84347
1.87943
1.92843
1.98561
2.02996
2.05801
2.05259
2.04308
2.02752
2.00895
1.98779
1.97464
1.96151
1.95448
1.94461
1.93947
1.9305
1.9257
1.91648
1.91145
1.90153
1.89588
1.88555
1.88017
1.87005
1.86476
1.85472
1.84972
1.84009
1.8353
1.82577
1.82101
1.81147
1.80671
1.7971
1.79265
1.78372
1.78249
2.20615
2.16671
2.12426
2.0819
2.0374
1.99486
1.95431
1.91469
1.87614
1.84014
1.80556
1.77385
1.7434
1.71552
1.68897
1.66473
1.64214
1.62167
1.60326
1.5869
1.57298
1.56112
1.55195
1.5447
1.54018
1.5372
1.5366
1.53683
1.53738
1.53876
1.54162
1.54622
1.55337
1.56813
1.59863
1.66453
1.77793
1.92637
1.99938
2.01645
2.01024
2.00204
1.98865
1.97416
1.9565
1.93989
1.92072
1.90498
1.88885
1.87717
1.8638
1.85057
1.83474
1.8219
1.8057
1.79528
1.78202
1.77356
1.76467
1.75838
1.75453
1.75499
1.75809
1.7696
1.79321
1.82764
1.87444
1.93176
1.98211
2.0138
2.00839
2.00044
1.98672
1.96881
1.94759
1.93467
1.92157
1.91399
1.90387
1.89843
1.88955
1.88501
1.87655
1.87196
1.86259
1.85749
1.84769
1.84272
1.83298
1.82795
1.81833
1.81356
1.80427
1.79968
1.79049
1.78592
1.77672
1.77245
1.76381
1.76284
2.19666
2.15995
2.12268
2.08283
2.04398
2.00357
1.96355
1.92691
1.8907
1.85573
1.82241
1.79051
1.76076
1.73232
1.70622
1.68112
1.65843
1.63668
1.61732
1.59909
1.58323
1.56884
1.5567
1.54662
1.53827
1.53281
1.52826
1.52745
1.52781
1.52903
1.53214
1.53888
1.5527
1.58168
1.64172
1.75453
1.90138
1.98711
2.01081
2.00737
1.99864
1.98834
1.97131
1.95592
1.93745
1.92028
1.90188
1.88751
1.87235
1.86059
1.84566
1.83271
1.81773
1.80379
1.78793
1.77614
1.76147
1.7519
1.73941
1.73051
1.72073
1.71393
1.70888
1.7092
1.71167
1.72207
1.74406
1.77598
1.82063
1.87713
1.93208
1.96874
1.96472
1.95782
1.94635
1.92946
1.90837
1.89568
1.88275
1.87502
1.86448
1.85844
1.84963
1.84544
1.83752
1.83304
1.82402
1.8193
1.81018
1.80556
1.79626
1.79151
1.78225
1.77767
1.76862
1.76417
1.75523
1.75113
1.74276
1.74214
2.18488
2.15381
2.11932
2.08354
2.04579
2.01023
1.97373
1.93601
1.9021
1.86873
1.83637
1.80568
1.77621
1.74793
1.72173
1.69629
1.67334
1.6507
1.63112
1.61118
1.59491
1.57793
1.56486
1.55133
1.54162
1.53216
1.52579
1.52204
1.52233
1.52409
1.52895
1.54054
1.56593
1.61952
1.72952
1.86906
1.97035
2.00223
2.00259
1.99699
1.98388
1.96849
1.95121
1.93565
1.91688
1.90082
1.88318
1.86875
1.85376
1.84186
1.82732
1.81499
1.7988
1.78448
1.76915
1.75658
1.74229
1.73218
1.7185
1.70885
1.69638
1.68681
1.67675
1.67011
1.66493
1.66529
1.66752
1.6765
1.69614
1.72567
1.76807
1.82249
1.88227
1.92315
1.92305
1.91736
1.90727
1.89114
1.87118
1.85876
1.84581
1.83756
1.82664
1.82044
1.81173
1.80763
1.79965
1.79498
1.78645
1.78215
1.77362
1.7692
1.76026
1.75574
1.74682
1.74244
1.73363
1.72962
1.72132
1.72088
2.17099
2.14251
2.11217
2.07969
2.04666
2.01149
1.97812
1.9459
1.91023
1.87943
1.84834
1.81808
1.79006
1.76243
1.73623
1.71131
1.68788
1.66491
1.64511
1.62409
1.60764
1.58919
1.57546
1.55995
1.54869
1.53699
1.52821
1.52343
1.52385
1.52686
1.53542
1.55633
1.60295
1.70393
1.83841
1.95074
1.99042
1.99902
1.99042
1.97702
1.96003
1.94556
1.92837
1.91296
1.89497
1.87918
1.86173
1.84867
1.83466
1.82281
1.8084
1.79545
1.77931
1.76625
1.751
1.73827
1.72452
1.71358
1.70009
1.69049
1.67699
1.66706
1.6548
1.6451
1.6355
1.62924
1.62419
1.62444
1.62641
1.63365
1.64969
1.67731
1.7173
1.76836
1.83287
1.87692
1.88373
1.87772
1.86922
1.8539
1.83616
1.82382
1.81038
1.80187
1.79111
1.78478
1.77606
1.77178
1.76352
1.75885
1.7509
1.74689
1.73879
1.73454
1.72596
1.72168
1.71306
1.70912
1.7009
1.70046
2.15975
2.13194
2.1045
2.07575
2.04445
2.01342
1.98023
1.9489
1.91963
1.88616
1.85765
1.82921
1.79945
1.77502
1.74786
1.72397
1.70142
1.67749
1.65876
1.63636
1.6199
1.60066
1.58545
1.5702
1.55598
1.54529
1.53386
1.5315
1.53303
1.53907
1.55555
1.59443
1.68381
1.81292
1.9326
1.98245
1.99162
1.98347
1.96764
1.95232
1.93433
1.91969
1.90303
1.88828
1.87058
1.85569
1.84022
1.82832
1.81422
1.80265
1.78854
1.77591
1.76088
1.74806
1.73257
1.7205
1.70684
1.69574
1.68306
1.67292
1.65942
1.64965
1.63613
1.62628
1.61466
1.60543
1.59659
1.5903
1.58514
1.58456
1.58593
1.59101
1.60434
1.62955
1.66655
1.71433
1.78274
1.8293
1.84402
1.83839
1.83075
1.81842
1.80252
1.78989
1.77598
1.76767
1.75686
1.75052
1.74192
1.73706
1.72854
1.72419
1.71686
1.71305
1.70527
1.70118
1.69291
1.68913
1.68124
1.68096
2.14579
2.11977
2.09281
2.06694
2.04029
2.0115
1.98225
1.95194
1.92173
1.89563
1.8627
1.83888
1.80994
1.78344
1.76077
1.73336
1.71402
1.68934
1.67008
1.6498
1.62987
1.61373
1.59451
1.58119
1.56465
1.55393
1.54439
1.54473
1.54915
1.56211
1.5949
1.67376
1.79377
1.92163
1.976
1.98639
1.97634
1.96315
1.94485
1.92695
1.90885
1.89411
1.87711
1.86252
1.84627
1.83343
1.81884
1.80677
1.79316
1.78231
1.76868
1.75691
1.74229
1.72926
1.71431
1.70253
1.68866
1.67805
1.66555
1.65512
1.64248
1.63244
1.61897
1.60946
1.5965
1.58729
1.5764
1.56782
1.55953
1.55293
1.54785
1.54581
1.54683
1.55029
1.5613
1.58361
1.61694
1.66275
1.7324
1.78066
1.8048
1.79941
1.7934
1.78475
1.76924
1.75673
1.74298
1.73485
1.7236
1.71767
1.70892
1.70357
1.69506
1.69108
1.68389
1.68019
1.67265
1.66903
1.66144
1.66142
2.13287
2.10901
2.08401
2.05832
2.03284
2.00664
1.9802
1.95274
1.9247
1.89737
1.871
1.84236
1.81939
1.79192
1.76883
1.74564
1.72134
1.70242
1.67884
1.66173
1.64093
1.62386
1.60693
1.5896
1.57733
1.56336
1.56159
1.56463
1.57507
1.60252
1.67024
1.78622
1.91793
1.97739
1.98703
1.97698
1.96042
1.94309
1.92183
1.90374
1.88419
1.86875
1.85272
1.83976
1.82443
1.81114
1.7959
1.78437
1.77172
1.76134
1.74819
1.73655
1.72172
1.70923
1.69508
1.68356
1.67037
1.66025
1.64766
1.6377
1.62551
1.61533
1.60275
1.5931
1.58013
1.57128
1.55922
1.55076
1.54052
1.53233
1.52409
1.517
1.51175
1.50842
1.50904
1.51146
1.52042
1.53983
1.56916
1.61455
1.68108
1.7325
1.76574
1.76274
1.75797
1.75079
1.73583
1.72536
1.7117
1.70281
1.6917
1.68657
1.67717
1.67172
1.66327
1.65952
1.65221
1.64887
1.64172
1.64173
2.11662
2.09829
2.07432
2.05064
2.02671
2.00234
1.97737
1.95163
1.92477
1.90044
1.87311
1.84918
1.82298
1.80022
1.77568
1.75315
1.73157
1.70861
1.69052
1.66835
1.65202
1.63231
1.61674
1.60039
1.58685
1.58114
1.58283
1.59171
1.6148
1.67203
1.78845
1.92133
1.98516
1.99395
1.98144
1.96647
1.94523
1.9236
1.90028
1.88204
1.86476
1.85103
1.83422
1.81878
1.80089
1.7868
1.77267
1.76248
1.75021
1.73977
1.72637
1.7145
1.7004
1.68896
1.67534
1.66441
1.65173
1.6416
1.62946
1.6202
1.60829
1.59879
1.58684
1.57706
1.56477
1.55576
1.54345
1.53531
1.52388
1.51585
1.50583
1.4978
1.48936
1.48222
1.47682
1.47263
1.47308
1.47521
1.48222
1.49766
1.52431
1.56846
1.6277
1.68545
1.72482
1.72732
1.72314
1.71676
1.7035
1.69527
1.68086
1.67178
1.66178
1.65684
1.64692
1.64187
1.63336
1.62987
1.62268
1.62266
2.09739
2.08366
2.06258
2.03886
2.01644
1.99336
1.97035
1.94811
1.9233
1.89991
1.87652
1.85102
1.82911
1.80445
1.78307
1.76055
1.73884
1.71893
1.69681
1.67964
1.65844
1.64304
1.62468
1.61139
1.60208
1.60277
1.61062
1.63151
1.6818
1.79238
1.92835
1.99841
2.00795
1.99599
1.97836
1.9568
1.92823
1.90373
1.88176
1.86574
1.84865
1.83299
1.81411
1.79771
1.78042
1.76758
1.75395
1.74301
1.72965
1.71838
1.70468
1.69345
1.68022
1.66907
1.65576
1.64515
1.63258
1.62293
1.61155
1.60266
1.59129
1.58242
1.5706
1.56117
1.54926
1.53987
1.52789
1.51945
1.50765
1.50001
1.48905
1.48145
1.47178
1.46413
1.45584
1.44916
1.44337
1.43894
1.43904
1.44054
1.44503
1.45749
1.48176
1.52225
1.57291
1.63761
1.68079
1.69284
1.68659
1.68207
1.67327
1.66486
1.65034
1.64309
1.63327
1.62789
1.61806
1.6139
1.60548
1.60517
2.0766
2.07042
2.05382
2.03098
2.00868
1.98644
1.96463
1.94212
1.91962
1.89633
1.87526
1.85315
1.82986
1.80915
1.78653
1.76595
1.74543
1.72453
1.7062
1.68537
1.66907
1.64969
1.63632
1.62376
1.62411
1.63099
1.64994
1.69463
1.79924
1.93984
2.01563
2.0271
2.01412
1.99652
1.9698
1.94062
1.91204
1.89005
1.86977
1.85303
1.83372
1.81615
1.79674
1.781
1.76453
1.75131
1.73604
1.72353
1.70944
1.69823
1.68515
1.67431
1.66073
1.64927
1.63581
1.62511
1.61285
1.60373
1.59258
1.58403
1.57315
1.5645
1.55309
1.54422
1.53248
1.52344
1.51193
1.5033
1.49202
1.48441
1.47334
1.46639
1.45599
1.44896
1.4397
1.43245
1.42449
1.418
1.41184
1.40762
1.40633
1.40737
1.41049
1.4206
1.44112
1.47589
1.52116
1.58897
1.63591
1.656
1.65225
1.64959
1.64346
1.63405
1.62156
1.61602
1.60506
1.60015
1.59125
1.59007
2.04502
2.04859
2.03946
2.02103
1.99968
1.9776
1.95724
1.93706
1.91606
1.89497
1.87269
1.85214
1.83146
1.80984
1.79
1.7693
1.74925
1.73045
1.71041
1.69342
1.67432
1.66012
1.64618
1.64568
1.65176
1.66913
1.7108
1.80812
1.94967
2.03334
2.04741
2.0355
2.01612
1.98827
1.95524
1.92667
1.90084
1.88022
1.85929
1.84028
1.81927
1.80101
1.78212
1.76668
1.74993
1.73577
1.72
1.70728
1.69288
1.68108
1.6671
1.65511
1.64098
1.62946
1.61619
1.60587
1.59392
1.58478
1.57366
1.56536
1.55463
1.54638
1.5355
1.52699
1.51568
1.50718
1.49593
1.48768
1.47695
1.46925
1.45877
1.45188
1.44143
1.43505
1.42505
1.41853
1.40952
1.40268
1.39493
1.38848
1.38225
1.37801
1.37532
1.37597
1.37845
1.38625
1.403
1.42991
1.47513
1.53826
1.59011
1.61762
1.62048
1.61827
1.61226
1.60522
1.59481
1.58945
1.57893
1.57735
2.01271
2.0274
2.02368
2.01032
1.99137
1.97048
1.94972
1.93107
1.91089
1.89203
1.87168
1.85125
1.83124
1.8115
1.79136
1.77194
1.75298
1.73363
1.71615
1.69762
1.68279
1.66859
1.66686
1.67274
1.68899
1.72868
1.81827
1.96137
2.05299
2.07027
2.05759
2.03919
2.00733
1.97417
1.94251
1.91682
1.89265
1.87176
1.84962
1.82953
1.80831
1.78988
1.77038
1.75358
1.73563
1.72093
1.70528
1.69241
1.67766
1.6652
1.65058
1.63835
1.62424
1.61259
1.59909
1.58839
1.57602
1.5667
1.55567
1.54738
1.53683
1.52875
1.51802
1.50979
1.49899
1.49089
1.48017
1.47245
1.46197
1.45453
1.44443
1.43732
1.42739
1.42092
1.41095
1.40499
1.39528
1.38924
1.38038
1.37396
1.36632
1.35996
1.35387
1.34927
1.34556
1.34601
1.34808
1.35292
1.36601
1.3878
1.43338
1.48371
1.5438
1.57857
1.59034
1.58583
1.58239
1.57852
1.56962
1.5676
1.94486
1.99364
2.00132
1.99566
1.98118
1.96205
1.94246
1.92408
1.90568
1.88644
1.86795
1.84912
1.82981
1.81098
1.79218
1.7736
1.75485
1.7373
1.71937
1.70423
1.68992
1.68761
1.69341
1.70894
1.74737
1.83051
1.97802
2.07708
2.09512
2.08252
2.06167
2.02893
1.99251
1.96111
1.93269
1.90906
1.88551
1.86426
1.84149
1.82093
1.79914
1.77984
1.75938
1.74185
1.72355
1.70845
1.69225
1.6789
1.66391
1.65113
1.63626
1.62353
1.6088
1.59657
1.58273
1.57178
1.55937
1.54992
1.53856
1.5299
1.51898
1.51067
1.49996
1.49202
1.48155
1.47388
1.46362
1.45617
1.44605
1.43891
1.42901
1.42216
1.41262
1.40605
1.39673
1.39064
1.38124
1.37565
1.36627
1.36073
1.35194
1.34605
1.33841
1.33239
1.32636
1.32139
1.31759
1.31723
1.31836
1.32161
1.33169
1.3511
1.38937
1.42982
1.49844
1.53787
1.55682
1.55678
1.5554
1.5558
1.81633
1.95044
1.97702
1.97804
1.96962
1.95374
1.93394
1.91536
1.89808
1.88069
1.86318
1.84552
1.82797
1.80947
1.79164
1.77363
1.75638
1.73899
1.72361
1.70971
1.7069
1.7126
1.72804
1.76579
1.84951
1.99504
2.09862
2.11926
2.10569
2.08544
2.04956
2.01332
1.97926
1.95112
1.9248
1.90196
1.87828
1.85652
1.83353
1.81276
1.79066
1.77096
1.75003
1.73193
1.71281
1.69677
1.67979
1.66587
1.65064
1.63796
1.62316
1.61028
1.59525
1.58266
1.56853
1.55731
1.54449
1.53442
1.5225
1.51334
1.50216
1.49378
1.48319
1.47536
1.4651
1.45766
1.44762
1.44048
1.4307
1.42384
1.41427
1.40767
1.39828
1.39193
1.38281
1.37672
1.36786
1.36213
1.35325
1.34796
1.33896
1.3339
1.32521
1.31995
1.31227
1.30678
1.30066
1.29567
1.29196
1.29005
1.29077
1.2933
1.30089
1.31672
1.34345
1.38888
1.45004
1.49116
1.52869
1.53145
1.60711
1.86693
1.94498
1.95974
1.95753
1.94671
1.92937
1.90963
1.89148
1.87418
1.85752
1.84042
1.82405
1.80727
1.79031
1.7732
1.75668
1.74168
1.72797
1.72454
1.73023
1.74644
1.78425
1.86814
2.01287
2.12056
2.14256
2.12952
2.10751
2.07188
2.03356
2.00009
1.96912
1.94282
1.9173
1.89454
1.87086
1.84927
1.82636
1.8053
1.78276
1.76237
1.74084
1.72218
1.70284
1.68682
1.66991
1.65586
1.64012
1.62656
1.611
1.59784
1.58282
1.5703
1.55609
1.5446
1.53141
1.52099
1.5087
1.4992
1.48768
1.47896
1.46807
1.46004
1.44972
1.44234
1.4325
1.42558
1.41602
1.40933
1.39989
1.39334
1.38407
1.37777
1.36879
1.36288
1.35425
1.3487
1.34033
1.33502
1.32667
1.32161
1.31311
1.30832
1.29988
1.29519
1.28746
1.28264
1.27631
1.27166
1.26765
1.26462
1.26516
1.26741
1.2719
1.28386
1.30589
1.35465
1.39881
1.44155
1.34816
1.69977
1.88038
1.92616
1.93591
1.93232
1.92059
1.90329
1.88578
1.86853
1.85206
1.83551
1.819
1.80275
1.78688
1.77113
1.75688
1.74408
1.74091
1.74692
1.76399
1.80156
1.88706
2.03038
2.14192
2.16616
2.15208
2.13057
2.09269
2.05509
2.01969
1.9887
1.95936
1.93401
1.90911
1.88669
1.86337
1.84176
1.81859
1.79705
1.77409
1.75339
1.73195
1.71353
1.6946
1.67861
1.66145
1.64666
1.63011
1.61591
1.60006
1.58678
1.57197
1.55971
1.54555