/*--------------------------------*- C++ -*----------------------------------*\
  =========                 |
  \\      /  F ield         | OpenFOAM: The Open Source CFD Toolbox
   \\    /   O peration     | Website:  https://openfoam.org
    \\  /    A nd           | Version:  10
     \\/     M anipulation  |
\*---------------------------------------------------------------------------*/
FoamFile
{
    format      ascii;
    class       volVectorField;
    location    "2";
    object      U;
}
// * * * * * * * * * * * * * * * * * * * * * * * * * * * * * * * * * * * * * //

dimensions      [0 1 -1 0 0 0 0];

internalField   nonuniform List<vector> 
5250
(
(3 1.08699e-08 0)
(2.99999 8.59997e-09 0)
(2.99998 2.14324e-07 0)
(2.99994 8.72714e-08 0)
(2.99985 1.51786e-06 0)
(2.99961 7.98544e-07 0)
(2.99906 9.3416e-06 0)
(2.99764 6.35337e-06 0)
(2.99423 4.99103e-05 0)
(2.98553 6.43311e-05 0)
(2.96352 0.000245394 0)
(2.90435 0.000522751 0)
(2.73585 0.00151989 0)
(2.23169 0.00422928 0)
(1.07039 0.0125584 0)
(0.371809 0.0211938 0)
(0.542342 0.0240866 0)
(0.595571 0.0259405 0)
(0.540148 0.0278069 0)
(0.445572 0.0299893 0)
(0.355162 0.0327644 0)
(0.28215 0.0360516 0)
(0.210156 0.0395565 0)
(0.127972 0.0437618 0)
(0.0581657 0.0494372 0)
(3 2.16328e-08 0)
(2.99999 8.22751e-08 0)
(2.99998 4.50255e-07 0)
(2.99994 8.04815e-07 0)
(2.99985 3.3148e-06 0)
(2.99962 5.50832e-06 0)
(2.99906 2.03737e-05 0)
(2.99768 3.56674e-05 0)
(2.99428 0.000117998 0)
(2.98569 0.000242686 0)
(2.9639 0.000678796 0)
(2.90544 0.00165973 0)
(2.73887 0.00458405 0)
(2.24091 0.0129686 0)
(1.08383 0.0383691 0)
(0.380262 0.0631975 0)
(0.544018 0.0691002 0)
(0.595899 0.0715784 0)
(0.540398 0.074197 0)
(0.446186 0.0779984 0)
(0.355886 0.0829784 0)
(0.282104 0.0883557 0)
(0.208764 0.0932871 0)
(0.125035 0.0981897 0)
(0.0548995 0.103207 0)
(3 2.07715e-08 0)
(2.99999 1.9364e-07 0)
(2.99998 4.50891e-07 0)
(2.99994 1.93252e-06 0)
(2.99985 3.46071e-06 0)
(2.99963 1.24068e-05 0)
(2.99908 2.36166e-05 0)
(2.99772 7.37093e-05 0)
(2.9944 0.000161362 0)
(2.986 0.000434284 0)
(2.9647 0.00107012 0)
(2.90763 0.00278572 0)
(2.74525 0.00756183 0)
(2.26028 0.0215147 0)
(1.11394 0.0639674 0)
(0.400769 0.107454 0)
(0.548895 0.117513 0)
(0.598163 0.120774 0)
(0.543553 0.12504 0)
(0.450947 0.132735 0)
(0.361357 0.142232 0)
(0.286878 0.151923 0)
(0.212164 0.161012 0)
(0.126742 0.169491 0)
(0.0546971 0.176512 0)
(3 4.14396e-08 0)
(2.99999 2.07169e-07 0)
(2.99998 8.55527e-07 0)
(2.99994 2.05531e-06 0)
(2.99986 6.28928e-06 0)
(2.99964 1.40167e-05 0)
(2.99912 3.95029e-05 0)
(2.99779 8.93953e-05 0)
(2.99458 0.000243285 0)
(2.98645 0.000565545 0)
(2.96587 0.00149527 0)
(2.91079 0.00374492 0)
(2.75469 0.0102451 0)
(2.28842 0.0290684 0)
(1.16004 0.086514 0)
(0.433048 0.150889 0)
(0.556529 0.166751 0)
(0.601494 0.169384 0)
(0.549567 0.17477 0)
(0.460316 0.187366 0)
(0.371711 0.202015 0)
(0.296511 0.216483 0)
(0.220331 0.230418 0)
(0.132532 0.243287 0)
(0.0568586 0.252918 0)
(3 5.42545e-08 0)
(2.99999 2.80522e-07 0)
(2.99998 1.1066e-06 0)
(2.99994 2.6528e-06 0)
(2.99986 8.23387e-06 0)
(2.99966 1.72522e-05 0)
(2.99915 5.28773e-05 0)
(2.99789 0.000106027 0)
(2.9948 0.000326218 0)
(2.98704 0.000664849 0)
(2.96735 0.00191755 0)
(2.91493 0.00454251 0)
(2.76641 0.0126395 0)
(2.32481 0.0354597 0)
(1.22164 0.105932 0)
(0.477634 0.194353 0)
(0.566164 0.218031 0)
(0.604058 0.217307 0)
(0.557809 0.222811 0)
(0.47401 0.241022 0)
(0.386254 0.261379 0)
(0.310238 0.281198 0)
(0.232596 0.300727 0)
(0.141701 0.318925 0)
(0.0609195 0.331995 0)
(3 5.8637e-08 0)
(2.99999 3.43939e-07 0)
(2.99998 1.22596e-06 0)
(2.99995 3.33972e-06 0)
(2.99987 8.95333e-06 0)
(2.99967 2.2135e-05 0)
(2.99919 5.7143e-05 0)
(2.99802 0.000135333 0)
(2.99504 0.000354337 0)
(2.98777 0.000834464 0)
(2.96911 0.00216582 0)
(2.91972 0.00542406 0)
(2.78056 0.0146534 0)
(2.36701 0.0412654 0)
(1.2996 0.123086 0)
(0.535448 0.241777 0)
(0.576546 0.267387 0)
(0.603114 0.263919 0)
(0.567684 0.27078 0)
(0.492163 0.294165 0)
(0.405428 0.321152 0)
(0.328811 0.347353 0)
(0.249961 0.374056 0)
(0.155263 0.399872 0)
(0.0673848 0.419107 0)
(3 5.71696e-08 0)
(2.99999 4.09973e-07 0)
(2.99998 1.32113e-06 0)
(2.99995 4.06336e-06 0)
(2.99988 9.776e-06 0)
(2.9997 2.75138e-05 0)
(2.99924 6.00474e-05 0)
(2.99814 0.000172654 0)
(2.99538 0.000363996 0)
(2.98855 0.00105243 0)
(2.97117 0.00234335 0)
(2.92534 0.00641156 0)
(2.79631 0.0165834 0)
(2.41586 0.0470891 0)
(1.39697 0.139055 0)
(0.605885 0.293865 0)
(0.584534 0.31045 0)
(0.603245 0.308965 0)
(0.580604 0.321348 0)
(0.515082 0.347066 0)
(0.430351 0.380883 0)
(0.353536 0.415068 0)
(0.27436 0.451233 0)
(0.17595 0.488207 0)
(0.078377 0.518968 0)
(3 7.14942e-08 0)
(2.99999 4.57693e-07 0)
(2.99998 1.52667e-06 0)
(2.99995 4.47814e-06 0)
(2.99989 1.14984e-05 0)
(2.99972 2.92381e-05 0)
(2.99931 7.41321e-05 0)
(2.99827 0.000177835 0)
(2.99578 0.000459708 0)
(2.98942 0.00108299 0)
(2.97357 0.00281241 0)
(2.9316 0.00697203 0)
(2.81441 0.0187261 0)
(2.46988 0.052244 0)
(1.51711 0.153343 0)
(0.68879 0.347312 0)
(0.590896 0.352016 0)
(0.61062 0.352649 0)
(0.597598 0.372235 0)
(0.541192 0.39979 0)
(0.462365 0.439818 0)
(0.387034 0.484056 0)
(0.308944 0.532983 0)
(0.208073 0.58658 0)
(0.0974965 0.639711 0)
(3 8.22159e-08 0)
(2.99999 4.88482e-07 0)
(2.99998 1.76602e-06 0)
(2.99996 4.7772e-06 0)
(2.9999 1.30191e-05 0)
(2.99975 3.18876e-05 0)
(2.99937 8.18238e-05 0)
(2.99846 0.000198198 0)
(2.99613 0.000497877 0)
(2.99051 0.0012232 0)
(2.97608 0.00304666 0)
(2.93857 0.00774146 0)
(2.83416 0.0203847 0)
(2.52854 0.0570184 0)
(1.65842 0.166101 0)
(0.785428 0.401771 0)
(0.596021 0.396196 0)
(0.62291 0.394895 0)
(0.620311 0.41982 0)
(0.571919 0.451215 0)
(0.502331 0.497585 0)
(0.432057 0.553295 0)
(0.358532 0.617559 0)
(0.261133 0.697797 0)
(0.133201 0.796628 0)
(3 8.29735e-08 0)
(2.99999 5.41917e-07 0)
(2.99999 1.82161e-06 0)
(2.99996 5.2981e-06 0)
(2.99991 1.35857e-05 0)
(2.99977 3.51883e-05 0)
(2.99945 8.59182e-05 0)
(2.99862 0.000217914 0)
(2.99663 0.000528708 0)
(2.99155 0.00133271 0)
(2.979 0.00328692 0)
(2.94606 0.00835119 0)
(2.85548 0.0219326 0)
(2.59194 0.0610021 0)
(1.82267 0.177104 0)
(0.899897 0.454461 0)
(0.60458 0.440924 0)
(0.641624 0.436416 0)
(0.650636 0.462905 0)
(0.610005 0.500076 0)
(0.551911 0.552392 0)
(0.490563 0.618858 0)
(0.430392 0.70448 0)
(0.353268 0.830657 0)
(0.202507 1.05274 0)
(3 8.67155e-08 0)
(3 5.52256e-07 0)
(2.99999 1.87889e-06 0)
(2.99997 5.40954e-06 0)
(2.99992 1.40948e-05 0)
(2.99981 3.58663e-05 0)
(2.99952 9.00177e-05 0)
(2.99883 0.00022202 0)
(2.99706 0.000558401 0)
(2.99281 0.00136969 0)
(2.98193 0.00345847 0)
(2.95411 0.00868692 0)
(2.8781 0.0228295 0)
(2.65856 0.0632014 0)
(2.00814 0.18363 0)
(1.03663 0.499102 0)
(0.628603 0.489549 0)
(0.671343 0.484002 0)
(0.691904 0.50343 0)
(0.658752 0.543943 0)
(0.611652 0.600096 0)
(0.56759 0.675791 0)
(0.539891 0.781145 0)
(0.545837 0.939329 0)
(0.597065 1.20173 0)
(3 8.07699e-08 0)
(3 5.17862e-07 0)
(2.99999 1.77293e-06 0)
(2.99997 5.08408e-06 0)
(2.99993 1.32521e-05 0)
(2.99984 3.40196e-05 0)
(2.9996 8.3887e-05 0)
(2.99901 0.000213353 0)
(2.99759 0.00051821 0)
(2.99396 0.00132168 0)
(2.9851 0.00324134 0)
(2.9622 0.00826087 0)
(2.90105 0.0214505 0)
(2.72696 0.0589573 0)
(2.21122 0.171021 0)
(1.21364 0.492833 0)
(0.696778 0.53039 0)
(0.722768 0.539779 0)
(0.745743 0.545318 0)
(0.72115 0.583322 0)
(0.684334 0.640972 0)
(0.65936 0.721422 0)
(0.665004 0.833503 0)
(0.730769 0.988227 0)
(0.893557 1.19021 0)
(3 7.31525e-08 0)
(3 4.35149e-07 0)
(2.99999 1.57464e-06 0)
(2.99998 4.26189e-06 0)
(2.99995 1.16809e-05 0)
(2.99987 2.85682e-05 0)
(2.99967 7.34593e-05 0)
(2.99919 0.000178375 0)
(2.99799 0.00044794 0)
(2.99508 0.00110071 0)
(2.98772 0.0027396 0)
(2.96931 0.00685557 0)
(2.92041 0.0175798 0)
(2.78394 0.0473387 0)
(2.38502 0.134992 0)
(1.41308 0.405097 0)
(0.788387 0.559992 0)
(0.774537 0.590521 0)
(0.793458 0.594573 0)
(0.787214 0.62488 0)
(0.763416 0.678932 0)
(0.756134 0.755488 0)
(0.784933 0.858701 0)
(0.874601 0.986913 0)
(1.05756 1.11585 0)
(3 5.66966e-08 0)
(3 4.03664e-07 0)
(2.99999 1.2701e-06 0)
(2.99998 3.93048e-06 0)
(2.99996 9.46862e-06 0)
(2.99989 2.5895e-05 0)
(2.99973 5.97858e-05 0)
(2.99932 0.000158157 0)
(2.99836 0.0003665 0)
(2.99587 0.0009486 0)
(2.9899 0.00225609 0)
(2.97457 0.00574751 0)
(2.93472 0.0143177 0)
(2.82408 0.0379779 0)
(2.50199 0.105591 0)
(1.62446 0.313672 0)
(0.892652 0.605673 0)
(0.80583 0.636377 0)
(0.825993 0.645903 0)
(0.839683 0.665586 0)
(0.835344 0.712327 0)
(0.844322 0.779447 0)
(0.887561 0.864676 0)
(0.982159 0.962227 0)
(1.15316 1.04457 0)
(3 5.46893e-08 0)
(3 3.49717e-07 0)
(2.99999 1.17988e-06 0)
(2.99999 3.41344e-06 0)
(2.99996 8.81204e-06 0)
(2.99991 2.23802e-05 0)
(2.99978 5.62245e-05 0)
(2.99945 0.000136249 0)
(2.99865 0.000346043 0)
(2.99665 0.000825141 0)
(2.99172 0.00211012 0)
(2.97934 0.0051005 0)
(2.94724 0.0130666 0)
(2.85917 0.033963 0)
(2.60487 0.0941129 0)
(1.87118 0.274359 0)
(1.0451 0.648534 0)
(0.83229 0.67088 0)
(0.850207 0.682354 0)
(0.879107 0.695375 0)
(0.896605 0.735786 0)
(0.91954 0.793618 0)
(0.97101 0.861947 0)
(1.06382 0.934212 0)
(1.21562 0.989979 0)
(3 4.9406e-08 0)
(3 3.06013e-07 0)
(3 1.07102e-06 0)
(2.99999 3.00272e-06 0)
(2.99997 7.97835e-06 0)
(2.99993 2.00324e-05 0)
(2.99982 5.04654e-05 0)
(2.99956 0.000124426 0)
(2.99893 0.000310141 0)
(2.99734 0.000768176 0)
(2.99346 0.00190246 0)
(2.9837 0.0047614 0)
(2.95877 0.0119672 0)
(2.89141 0.0313025 0)
(2.69935 0.0859472 0)
(2.13011 0.249958 0)
(1.23934 0.668143 0)
(0.88222 0.703618 0)
(0.885649 0.713188 0)
(0.919133 0.720096 0)
(0.952404 0.750913 0)
(0.984809 0.800056 0)
(1.03939 0.855579 0)
(1.12746 0.909842 0)
(1.26027 0.949372 0)
(3 4.1585e-08 0)
(3 2.55138e-07 0)
(3 9.01056e-07 0)
(2.99999 2.49336e-06 0)
(2.99998 6.69938e-06 0)
(2.99994 1.66643e-05 0)
(2.99986 4.21652e-05 0)
(2.99966 0.000103651 0)
(2.99918 0.000257646 0)
(2.99798 0.000636061 0)
(2.99504 0.00157247 0)
(2.98773 0.00392449 0)
(2.96935 0.00977532 0)
(2.92093 0.025268 0)
(2.78707 0.0680214 0)
(2.39675 0.195614 0)
(1.50386 0.570776 0)
(0.992974 0.713389 0)
(0.947823 0.739624 0)
(0.968027 0.750131 0)
(1.00761 0.767748 0)
(1.04578 0.805406 0)
(1.09897 0.84961 0)
(1.17973 0.890776 0)
(1.29519 0.919377 0)
(3 3.36596e-08 0)
(3 2.0216e-07 0)
(3 7.26805e-07 0)
(2.99999 1.96933e-06 0)
(2.99998 5.37279e-06 0)
(2.99996 1.30923e-05 0)
(2.9999 3.34593e-05 0)
(2.99974 8.09506e-05 0)
(2.99937 0.00020075 0)
(2.99844 0.000492599 0)
(2.9962 0.00120186 0)
(2.99054 0.00298798 0)
(2.97654 0.00730616 0)
(2.93991 0.0185345 0)
(2.83971 0.0482881 0)
(2.55098 0.1339 0)
(1.76733 0.399995 0)
(1.10919 0.725271 0)
(0.997942 0.765358 0)
(1.00917 0.783566 0)
(1.05113 0.790467 0)
(1.09743 0.81458 0)
(1.1502 0.84725 0)
(1.22382 0.877794 0)
(1.32447 0.898086 0)
(3 2.76654e-08 0)
(3 1.63149e-07 0)
(3 5.92103e-07 0)
(2.99999 1.59521e-06 0)
(2.99999 4.38105e-06 0)
(2.99997 1.06049e-05 0)
(2.99992 2.75178e-05 0)
(2.9998 6.55467e-05 0)
(2.99952 0.000166671 0)
(2.99881 0.000399819 0)
(2.99712 0.00100517 0)
(2.99282 0.00244917 0)
(2.98228 0.00611589 0)
(2.95496 0.0152989 0)
(2.88131 0.0397831 0)
(2.67115 0.108889 0)
(2.05827 0.318635 0)
(1.2867 0.751301 0)
(1.04534 0.799261 0)
(1.04405 0.814584 0)
(1.084 0.815311 0)
(1.13864 0.823956 0)
(1.19323 0.846234 0)
(1.26124 0.868806 0)
(1.34979 0.883113 0)
(3 2.13255e-08 0)
(3 1.33872e-07 0)
(3 4.57676e-07 0)
(3 1.30622e-06 0)
(2.99999 3.40049e-06 0)
(2.99998 8.59767e-06 0)
(2.99994 2.16401e-05 0)
(2.99986 5.25397e-05 0)
(2.99965 0.000133592 0)
(2.99914 0.000316696 0)
(2.99791 0.000817313 0)
(2.9948 0.00193153 0)
(2.98724 0.00498842 0)
(2.96794 0.0121165 0)
(2.91727 0.0317389 0)
(2.77658 0.0850199 0)
(2.36285 0.245783 0)
(1.55081 0.67472 0)
(1.14334 0.808673 0)
(1.09905 0.832805 0)
(1.12108 0.83878 0)
(1.17493 0.836672 0)
(1.23301 0.848173 0)
(1.29599 0.86341 0)
(1.37383 0.872982 0)
(3 1.58869e-08 0)
(3 1.03565e-07 0)
(3 3.43877e-07 0)
(3 1.00886e-06 0)
(2.99999 2.55204e-06 0)
(2.99998 6.60693e-06 0)
(2.99996 1.61806e-05 0)
(2.9999 4.01199e-05 0)
(2.99975 9.92926e-05 0)
(2.99938 0.000239778 0)
(2.99847 0.000605061 0)
(2.99629 0.00143843 0)
(2.99077 0.00367199 0)
(2.97722 0.00884342 0)
(2.94191 0.0227396 0)
(2.84616 0.0592558 0)
(2.5717 0.165884 0)
(1.84927 0.491271 0)
(1.27237 0.802823 0)
(1.15658 0.843868 0)
(1.16102 0.860818 0)
(1.20703 0.856753 0)
(1.26712 0.855665 0)
(1.32747 0.86233 0)
(1.39707 0.867321 0)
(3 1.21466e-08 0)
(3 7.72605e-08 0)
(3 2.65343e-07 0)
(3 7.55871e-07 0)
(2.99999 1.96352e-06 0)
(2.99999 5.01866e-06 0)
(2.99997 1.22721e-05 0)
(2.99993 3.08803e-05 0)
(2.99982 7.42178e-05 0)
(2.99956 0.000187263 0)
(2.99891 0.000447426 0)
(2.99735 0.00112949 0)
(2.99341 0.00272164 0)
(2.98381 0.00684861 0)
(2.95908 0.0169579 0)
(2.89319 0.0440526 0)
(2.70745 0.119527 0)
(2.16644 0.351653 0)
(1.4596 0.799443 0)
(1.21632 0.867717 0)
(1.20161 0.882494 0)
(1.23342 0.879106 0)
(1.2926 0.86838 0)
(1.35461 0.866324 0)
(1.4193 0.866477 0)
(3 9.10728e-09 0)
(3 5.69711e-08 0)
(3 1.97643e-07 0)
(3 5.56311e-07 0)
(3 1.4631e-06 0)
(2.99999 3.68689e-06 0)
(2.99998 9.14624e-06 0)
(2.99995 2.26575e-05 0)
(2.99988 5.52948e-05 0)
(2.9997 0.000137376 0)
(2.99925 0.000332525 0)
(2.99819 0.000829566 0)
(2.99553 0.00201387 0)
(2.98908 0.00502849 0)
(2.97283 0.0124266 0)
(2.93083 0.031766 0)
(2.81686 0.0846294 0)
(2.48487 0.242598 0)
(1.75205 0.663813 0)
(1.32982 0.859218 0)
(1.26053 0.889396 0)
(1.27069 0.897198 0)
(1.31951 0.885255 0)
(1.38055 0.875487 0)
(1.44141 0.870376 0)
(3 6.61496e-09 0)
(3 4.0618e-08 0)
(3 1.42564e-07 0)
(3 3.9546e-07 0)
(3 1.05239e-06 0)
(2.99999 2.61091e-06 0)
(2.99999 6.55815e-06 0)
(2.99996 1.59566e-05 0)
(2.99991 3.94087e-05 0)
(2.99979 9.60598e-05 0)
(2.99948 0.00023472 0)
(2.99875 0.000576392 0)
(2.9969 0.00139911 0)
(2.99249 0.00346069 0)
(2.98131 0.00846716 0)
(2.95302 0.0211869 0)
(2.87717 0.0546856 0)
(2.66264 0.149302 0)
(2.07003 0.437161 0)
(1.47702 0.836633 0)
(1.31617 0.89946 0)
(1.30789 0.914823 0)
(1.34289 0.9061 0)
(1.40192 0.887935 0)
(1.46165 0.877099 0)
(3 4.67133e-09 0)
(3 2.90747e-08 0)
(3 1.01259e-07 0)
(3 2.83237e-07 0)
(3 7.47309e-07 0)
(3 1.87277e-06 0)
(2.99999 4.64624e-06 0)
(2.99998 1.14511e-05 0)
(2.99994 2.79334e-05 0)
(2.99986 6.89457e-05 0)
(2.99965 0.000166744 0)
(2.99916 0.000413989 0)
(2.99794 0.000997499 0)
(2.99497 0.00248512 0)
(2.98757 0.006052 0)
(2.96915 0.0151168 0)
(2.92085 0.0384334 0)
(2.78823 0.102761 0)
(2.4012 0.296382 0)
(1.72699 0.741509 0)
(1.4055 0.895047 0)
(1.35628 0.922401 0)
(1.37014 0.925101 0)
(1.42057 0.906039 0)
(1.48098 0.887563 0)
(3 3.264e-09 0)
(3 2.01265e-08 0)
(3 7.04823e-08 0)
(3 1.95527e-07 0)
(3 5.19595e-07 0)
(3 1.28727e-06 0)
(2.99999 3.23486e-06 0)
(2.99998 7.85998e-06 0)
(2.99996 1.94319e-05 0)
(2.99991 4.71714e-05 0)
(2.99977 0.000115858 0)
(2.99945 0.000282276 0)
(2.99863 0.000690818 0)
(2.9967 0.00169276 0)
(2.99182 0.00414418 0)
(2.97997 0.0102639 0)
(2.94942 0.0256788 0)
(2.86811 0.0669962 0)
(2.63694 0.185704 0)
(2.04216 0.530773 0)
(1.54298 0.867233 0)
(1.41408 0.925111 0)
(1.40566 0.939009 0)
(1.43905 0.927559 0)
(1.49569 0.901822 0)
(3 2.231e-09 0)
(3 1.38254e-08 0)
(3 4.84767e-08 0)
(3 1.34354e-07 0)
(3 3.56848e-07 0)
(3 8.84922e-07 0)
(3 2.20908e-06 0)
(2.99999 5.41858e-06 0)
(2.99997 1.31821e-05 0)
(2.99994 3.25836e-05 0)
(2.99985 7.81085e-05 0)
(2.99964 0.000195184 0)
(2.99911 0.000463284 0)
(2.99785 0.00116547 0)
(2.9947 0.00277213 0)
(2.98707 0.00697667 0)
(2.96777 0.0169883 0)
(2.91752 0.0437064 0)
(2.7798 0.116138 0)
(2.38088 0.337072 0)
(1.76845 0.775647 0)
(1.49396 0.916223 0)
(1.44985 0.943238 0)
(1.46161 0.944873 0)
(1.50826 0.922254 0)
(3 1.53384e-09 0)
(3 9.19499e-09 0)
(3 3.26929e-08 0)
(3 8.955e-08 0)
(3 2.40481e-07 0)
(3 5.88109e-07 0)
(3 1.49488e-06 0)
(2.99999 3.56925e-06 0)
(2.99998 8.95961e-06 0)
(2.99996 2.13477e-05 0)
(2.99991 5.31717e-05 0)
(2.99977 0.000127653 0)
(2.99944 0.000314201 0)
(2.99862 0.000764385 0)
(2.99666 0.00186414 0)
(2.99181 0.00458949 0)
(2.97989 0.0112629 0)
(2.94946 0.0282676 0)
(2.86883 0.0734942 0)
(2.63908 0.204653 0)
(2.07516 0.566007 0)
(1.62548 0.883457 0)
(1.50754 0.942424 0)
(1.49578 0.955528 0)
(1.52292 0.944098 0)
(3 9.83604e-10 0)
(3 6.1721e-09 0)
(3 2.11181e-08 0)
(3 5.98998e-08 0)
(3 1.55925e-07 0)
(3 3.90392e-07 0)
(3 9.74789e-07 0)
(3 2.34831e-06 0)
(2.99999 5.8645e-06 0)
(2.99998 1.394e-05 0)
(2.99994 3.49217e-05 0)
(2.99985 8.25245e-05 0)
(2.99964 0.000207076 0)
(2.99914 0.000490301 0)
(2.99789 0.00122584 0)
(2.9949 0.00292794 0)
(2.98744 0.00730608 0)
(2.96902 0.0178255 0)
(2.92101 0.0455709 0)
(2.79034 0.120848 0)
(2.41616 0.347428 0)
(1.8478 0.777604 0)
(1.58588 0.926181 0)
(1.53873 0.955378 0)
(1.54523 0.95895 0)
(3 6.24175e-10 0)
(3 4.03481e-09 0)
(3 1.37102e-08 0)
(3 3.90662e-08 0)
(3 1.01043e-07 0)
(3 2.55807e-07 0)
(3 6.23946e-07 0)
(3 1.5549e-06 0)
(2.99999 3.71001e-06 0)
(2.99998 9.27926e-06 0)
(2.99996 2.19298e-05 0)
(2.99991 5.49816e-05 0)
(2.99978 0.000129962 0)
(2.99947 0.000324351 0)
(2.99869 0.000772381 0)
(2.99687 0.00191658 0)
(2.99228 0.00462273 0)
(2.98121 0.0114481 0)
(2.95291 0.0284103 0)
(2.87854 0.0735574 0)
(2.66817 0.203189 0)
(2.15163 0.554485 0)
(1.71854 0.886097 0)
(1.5956 0.952436 0)
(1.5786 0.966912 0)
(3 4.11583e-10 0)
(3 2.52242e-09 0)
(3 8.89673e-09 0)
(3 2.44448e-08 0)
(3 6.52845e-08 0)
(3 1.60252e-07 0)
(3 4.01658e-07 0)
(3 9.73927e-07 0)
(3 2.37708e-06 0)
(2.99999 5.81197e-06 0)
(2.99998 1.39454e-05 0)
(2.99994 3.45663e-05 0)
(2.99987 8.17616e-05 0)
(2.99968 0.000204496 0)
(2.99922 0.000481415 0)
(2.99811 0.00120819 0)
(2.99538 0.00285357 0)
(2.98879 0.00715489 0)
(2.97233 0.0172885 0)
(2.93024 0.0440881 0)
(2.81699 0.115839 0)
(2.49309 0.330095 0)
(1.95509 0.750296 0)
(1.67986 0.92472 0)
(1.62332 0.960434 0)
(3 2.60088e-10 0)
(3 1.57722e-09 0)
(3 5.54641e-09 0)
(3 1.53047e-08 0)
(3 4.06086e-08 0)
(3 9.9591e-08 0)
(3 2.51685e-07 0)
(3 5.98081e-07 0)
(3 1.50051e-06 0)
(2.99999 3.53327e-06 0)
(2.99999 8.82908e-06 0)
(2.99997 2.08816e-05 0)
(2.99992 5.16943e-05 0)
(2.9998 0.000123413 0)
(2.99953 0.000302187 0)
(2.99885 0.000730848 0)
(2.99724 0.00176917 0)
(2.99323 0.00434154 0)
(2.98353 0.0105276 0)
(2.95899 0.0262684 0)
(2.89516 0.0668801 0)
(2.71658 0.182493 0)
(2.26204 0.499196 0)
(1.82226 0.867167 0)
(1.67922 0.950296 0)
(3 1.54678e-10 0)
(3 9.9803e-10 0)
(3 3.34432e-09 0)
(3 9.67293e-09 0)
(3 2.45489e-08 0)
(3 6.27487e-08 0)
(3 1.52412e-07 0)
(3 3.74522e-07 0)
(3 9.11321e-07 0)
(3 2.19361e-06 0)
(2.99999 5.403e-06 0)
(2.99998 1.28039e-05 0)
(2.99995 3.18539e-05 0)
(2.99989 7.49823e-05 0)
(2.99972 0.000187193 0)
(2.99933 0.000440312 0)
(2.99839 0.00109797 0)
(2.99609 0.00260407 0)
(2.99055 0.00646674 0)
(2.97684 0.0156475 0)
(2.9423 0.0394871 0)
(2.85109 0.102655 0)
(2.59139 0.289042 0)
(2.08174 0.691382 0)
(1.77505 0.908828 0)
(3 9.33845e-11 0)
(3 6.02732e-10 0)
(3 2.04588e-09 0)
(3 5.82848e-09 0)
(3 1.49833e-08 0)
(3 3.80377e-08 0)
(3 9.1667e-08 0)
(3 2.28849e-07 0)
(3 5.40044e-07 0)
(3 1.34807e-06 0)
(3 3.16604e-06 0)
(2.99999 7.86189e-06 0)
(2.99997 1.85707e-05 0)
(2.99993 4.57218e-05 0)
(2.99983 0.000108826 0)
(2.99961 0.00026514 0)
(2.99904 0.000638892 0)
(2.9977 0.00153752 0)
(2.99439 0.00375407 0)
(2.9864 0.00902428 0)
(2.96638 0.0223482 0)
(2.91501 0.0558976 0)
(2.77426 0.149155 0)
(2.39693 0.409825 0)
(1.94206 0.808832 0)
(3 5.86517e-11 0)
(3 3.57379e-10 0)
(3 1.26227e-09 0)
(3 3.45986e-09 0)
(3 9.22095e-09 0)
(3 2.25676e-08 0)
(3 5.6381e-08 0)
(3 1.35976e-07 0)
(3 3.31122e-07 0)
(3 8.04129e-07 0)
(3 1.92644e-06 0)
(2.99999 4.73642e-06 0)
(2.99998 1.11892e-05 0)
(2.99996 2.77746e-05 0)
(2.99991 6.52397e-05 0)
(2.99977 0.000162114 0)
(2.99945 0.000381962 0)
(2.99868 0.000944421 0)
(2.99678 0.00224594 0)
(2.99229 0.00553596 0)
(2.98109 0.0133779 0)
(2.95327 0.0334069 0)
(2.88051 0.0855689 0)
(2.67511 0.235425 0)
(2.21841 0.602458 0)
(3 3.49572e-11 0)
(3 2.12997e-10 0)
(3 7.45378e-10 0)
(3 2.05898e-09 0)
(3 5.44929e-09 0)
(3 1.33226e-08 0)
(3 3.35167e-08 0)
(3 7.94077e-08 0)
(3 1.97984e-07 0)
(3 4.65361e-07 0)
(3 1.15364e-06 0)
(3 2.72335e-06 0)
(2.99999 6.6924e-06 0)
(2.99998 1.59288e-05 0)
(2.99995 3.8717e-05 0)
(2.99987 9.32203e-05 0)
(2.99969 0.000223743 0)
(2.99925 0.0005458 0)
(2.99821 0.00129502 0)
(2.99566 0.0031967 0)
(2.98955 0.00760031 0)
(2.97443 0.0188936 0)
(2.93634 0.0466928 0)
(2.8347 0.122897 0)
(2.55258 0.340999 0)
(3 1.96061e-11 0)
(3 1.27191e-10 0)
(3 4.24259e-10 0)
(3 1.22901e-09 0)
(3 3.10007e-09 0)
(3 7.92687e-09 0)
(3 1.90509e-08 0)
(3 4.70216e-08 0)
(3 1.12681e-07 0)
(3 2.73092e-07 0)
(3 6.59702e-07 0)
(3 1.57807e-06 0)
(2.99999 3.851e-06 0)
(2.99999 9.10934e-06 0)
(2.99997 2.24194e-05 0)
(2.99993 5.26689e-05 0)
(2.99983 0.000129946 0)
(2.99958 0.000305703 0)
(2.99899 0.000751455 0)
(2.99755 0.00177777 0)
(2.99414 0.00436257 0)
(2.98566 0.0104503 0)
(2.96497 0.0258398 0)
(2.91151 0.0647679 0)
(2.765 0.173877 0)
(3 1.13792e-11 0)
(3 7.28505e-11 0)
(3 2.47924e-10 0)
(3 7.03298e-10 0)
(3 1.80856e-09 0)
(3 4.55827e-09 0)
(3 1.10152e-08 0)
(3 2.72116e-08 0)
(3 6.45686e-08 0)
(3 1.58981e-07 0)
(3 3.7539e-07 0)
(3 9.22303e-07 0)
(3 2.18155e-06 0)
(2.99999 5.3312e-06 0)
(2.99998 1.26955e-05 0)
(2.99996 3.07641e-05 0)
(2.9999 7.38751e-05 0)
(2.99977 0.000177395 0)
(2.99944 0.000430374 0)
(2.99867 0.00102442 0)
(2.99677 0.00250896 0)
(2.99228 0.00597709 0)
(2.98116 0.0147544 0)
(2.95374 0.0360921 0)
(2.88233 0.0929916 0)
(3 6.75299e-12 0)
(3 4.06772e-11 0)
(3 1.43725e-10 0)
(3 3.92141e-10 0)
(3 1.04566e-09 0)
(3 2.53392e-09 0)
(3 6.37288e-09 0)
(3 1.50697e-08 0)
(3 3.7262e-08 0)
(3 8.79555e-08 0)
(3 2.15103e-07 0)
(3 5.11938e-07 0)
(3 1.23662e-06 0)
(3 2.9725e-06 0)
(2.99999 7.10284e-06 0)
(2.99998 1.72624e-05 0)
(2.99995 4.07422e-05 0)
(2.99987 9.99616e-05 0)
(2.9997 0.000234499 0)
(2.99928 0.000576969 0)
(2.99827 0.00135368 0)
(2.99585 0.00333082 0)
(2.98997 0.00789631 0)
(2.9757 0.019474 0)
(2.93982 0.0479026 0)
(3 3.6699e-12 0)
(3 2.34025e-11 0)
(3 7.85313e-11 0)
(3 2.25511e-10 0)
(3 5.71835e-10 0)
(3 1.44808e-09 0)
(3 3.49732e-09 0)
(3 8.53414e-09 0)
(3 2.05542e-08 0)
(3 4.92047e-08 0)
(3 1.19411e-07 0)
(3 2.82395e-07 0)
(3 6.90791e-07 0)
(3 1.62017e-06 0)
(3 3.98124e-06 0)
(2.99999 9.31976e-06 0)
(2.99997 2.28264e-05 0)
(2.99993 5.37568e-05 0)
(2.99984 0.000130586 0)
(2.9996 0.000309953 0)
(2.99906 0.000746241 0)
(2.99773 0.00179166 0)
(2.99458 0.00428044 0)
(2.98686 0.0104157 0)
(2.96802 0.0251648 0)
(3 1.97951e-12 0)
(3 1.30234e-11 0)
(3 4.34216e-11 0)
(3 1.25372e-10 0)
(3 3.16748e-10 0)
(3 8.07306e-10 0)
(3 1.927e-09 0)
(3 4.77758e-09 0)
(3 1.12514e-08 0)
(3 2.76116e-08 0)
(3 6.52036e-08 0)
(3 1.58271e-07 0)
(3 3.77486e-07 0)
(3 9.0488e-07 0)
(3 2.18112e-06 0)
(2.99999 5.17507e-06 0)
(2.99998 1.2603e-05 0)
(2.99996 2.95829e-05 0)
(2.99991 7.26494e-05 0)
(2.99979 0.000169901 0)
(2.9995 0.000417014 0)
(2.99879 0.000980516 0)
(2.99715 0.00239529 0)
(2.99307 0.00569986 0)
(2.98342 0.0139206 0)
(3 1.10952e-12 0)
(3 6.97592e-12 0)
(3 2.41951e-11 0)
(3 6.74439e-11 0)
(3 1.75484e-10 0)
(3 4.35934e-10 0)
(3 1.06128e-09 0)
(3 2.58822e-09 0)
(3 6.15241e-09 0)
(3 1.50322e-08 0)
(3 3.53204e-08 0)
(3 8.66557e-08 0)
(3 2.02719e-07 0)
(3 4.96339e-07 0)
(3 1.1667e-06 0)
(3 2.8343e-06 0)
(2.99999 6.71001e-06 0)
(2.99998 1.61766e-05 0)
(2.99995 3.86282e-05 0)
(2.99989 9.21406e-05 0)
(2.99974 0.000222558 0)
(2.99938 0.00052496 0)
(2.99852 0.0012821 0)
(2.99646 0.00300931 0)
(2.99153 0.00739556 0)
(3 6.18602e-13 0)
(3 3.72926e-12 0)
(3 1.32696e-11 0)
(3 3.60988e-11 0)
(3 9.60257e-11 0)
(3 2.32644e-10 0)
(3 5.811e-10 0)
(3 1.3746e-09 0)
(3 3.36575e-09 0)
(3 7.96072e-09 0)
(3 1.92488e-08 0)
(3 4.58777e-08 0)
(3 1.09541e-07 0)
(3 2.64054e-07 0)
(3 6.22592e-07 0)
(3 1.51342e-06 0)
(3 3.54455e-06 0)
(2.99999 8.6497e-06 0)
(2.99998 2.01796e-05 0)
(2.99994 4.92493e-05 0)
(2.99986 0.000115142 0)
(2.99968 0.000279317 0)
(2.99922 0.000657741 0)
(2.99816 0.00158168 0)
(2.99558 0.0037654 0)
(3 3.26474e-13 0)
(3 2.05151e-12 0)
(3 6.97674e-12 0)
(3 1.97053e-11 0)
(3 5.08124e-11 0)
(3 1.25754e-10 0)
(3 3.08675e-10 0)
(3 7.37238e-10 0)
(3 1.79229e-09 0)
(3 4.24003e-09 0)
(3 1.02764e-08 0)
(3 2.42564e-08 0)
(3 5.85983e-08 0)
(3 1.38796e-07 0)
(3 3.32899e-07 0)
(3 7.9441e-07 0)
(3 1.88884e-06 0)
(2.99999 4.53421e-06 0)
(2.99999 1.07171e-05 0)
(2.99997 2.58683e-05 0)
(2.99993 6.07557e-05 0)
(2.99983 0.000147246 0)
(2.9996 0.000345499 0)
(2.99905 0.000835065 0)
(2.99773 0.00197229 0)
(3 1.79058e-13 0)
(3 1.11876e-12 0)
(3 3.62485e-12 0)
(3 1.05423e-11 0)
(3 2.64306e-11 0)
(3 6.72829e-11 0)
(3 1.60057e-10 0)
(3 3.95197e-10 0)
(3 9.28563e-10 0)
(3 2.26557e-09 0)
(3 5.3327e-09 0)
(3 1.288e-08 0)
(3 3.05721e-08 0)
(3 7.29925e-08 0)
(3 1.74894e-07 0)
(3 4.13483e-07 0)
(3 9.99327e-07 0)
(3 2.34119e-06 0)
(2.99999 5.69859e-06 0)
(2.99998 1.32919e-05 0)
(2.99996 3.2335e-05 0)
(2.99991 7.57047e-05 0)
(2.9998 0.000183176 0)
(2.99952 0.000431466 0)
(2.99884 0.00103777 0)
(3 8.17662e-14 0)
(3 5.45039e-13 0)
(3 1.89795e-12 0)
(3 5.34915e-12 0)
(3 1.39678e-11 0)
(3 3.45277e-11 0)
(3 8.48484e-11 0)
(3 2.02324e-10 0)
(3 4.91538e-10 0)
(3 1.15993e-09 0)
(3 2.80936e-09 0)
(3 6.60892e-09 0)
(3 1.59862e-08 0)
(3 3.76382e-08 0)
(3 9.07175e-08 0)
(3 2.14072e-07 0)
(3 5.14528e-07 0)
(3 1.21859e-06 0)
(3 2.91155e-06 0)
(2.99999 6.9298e-06 0)
(2.99998 1.64829e-05 0)
(2.99996 3.94149e-05 0)
(2.9999 9.31508e-05 0)
(2.99976 0.000223978 0)
(2.99942 0.000527474 0)
(3 3.38035e-14 0)
(3 2.38582e-13 0)
(3 9.48182e-13 0)
(3 2.63511e-12 0)
(3 7.15976e-12 0)
(3 1.7532e-11 0)
(3 4.38248e-11 0)
(3 1.03282e-10 0)
(3 2.53157e-10 0)
(3 5.92788e-10 0)
(3 1.44047e-09 0)
(3 3.37711e-09 0)
(3 8.15905e-09 0)
(3 1.92355e-08 0)
(3 4.60583e-08 0)
(3 1.09434e-07 0)
(3 2.59723e-07 0)
(3 6.22424e-07 0)
(3 1.46291e-06 0)
(3 3.53115e-06 0)
(2.99999 8.24607e-06 0)
(2.99998 1.99821e-05 0)
(2.99995 4.64973e-05 0)
(2.99988 0.000112612 0)
(2.99972 0.000262556 0)
(3 1.02294e-14 0)
(3 1.3598e-13 0)
(3 4.81114e-13 0)
(3 1.35789e-12 0)
(3 3.56243e-12 0)
(3 8.74795e-12 0)
(3 2.14224e-11 0)
(3 5.18097e-11 0)
(3 1.23954e-10 0)
(3 2.95691e-10 0)
(3 7.09155e-10 0)
(3 1.66993e-09 0)
(3 4.03275e-09 0)
(3 9.42291e-09 0)
(3 2.28451e-08 0)
(3 5.32082e-08 0)
(3 1.2887e-07 0)
(3 3.00503e-07 0)
(3 7.24664e-07 0)
(3 1.6993e-06 0)
(3 4.05782e-06 0)
(2.99999 9.58957e-06 0)
(2.99997 2.26952e-05 0)
(2.99994 5.40669e-05 0)
(2.99986 0.000126596 0)
(3 1.07599e-14 0)
(3 8.75185e-14 0)
(3 2.85965e-13 0)
(3 7.57295e-13 0)
(3 1.80427e-12 0)
(3 4.29596e-12 0)
(3 9.89868e-12 0)
(3 2.41523e-11 0)
(3 5.58473e-11 0)
(3 1.36253e-10 0)
(3 3.16643e-10 0)
(3 7.68365e-10 0)
(3 1.79223e-09 0)
(3 4.31645e-09 0)
(3 1.0147e-08 0)
(3 2.41572e-08 0)
(3 5.7365e-08 0)
(3 1.35129e-07 0)
(3 3.22609e-07 0)
(3 7.55466e-07 0)
(3 1.81204e-06 0)
(2.99999 4.21081e-06 0)
(2.99999 1.01421e-05 0)
(2.99997 2.35224e-05 0)
(2.99992 5.63319e-05 0)
(3 8.88239e-15 0)
(3 4.00197e-14 0)
(3 1.057e-13 0)
(3 2.78673e-13 0)
(3 5.8949e-13 0)
(3 1.37929e-12 0)
(3 2.9953e-12 0)
(3 6.95498e-12 0)
(3 1.62742e-11 0)
(3 3.83039e-11 0)
(3 9.08315e-11 0)
(3 2.14292e-10 0)
(3 5.09848e-10 0)
(3 1.20372e-09 0)
(3 2.84778e-09 0)
(3 6.7548e-09 0)
(3 1.58636e-08 0)
(3 3.78877e-08 0)
(3 8.78483e-08 0)
(3 2.11597e-07 0)
(3 4.8642e-07 0)
(3 1.17483e-06 0)
(2.99999 2.69151e-06 0)
(2.99998 6.48311e-06 0)
(2.99995 1.48486e-05 0)
(1.28589 1.10402 0)
(1.70297 0.900082 0)
(1.88852 0.63061 0)
(1.9151 0.361511 0)
(1.86412 0.136585 0)
(1.76797 -0.0113792 0)
(1.67122 -0.0469245 0)
(1.62505 -0.0156157 0)
(1.61925 0.0248158 0)
(1.6236 0.0451797 0)
(1.62953 0.0434739 0)
(1.63267 0.0323181 0)
(1.63252 0.0217525 0)
(1.63197 0.0133943 0)
(1.6308 0.0100104 0)
(1.63096 0.0105651 0)
(1.63319 0.0118515 0)
(1.63617 0.0129075 0)
(1.63967 0.0134052 0)
(1.64412 0.0131071 0)
(1.64916 0.0116243 0)
(1.65429 0.00962155 0)
(1.65966 0.00807183 0)
(1.66543 0.00719002 0)
(1.67162 0.00670099 0)
(1.67816 0.00633597 0)
(1.68498 0.00595456 0)
(1.69203 0.00553167 0)
(1.69929 0.00509535 0)
(1.70674 0.00468263 0)
(1.71436 0.00431527 0)
(1.72212 0.00399942 0)
(1.73 0.00373108 0)
(1.73795 0.00350116 0)
(1.74594 0.00330356 0)
(1.75383 0.00314174 0)
(1.76146 0.00302224 0)
(1.76768 0.00298995 0)
(1.77242 0.00292374 0)
(1.77599 0.00285252 0)
(1.77639 0.00291973 0)
(1.76933 0.00344074 0)
(1.74525 0.00517738 0)
(1.68243 0.00986099 0)
(1.53017 0.0211992 0)
(1.17268 0.0483963 0)
(0.563997 0.118615 0)
(0.134341 0.140053 0)
(0.0685257 0.00162183 0)
(0.218772 -0.109058 0)
(0.365761 -0.125727 0)
(0.473076 -0.110215 0)
(0.572924 -0.0880106 0)
(0.664397 -0.0711621 0)
(0.743543 -0.0566591 0)
(0.813899 -0.0450544 0)
(0.882449 -0.0378353 0)
(0.94959 -0.0347701 0)
(1.01067 -0.0316969 0)
(1.06533 -0.0289277 0)
(1.11516 -0.0263403 0)
(1.16169 -0.0238603 0)
(1.20572 -0.0215838 0)
(1.24761 -0.0195623 0)
(1.28767 -0.0178265 0)
(1.32608 -0.0163371 0)
(1.36303 -0.0150461 0)
(1.39865 -0.0138949 0)
(1.43309 -0.0128381 0)
(1.46645 -0.0118495 0)
(1.49886 -0.0109112 0)
(1.53039 -0.0100246 0)
(1.56111 -0.00917483 0)
(1.59107 -0.00836806 0)
(1.62032 -0.00759508 0)
(1.64887 -0.0068622 0)
(1.67673 -0.00617056 0)
(1.70393 -0.00551813 0)
(1.73051 -0.00489818 0)
(1.75647 -0.00429437 0)
(1.78186 -0.00375653 0)
(1.8067 -0.00329248 0)
(1.83107 -0.00288551 0)
(1.85496 -0.00254118 0)
(1.87844 -0.00225211 0)
(1.90147 -0.00205787 0)
(1.92412 -0.0018832 0)
(1.94643 -0.00168561 0)
(1.96845 -0.00146149 0)
(1.9902 -0.00124295 0)
(2.01166 -0.00103352 0)
(2.03284 -0.000843887 0)
(2.05373 -0.000660112 0)
(2.07432 -0.000483597 0)
(2.09458 -0.000299431 0)
(2.1144 -9.90548e-05 0)
(2.13357 0.000134821 0)
(2.15139 0.000495083 0)
(2.16662 0.00087496 0)
(2.17815 0.00191894 0)
(1.3761 1.00942 0)
(1.69517 0.721579 0)
(1.87126 0.402375 0)
(1.95635 0.129488 0)
(2.00728 -0.0656631 0)
(2.03826 -0.167453 0)
(2.04835 -0.172423 0)
(2.04773 -0.130792 0)
(2.03524 -0.0822044 0)
(2.01473 -0.0434014 0)
(1.99934 -0.0216385 0)
(1.99575 -0.0153848 0)
(1.99736 -0.0172151 0)
(2.00041 -0.0216754 0)
(2.0038 -0.0242509 0)
(2.00593 -0.0245251 0)
(2.0073 -0.0233371 0)
(2.0086 -0.021375 0)
(2.01002 -0.0193425 0)
(2.0117 -0.017742 0)
(2.01376 -0.0169515 0)
(2.01657 -0.0166566 0)
(2.0201 -0.016497 0)
(2.02381 -0.016297 0)
(2.02747 -0.0160383 0)
(2.03113 -0.0157366 0)
(2.03487 -0.0154086 0)
(2.03877 -0.0150585 0)
(2.04285 -0.0146915 0)