/*--------------------------------*- C++ -*----------------------------------*\
  =========                 |
  \\      /  F ield         | OpenFOAM: The Open Source CFD Toolbox
   \\    /   O peration     | Website:  https://openfoam.org
    \\  /    A nd           | Version:  10
     \\/     M anipulation  |
\*---------------------------------------------------------------------------*/
FoamFile
{
    format      ascii;
    class       volScalarField;
    location    "0.82";
    object      Exp1;
}
// * * * * * * * * * * * * * * * * * * * * * * * * * * * * * * * * * * * * * //

dimensions      [0 0 0 0 0 0 0];

internalField   uniform 0;

boundaryField
{
    frontAndBack
    {
        type            empty;
    }
    inlet
    {
        type            calculated;
        value           uniform 0;
    }
    outlet
    {
        type            calculated;
        value           uniform 0;
    }
    substrate
    {
        type            calculated;
        value           nonuniform List<scalar> 
400
(
1.64695e-14
4.93221e-14
8.1974e-14
1.14337e-13
1.46334e-13
1.77899e-13
2.08974e-13
2.39508e-13
2.69455e-13
2.98779e-13
3.27446e-13
3.55429e-13
3.82706e-13
4.09259e-13
4.35077e-13
4.60149e-13
4.84471e-13
5.08039e-13
5.30856e-13
5.52924e-13
5.74251e-13
5.94842e-13
6.1471e-13
6.33864e-13
6.52318e-13
6.70085e-13
6.87181e-13
7.03621e-13
7.1942e-13
7.34595e-13
7.49163e-13
7.63141e-13
7.76545e-13
7.89393e-13
8.01701e-13
8.13486e-13
8.24765e-13
8.35552e-13
8.45865e-13
8.55717e-13
8.65125e-13
8.74104e-13
8.82666e-13
8.90826e-13
8.98597e-13
9.05992e-13
9.13023e-13
9.19703e-13
9.26042e-13
9.32052e-13
9.37744e-13
9.43128e-13
9.48213e-13
9.5301e-13
9.57526e-13
9.61771e-13
9.65754e-13
9.69481e-13
9.72961e-13
9.76202e-13
9.79209e-13
9.8199e-13
9.84551e-13
9.86899e-13
9.89039e-13
9.90977e-13
9.92718e-13
9.94268e-13
9.95631e-13
9.96813e-13
9.97817e-13
9.98649e-13
9.99312e-13
9.9981e-13
1.00015e-12
1.00033e-12
1.00036e-12
1.00024e-12
9.99967e-13
9.99555e-13
9.99004e-13
9.98315e-13
9.97492e-13
9.96538e-13
9.95454e-13
9.94245e-13
9.92913e-13
9.91459e-13
9.89887e-13
9.88199e-13
9.86396e-13
9.84482e-13
9.82459e-13
9.80328e-13
9.78091e-13
9.75752e-13
9.73311e-13
9.7077e-13
9.68132e-13
9.65398e-13
9.62571e-13
9.59652e-13
9.56642e-13
9.53544e-13
9.5036e-13
9.4709e-13
9.43737e-13
9.40302e-13
9.36787e-13
9.33194e-13
9.29524e-13
9.25779e-13
9.21961e-13
9.1807e-13
9.14108e-13
9.10078e-13
9.0598e-13
9.01817e-13
8.97588e-13
8.93297e-13
8.88944e-13
8.84532e-13
8.8006e-13
8.75532e-13
8.70948e-13
8.66309e-13
8.61618e-13
8.56875e-13
8.52082e-13
8.47241e-13
8.42352e-13
8.37418e-13
8.32439e-13
8.27416e-13
8.22352e-13
8.17248e-13
8.12105e-13
8.06923e-13
8.01706e-13
7.96453e-13
7.91166e-13
7.85847e-13
7.80497e-13
7.75117e-13
7.69708e-13
7.64272e-13
7.5881e-13
7.53322e-13
7.47812e-13
7.42278e-13
7.36724e-13
7.3115e-13
7.25557e-13
7.19946e-13
7.14319e-13
7.08677e-13
7.0302e-13
6.97351e-13
6.9167e-13
6.85979e-13
6.80278e-13
6.74569e-13
6.68852e-13
6.63129e-13
6.57401e-13
6.51669e-13
6.45934e-13
6.40197e-13
6.3446e-13
6.28722e-13
6.22985e-13
6.17251e-13
6.11519e-13
6.05791e-13
6.00069e-13
5.94352e-13
5.88643e-13
5.8294e-13
5.77247e-13
5.71563e-13
5.6589e-13
5.60228e-13
5.54578e-13
5.48941e-13
5.43318e-13
5.37709e-13
5.32116e-13
5.26538e-13
5.20978e-13
5.15436e-13
5.09911e-13
5.04406e-13
4.98921e-13
4.93456e-13
4.88013e-13
4.82591e-13
4.77192e-13
4.71816e-13
4.66464e-13
4.61136e-13
4.55833e-13
4.50556e-13
4.45304e-13
4.4008e-13
4.34882e-13
4.29713e-13
4.24571e-13
4.19458e-13
4.14375e-13
4.09321e-13
4.04297e-13
3.99304e-13
3.94341e-13
3.8941e-13
3.84511e-13
3.79644e-13
3.7481e-13
3.70008e-13
3.6524e-13
3.60505e-13
3.55804e-13
3.51138e-13
3.46505e-13
3.41908e-13
3.37346e-13
3.32818e-13
3.28327e-13
3.23871e-13
3.19451e-13
3.15067e-13
3.1072e-13
3.06409e-13
3.02135e-13
2.97898e-13
2.93698e-13
2.89535e-13
2.85409e-13
2.81321e-13
2.7727e-13
2.73257e-13
2.69281e-13
2.65343e-13
2.61443e-13
2.57581e-13
2.53757e-13
2.49971e-13
2.46222e-13
2.42512e-13
2.3884e-13
2.35205e-13
2.31609e-13
2.2805e-13
2.24529e-13
2.21047e-13
2.17602e-13
2.14194e-13
2.10825e-13
2.07493e-13
2.04198e-13
2.00941e-13
1.97722e-13
1.9454e-13
1.91394e-13
1.88286e-13
1.85215e-13
1.8218e-13
1.79183e-13
1.76221e-13
1.73296e-13
1.70408e-13
1.67555e-13
1.64738e-13
1.61957e-13
1.59211e-13
1.56501e-13
1.53826e-13
1.51186e-13
1.48581e-13
1.4601e-13
1.43474e-13
1.40972e-13
1.38504e-13
1.3607e-13
1.33669e-13
1.31302e-13
1.28968e-13
1.26666e-13
1.24398e-13
1.22161e-13
1.19957e-13
1.17785e-13
1.15645e-13
1.13536e-13
1.11458e-13
1.09412e-13
1.07396e-13
1.0541e-13
1.03455e-13
1.0153e-13
9.96346e-14
9.77686e-14
9.59319e-14
9.41241e-14
9.23451e-14
9.05945e-14
8.88721e-14
8.71776e-14
8.55108e-14
8.38715e-14
8.22593e-14
8.0674e-14
7.91153e-14
7.7583e-14
7.60768e-14
7.45965e-14
7.31418e-14
7.17125e-14
7.03082e-14
6.89287e-14
6.75739e-14
6.62433e-14
6.49368e-14
6.36542e-14
6.23951e-14
6.11593e-14
5.99465e-14
5.87566e-14
5.75893e-14
5.64443e-14
5.53214e-14
5.42203e-14
5.31409e-14
5.20828e-14
5.10459e-14
5.00299e-14
4.90345e-14
4.80596e-14
4.7105e-14
4.61703e-14
4.52555e-14
4.43602e-14
4.34842e-14
4.26274e-14
4.17895e-14
4.09703e-14
4.01697e-14
3.93873e-14
3.86231e-14
3.78768e-14
3.71482e-14
3.64372e-14
3.57435e-14
3.5067e-14
3.44074e-14
3.37647e-14
3.31386e-14
3.2529e-14
3.19356e-14
3.13584e-14
3.07972e-14
3.02517e-14
2.97219e-14
2.92077e-14
2.87087e-14
2.8225e-14
2.77564e-14
2.73027e-14
2.68638e-14
2.64396e-14
2.603e-14
2.56347e-14
2.52538e-14
2.48871e-14
2.45345e-14
2.41958e-14
2.3871e-14
2.356e-14
2.32627e-14
2.29789e-14
2.27087e-14
2.24518e-14
2.22084e-14
2.19781e-14
2.17611e-14
2.15572e-14
2.13663e-14
2.11884e-14
2.10235e-14
2.08715e-14
2.07322e-14
2.06058e-14
2.04922e-14
2.03912e-14
2.0303e-14
2.02274e-14
2.01645e-14
2.01141e-14
2.00764e-14
2.00512e-14
2.00387e-14
)
;
    }
    Wall
    {
        type            calculated;
        value           nonuniform List<scalar> 
400
(
1.64696e-14
4.93222e-14
8.19742e-14
1.14337e-13
1.46334e-13
1.77899e-13
2.08974e-13
2.39508e-13
2.69456e-13
2.98779e-13
3.27446e-13
3.55429e-13
3.82706e-13
4.0926e-13
4.35077e-13
4.60149e-13
4.84471e-13
5.08039e-13
5.30856e-13
5.52924e-13
5.7425e-13
5.94842e-13
6.14709e-13
6.33864e-13
6.52318e-13
6.70085e-13
6.87181e-13
7.0362e-13
7.19419e-13
7.34594e-13
7.49163e-13
7.6314e-13
7.76545e-13
7.89393e-13
8.01701e-13
8.13486e-13
8.24764e-13
8.35551e-13
8.45864e-13
8.55716e-13
8.65124e-13
8.74102e-13
8.82665e-13
8.90824e-13
8.98595e-13
9.0599e-13
9.13022e-13
9.19701e-13
9.26041e-13
9.32051e-13
9.37743e-13
9.43126e-13
9.48212e-13
9.53008e-13
9.57524e-13
9.61769e-13
9.65752e-13
9.69479e-13
9.72959e-13
9.76199e-13
9.79207e-13
9.81988e-13
9.84549e-13
9.86897e-13
9.89037e-13
9.90974e-13
9.92716e-13
9.94265e-13
9.95629e-13
9.9681e-13
9.97814e-13
9.98646e-13
9.99309e-13
9.99808e-13
1.00015e-12
1.00033e-12
1.00035e-12
1.00023e-12
9.99964e-13
9.99553e-13
9.99001e-13
9.98312e-13
9.97489e-13
9.96535e-13
9.95452e-13
9.94242e-13
9.9291e-13
9.91456e-13
9.89884e-13
9.88196e-13
9.86393e-13
9.84479e-13
9.82456e-13
9.80325e-13
9.78088e-13
9.75749e-13
9.73307e-13
9.70767e-13
9.68129e-13
9.65395e-13
9.62568e-13
9.59649e-13
9.56639e-13
9.53541e-13
9.50356e-13
9.47087e-13
9.43734e-13
9.40299e-13
9.36784e-13
9.33191e-13
9.29521e-13
9.25776e-13
9.21958e-13
9.18067e-13
9.14105e-13
9.10075e-13
9.05977e-13
9.01814e-13
8.97585e-13
8.93294e-13
8.88941e-13
8.84529e-13
8.80057e-13
8.75529e-13
8.70945e-13
8.66306e-13
8.61615e-13
8.56872e-13
8.52079e-13
8.47238e-13
8.42349e-13
8.37415e-13
8.32436e-13
8.27414e-13
8.2235e-13
8.17245e-13
8.12102e-13
8.06921e-13
8.01703e-13
7.9645e-13
7.91164e-13
7.85845e-13
7.80494e-13
7.75114e-13
7.69705e-13
7.64269e-13
7.58807e-13
7.5332e-13
7.47809e-13
7.42276e-13
7.36721e-13
7.31147e-13
7.25554e-13
7.19943e-13
7.14316e-13
7.08674e-13
7.03018e-13
6.97349e-13
6.91668e-13
6.85977e-13
6.80276e-13
6.74566e-13
6.6885e-13
6.63127e-13
6.57399e-13
6.51667e-13
6.45932e-13
6.40195e-13
6.34457e-13
6.2872e-13
6.22983e-13
6.17248e-13
6.11517e-13
6.05789e-13
6.00067e-13
5.9435e-13
5.8864e-13
5.82938e-13
5.77245e-13
5.71561e-13
5.65888e-13
5.60226e-13
5.54576e-13
5.48939e-13
5.43316e-13
5.37707e-13
5.32114e-13
5.26537e-13
5.20976e-13
5.15434e-13
5.0991e-13
5.04405e-13
4.98919e-13
4.93455e-13
4.88011e-13
4.82589e-13
4.7719e-13
4.71814e-13
4.66462e-13
4.61134e-13
4.55831e-13
4.50554e-13
4.45303e-13
4.40078e-13
4.34881e-13
4.29711e-13
4.24569e-13
4.19457e-13
4.14373e-13
4.09319e-13
4.04295e-13
3.99302e-13
3.9434e-13
3.89409e-13
3.8451e-13
3.79643e-13
3.74808e-13
3.70007e-13
3.65239e-13
3.60504e-13
3.55803e-13
3.51136e-13
3.46504e-13
3.41907e-13
3.37344e-13
3.32817e-13
3.28326e-13
3.2387e-13
3.1945e-13
3.15066e-13
3.10719e-13
3.06408e-13
3.02134e-13
2.97897e-13
2.93697e-13
2.89534e-13
2.85408e-13
2.8132e-13
2.77269e-13
2.73256e-13
2.6928e-13
2.65342e-13
2.61442e-13
2.5758e-13
2.53756e-13
2.4997e-13
2.46221e-13
2.42511e-13
2.38839e-13
2.35204e-13
2.31608e-13
2.28049e-13
2.24529e-13
2.21046e-13
2.17601e-13
2.14194e-13
2.10824e-13
2.07492e-13
2.04198e-13
2.00941e-13
1.97721e-13
1.94539e-13
1.91394e-13
1.88285e-13
1.85214e-13
1.8218e-13
1.79182e-13
1.76221e-13
1.73296e-13
1.70407e-13
1.67554e-13
1.64737e-13
1.61956e-13
1.59211e-13
1.56501e-13
1.53826e-13
1.51186e-13
1.4858e-13
1.4601e-13
1.43474e-13
1.40972e-13
1.38504e-13
1.36069e-13
1.33669e-13
1.31301e-13
1.28967e-13
1.26666e-13
1.24397e-13
1.22161e-13
1.19957e-13
1.17785e-13
1.15644e-13
1.13536e-13
1.11458e-13
1.09411e-13
1.07395e-13
1.0541e-13
1.03455e-13
1.0153e-13
9.96342e-14
9.77682e-14
9.59315e-14
9.41238e-14
9.23447e-14
9.05941e-14
8.88717e-14
8.71773e-14
8.55105e-14
8.38712e-14
8.2259e-14
8.06737e-14
7.9115e-14
7.75827e-14
7.60766e-14
7.45963e-14
7.31415e-14
7.17122e-14
7.03079e-14
6.89285e-14
6.75736e-14
6.62431e-14
6.49366e-14
6.36539e-14
6.23948e-14
6.1159e-14
5.99463e-14
5.87564e-14
5.75891e-14
5.64441e-14
5.53212e-14
5.42201e-14
5.31407e-14
5.20826e-14
5.10457e-14
5.00297e-14
4.90344e-14
4.80595e-14
4.71048e-14
4.61702e-14
4.52553e-14
4.436e-14
4.3484e-14
4.26272e-14
4.17893e-14
4.09702e-14
4.01695e-14
3.93872e-14
3.8623e-14
3.78767e-14
3.71481e-14
3.64371e-14
3.57434e-14
3.50669e-14
3.44073e-14
3.37646e-14
3.31385e-14
3.25288e-14
3.19355e-14
3.13583e-14
3.0797e-14
3.02516e-14
2.97218e-14
2.92076e-14
2.87086e-14
2.82249e-14
2.77563e-14
2.73026e-14
2.68637e-14
2.64395e-14
2.60299e-14
2.56347e-14
2.52537e-14
2.4887e-14
2.45344e-14
2.41957e-14
2.38709e-14
2.35599e-14
2.32626e-14
2.29788e-14
2.27086e-14
2.24518e-14
2.22083e-14
2.19781e-14
2.1761e-14
2.15571e-14
2.13662e-14
2.11884e-14
2.10234e-14
2.08714e-14
2.07322e-14
2.06058e-14
2.04921e-14
2.03912e-14
2.03029e-14
2.02273e-14
2.01644e-14
2.0114e-14
2.00763e-14
2.00512e-14
2.00386e-14
)
;
    }
}


// ************************************************************************* //
