/*--------------------------------*- C++ -*----------------------------------*\
  =========                 |
  \\      /  F ield         | OpenFOAM: The Open Source CFD Toolbox
   \\    /   O peration     | Website:  https://openfoam.org
    \\  /    A nd           | Version:  10
     \\/     M anipulation  |
\*---------------------------------------------------------------------------*/
FoamFile
{
    format      ascii;
    class       volScalarField;
    location    "0.48";
    object      cov;
}
// * * * * * * * * * * * * * * * * * * * * * * * * * * * * * * * * * * * * * //

dimensions      [0 0 0 0 0 0 0];

internalField   uniform 0;

boundaryField
{
    frontAndBack
    {
        type            empty;
    }
    inlet
    {
        type            calculated;
        value           uniform 0;
    }
    outlet
    {
        type            calculated;
        value           uniform 0;
    }
    substrate
    {
        type            calculated;
        value           nonuniform List<scalar> 
400
(
0.734673
0.712425
0.691347
0.670899
0.650825
0.631001
0.611366
0.591896
0.572587
0.553452
0.534506
0.515774
0.497281
0.479053
0.461116
0.443497
0.426218
0.409302
0.392768
0.376634
0.360915
0.345622
0.330766
0.316355
0.302393
0.288885
0.27583
0.26323
0.25108
0.239379
0.228119
0.217296
0.206901
0.196927
0.187364
0.178201
0.16943
0.161039
0.153016
0.145351
0.138033
0.131048
0.124386
0.118034
0.111982
0.106218
0.10073
0.0955079
0.0905398
0.0858154
0.0813243
0.0770564
0.0730018
0.069151
0.0654948
0.0620242
0.0587306
0.0556057
0.0526416
0.0498305
0.0471651
0.0446382
0.0422432
0.0399735
0.0378229
0.0357854
0.0338554
0.0320274
0.0302963
0.0286571
0.0271052
0.025636
0.0242452
0.0229289
0.021683
0.0205041
0.0193884
0.0183329
0.0173341
0.0163893
0.0154955
0.01465
0.0138502
0.0130938
0.0123783
0.0117017
0.0110618
0.0104567
0.00988455
0.00934349
0.00883189
0.00834816
0.00789081
0.0074584
0.00704958
0.00666309
0.0062977
0.00595228
0.00562575
0.00531707
0.00502528
0.00474945
0.00448872
0.00424228
0.00400933
0.00378914
0.00358102
0.0033843
0.00319838
0.00302265
0.00285655
0.00269957
0.00255121
0.00241098
0.00227846
0.0021532
0.00203483
0.00192295
0.00181722
0.0017173
0.00162286
0.00153362
0.00144928
0.00136957
0.00129424
0.00122305
0.00115578
0.0010922
0.00103212
0.000975338
0.00092168
0.000870973
0.000823054
0.000777769
0.000734976
0.000694535
0.000656319
0.000620204
0.000586076
0.000553825
0.000523348
0.000494548
0.000467332
0.000441613
0.000417309
0.000394342
0.000372638
0.000352129
0.000332748
0.000314433
0.000297127
0.000280772
0.000265317
0.000250713
0.000236912
0.000223871
0.000211547
0.000199902
0.000188897
0.000178499
0.000168672
0.000159386
0.000150611
0.000142319
0.000134484
0.000127079
0.000120083
0.000113471
0.000107223
0.000101319
9.57401e-05
9.04682e-05
8.54865e-05
8.0779e-05
7.63306e-05
7.21271e-05
6.81549e-05
6.44015e-05
6.08546e-05
5.7503e-05
5.43359e-05
5.13431e-05
4.85151e-05
4.58428e-05
4.33176e-05
4.09314e-05
3.86766e-05
3.65459e-05
3.45325e-05
3.263e-05
3.08322e-05
2.91335e-05
2.75282e-05
2.60114e-05
2.4578e-05
2.32236e-05
2.19438e-05
2.07344e-05
1.95917e-05
1.85119e-05
1.74915e-05
1.65273e-05
1.56163e-05
1.47554e-05
1.39419e-05
1.31733e-05
1.24469e-05
1.17606e-05
1.11121e-05
1.04993e-05
9.92027e-06
9.37313e-06
8.85614e-06
8.36763e-06
7.90603e-06
7.46987e-06
7.05774e-06
6.66832e-06
6.30036e-06
5.95267e-06
5.62415e-06
5.31373e-06
5.02042e-06
4.74328e-06
4.48141e-06
4.23398e-06
4.00019e-06
3.77929e-06
3.57056e-06
3.37335e-06
3.187e-06
3.01094e-06
2.84458e-06
2.6874e-06
2.53888e-06
2.39856e-06
2.26598e-06
2.14071e-06
2.02235e-06
1.91053e-06
1.80487e-06
1.70504e-06
1.61073e-06
1.52161e-06
1.43742e-06
1.35788e-06
1.28272e-06
1.21172e-06
1.14463e-06
1.08125e-06
1.02137e-06
9.64798e-07
9.1135e-07
8.60855e-07
8.1315e-07
7.68081e-07
7.25502e-07
6.85277e-07
6.47275e-07
6.11374e-07
5.77458e-07
5.45417e-07
5.15148e-07
4.86554e-07
4.59541e-07
4.34023e-07
4.09917e-07
3.87144e-07
3.65633e-07
3.45312e-07
3.26116e-07
3.07983e-07
2.90855e-07
2.74675e-07
2.59392e-07
2.44955e-07
2.31319e-07
2.18439e-07
2.06272e-07
1.94781e-07
1.83927e-07
1.73674e-07
1.63991e-07
1.54845e-07
1.46207e-07
1.38048e-07
1.30343e-07
1.23065e-07
1.16192e-07
1.097e-07
1.0357e-07
9.77799e-08
9.2312e-08
8.71483e-08
8.22718e-08
7.76667e-08
7.3318e-08
6.92113e-08
6.53333e-08
6.16714e-08
5.82135e-08
5.49483e-08
5.18651e-08
4.89539e-08
4.62051e-08
4.36097e-08
4.11591e-08
3.88453e-08
3.66608e-08
3.45983e-08
3.26511e-08
3.08127e-08
2.90772e-08
2.74387e-08
2.58919e-08
2.44317e-08
2.30532e-08
2.1752e-08
2.05237e-08
1.93643e-08
1.82699e-08
1.72368e-08
1.62618e-08
1.53415e-08
1.44729e-08
1.36531e-08
1.28794e-08
1.21492e-08
1.14601e-08
1.08098e-08
1.01961e-08
9.61694e-09
9.07047e-09
8.55481e-09
8.06825e-09
7.60916e-09
7.176e-09
6.76732e-09
6.38176e-09
6.01801e-09
5.67485e-09
5.35114e-09
5.04578e-09
4.75774e-09
4.48605e-09
4.22981e-09
3.98813e-09
3.76021e-09
3.54527e-09
3.34258e-09
3.15147e-09
2.97127e-09
2.80139e-09
2.64123e-09
2.49026e-09
2.34796e-09
2.21385e-09
2.08747e-09
1.96838e-09
1.85619e-09
1.7505e-09
1.65095e-09
1.55721e-09
1.46895e-09
1.38587e-09
1.30768e-09
1.23411e-09
1.16491e-09
1.09984e-09
1.03867e-09
9.81202e-10
9.27226e-10
8.76559e-10
8.29024e-10
7.84457e-10
7.42702e-10
7.03615e-10
6.6706e-10
6.32908e-10
6.01042e-10
5.71349e-10
5.43727e-10
5.18078e-10
4.94313e-10
4.72349e-10
4.52109e-10
4.33521e-10
4.16521e-10
4.0105e-10
3.87051e-10
3.74478e-10
3.63284e-10
3.53431e-10
3.44885e-10
3.37615e-10
3.31595e-10
3.26804e-10
3.23226e-10
3.20847e-10
3.1966e-10
)
;
    }
    Wall
    {
        type            calculated;
        value           nonuniform List<scalar> 
400
(
0.734673
0.712424
0.691347
0.670899
0.650826
0.631001
0.611366
0.591895
0.572587
0.553451
0.534506
0.515774
0.497281
0.479053
0.461117
0.443498
0.42622
0.409304
0.392771
0.376637
0.360918
0.345625
0.33077
0.316358
0.302397
0.288889
0.275835
0.263234
0.251085
0.239384
0.228124
0.217301
0.206906
0.196932
0.187369
0.178206
0.169435
0.161044
0.153021
0.145356
0.138037
0.131053
0.12439
0.118039
0.111987
0.106223
0.100735
0.0955121
0.0905439
0.0858194
0.0813282
0.0770601
0.0730054
0.0691545
0.0654981
0.0620274
0.0587337
0.0556087
0.0526444
0.0498332
0.0471676
0.0446407
0.0422456
0.0399757
0.037825
0.0357874
0.0338573
0.0320293
0.0302981
0.0286588
0.0271068
0.0256375
0.0242466
0.0229302
0.0216843
0.0205053
0.0193896
0.0183339
0.0173352
0.0163902
0.0154964
0.0146508
0.013851
0.0130945
0.012379
0.0117024
0.0110625
0.0104573
0.0098851
0.00934401
0.00883237
0.00834862
0.00789123
0.00745879
0.00704995
0.00666343
0.00629803
0.00595259
0.00562603
0.00531733
0.00502552
0.00474968
0.00448894
0.00424247
0.00400951
0.00378931
0.00358118
0.00338445
0.00319852
0.00302277
0.00285667
0.00269968
0.00255131
0.00241108
0.00227854
0.00215328
0.0020349
0.00192302
0.00181729
0.00171736
0.00162292
0.00153367
0.00144932
0.00136961
0.00129428
0.00122309
0.00115581
0.00109223
0.00103215
0.000975364
0.000921704
0.000870995
0.000823074
0.000777788
0.000734993
0.000694551
0.000656333
0.000620217
0.000586088
0.000553836
0.000523358
0.000494557
0.00046734
0.00044162
0.000417316
0.000394348
0.000372644
0.000352134
0.000332753
0.000314438
0.000297131
0.000280776
0.000265321
0.000250716
0.000236915
0.000223874
0.00021155
0.000199904
0.000188899
0.0001785
0.000168673
0.000159387
0.000150612
0.00014232
0.000134485
0.00012708
0.000120083
0.000113472
0.000107224
0.00010132
9.57406e-05
9.04687e-05
8.54869e-05
8.07794e-05
7.6331e-05
7.21274e-05
6.81552e-05
6.44017e-05
6.08548e-05
5.75032e-05
5.4336e-05
5.13433e-05
4.85152e-05
4.58429e-05
4.33177e-05
4.09315e-05
3.86767e-05
3.6546e-05
3.45326e-05
3.26301e-05
3.08323e-05
2.91335e-05
2.75283e-05
2.60114e-05
2.45781e-05
2.32236e-05
2.19438e-05
2.07345e-05
1.95917e-05
1.85119e-05
1.74915e-05
1.65274e-05
1.56163e-05
1.47554e-05
1.39419e-05
1.31733e-05
1.24469e-05
1.17606e-05
1.11121e-05
1.04993e-05
9.92027e-06
9.37313e-06
8.85614e-06
8.36763e-06
7.90603e-06
7.46987e-06
7.05774e-06
6.66832e-06
6.30036e-06
5.95267e-06
5.62415e-06
5.31373e-06
5.02042e-06
4.74328e-06
4.48141e-06
4.23398e-06
4.00019e-06
3.77929e-06
3.57056e-06
3.37334e-06
3.187e-06
3.01094e-06
2.84458e-06
2.6874e-06
2.53888e-06
2.39856e-06
2.26598e-06
2.14071e-06
2.02235e-06
1.91053e-06
1.80487e-06
1.70504e-06
1.61073e-06
1.52161e-06
1.43742e-06
1.35788e-06
1.28272e-06
1.21172e-06
1.14463e-06
1.08125e-06
1.02137e-06
9.64798e-07
9.1135e-07
8.60855e-07
8.1315e-07
7.68081e-07
7.25502e-07
6.85277e-07
6.47275e-07
6.11374e-07
5.77458e-07
5.45417e-07
5.15148e-07
4.86554e-07
4.59541e-07
4.34023e-07
4.09917e-07
3.87145e-07
3.65633e-07
3.45312e-07
3.26116e-07
3.07983e-07
2.90855e-07
2.74675e-07
2.59392e-07
2.44956e-07
2.31319e-07
2.18439e-07
2.06273e-07
1.94781e-07
1.83927e-07
1.73675e-07
1.63991e-07
1.54845e-07
1.46207e-07
1.38048e-07
1.30343e-07
1.23065e-07
1.16192e-07
1.097e-07
1.0357e-07
9.778e-08
9.23121e-08
8.71484e-08
8.22719e-08
7.76668e-08
7.3318e-08
6.92114e-08
6.53334e-08
6.16715e-08
5.82135e-08
5.49484e-08
5.18652e-08
4.8954e-08
4.62052e-08
4.36097e-08
4.11592e-08
3.88454e-08
3.66609e-08
3.45984e-08
3.26511e-08
3.08128e-08
2.90772e-08
2.74387e-08
2.58919e-08
2.44317e-08
2.30533e-08
2.17521e-08
2.05238e-08
1.93643e-08
1.82699e-08
1.72369e-08
1.62618e-08
1.53415e-08
1.44729e-08
1.36531e-08
1.28794e-08
1.21492e-08
1.14601e-08
1.08098e-08
1.01961e-08
9.61697e-09
9.07049e-09
8.55483e-09
8.06827e-09
7.60918e-09
7.17602e-09
6.76734e-09
6.38177e-09
6.01802e-09
5.67487e-09
5.35115e-09
5.04579e-09
4.75775e-09
4.48607e-09
4.22982e-09
3.98814e-09
3.76022e-09
3.54528e-09
3.34259e-09
3.15148e-09
2.97128e-09
2.8014e-09
2.64124e-09
2.49027e-09
2.34797e-09
2.21386e-09
2.08748e-09
1.96839e-09
1.8562e-09
1.75051e-09
1.65096e-09
1.55722e-09
1.46896e-09
1.38587e-09
1.30768e-09
1.23411e-09
1.16491e-09
1.09984e-09
1.03868e-09
9.81206e-10
9.27231e-10
8.76563e-10
8.29028e-10
7.84461e-10
7.42706e-10
7.03619e-10
6.67063e-10
6.32911e-10
6.01045e-10
5.71352e-10
5.43729e-10
5.18081e-10
4.94316e-10
4.72352e-10
4.52111e-10
4.33524e-10
4.16524e-10
4.01052e-10
3.87054e-10
3.7448e-10
3.63286e-10
3.53434e-10
3.44887e-10
3.37617e-10
3.31597e-10
3.26806e-10
3.23228e-10
3.20849e-10
3.19661e-10
)
;
    }
}


// ************************************************************************* //
