/*--------------------------------*- C++ -*----------------------------------*\
  =========                 |
  \\      /  F ield         | OpenFOAM: The Open Source CFD Toolbox
   \\    /   O peration     | Website:  https://openfoam.org
    \\  /    A nd           | Version:  10
     \\/     M anipulation  |
\*---------------------------------------------------------------------------*/
FoamFile
{
    format      ascii;
    class       volScalarField;
    location    "0.48";
    object      Exp1;
}
// * * * * * * * * * * * * * * * * * * * * * * * * * * * * * * * * * * * * * //

dimensions      [0 0 0 0 0 0 0];

internalField   uniform 0;

boundaryField
{
    frontAndBack
    {
        type            empty;
    }
    inlet
    {
        type            calculated;
        value           uniform 0;
    }
    outlet
    {
        type            calculated;
        value           uniform 0;
    }
    substrate
    {
        type            calculated;
        value           nonuniform List<scalar> 
400
(
1.53435e-09
4.5948e-09
7.63603e-09
1.06495e-08
1.36277e-08
1.65642e-08
1.94532e-08
2.22897e-08
2.50693e-08
2.7788e-08
3.04426e-08
3.30302e-08
3.55488e-08
3.79962e-08
4.03712e-08
4.26727e-08
4.49e-08
4.70527e-08
4.91307e-08
5.11343e-08
5.30638e-08
5.49198e-08
5.67032e-08
5.84149e-08
6.0056e-08
6.16277e-08
6.31313e-08
6.4568e-08
6.59395e-08
6.7247e-08
6.84922e-08
6.96766e-08
7.08017e-08
7.1869e-08
7.288e-08
7.38364e-08
7.47396e-08
7.55912e-08
7.63925e-08
7.7145e-08
7.78501e-08
7.85093e-08
7.91238e-08
7.9695e-08
8.02241e-08
8.07124e-08
8.11611e-08
8.15713e-08
8.19442e-08
8.22808e-08
8.25823e-08
8.28496e-08
8.30838e-08
8.32858e-08
8.34565e-08
8.35968e-08
8.37077e-08
8.37899e-08
8.38442e-08
8.38716e-08
8.38726e-08
8.38481e-08
8.37988e-08
8.37254e-08
8.36285e-08
8.35088e-08
8.3367e-08
8.32037e-08
8.30194e-08
8.28148e-08
8.25905e-08
8.23469e-08
8.20847e-08
8.18044e-08
8.15065e-08
8.11914e-08
8.08598e-08
8.05121e-08
8.01487e-08
7.97702e-08
7.9377e-08
7.89695e-08
7.85482e-08
7.81136e-08
7.7666e-08
7.72058e-08
7.67336e-08
7.62496e-08
7.57543e-08
7.52481e-08
7.47314e-08
7.42046e-08
7.3668e-08
7.3122e-08
7.25669e-08
7.20032e-08
7.14313e-08
7.08513e-08
7.02638e-08
6.9669e-08
6.90673e-08
6.84591e-08
6.78445e-08
6.72241e-08
6.65981e-08
6.59668e-08
6.53305e-08
6.46896e-08
6.40443e-08
6.3395e-08
6.27419e-08
6.20854e-08
6.14257e-08
6.07632e-08
6.0098e-08
5.94305e-08
5.8761e-08
5.80897e-08
5.74169e-08
5.67429e-08
5.60678e-08
5.5392e-08
5.47156e-08
5.40391e-08
5.33625e-08
5.26861e-08
5.20101e-08
5.13348e-08
5.06604e-08
4.99871e-08
4.93151e-08
4.86446e-08
4.79759e-08
4.7309e-08
4.66443e-08
4.59818e-08
4.53218e-08
4.46645e-08
4.401e-08
4.33585e-08
4.27102e-08
4.20652e-08
4.14237e-08
4.07857e-08
4.01516e-08
3.95214e-08
3.88952e-08
3.82732e-08
3.76555e-08
3.70423e-08
3.64335e-08
3.58295e-08
3.52302e-08
3.46358e-08
3.40464e-08
3.34621e-08
3.28829e-08
3.23089e-08
3.17403e-08
3.11771e-08
3.06194e-08
3.00673e-08
2.95208e-08
2.89799e-08
2.84448e-08
2.79156e-08
2.73921e-08
2.68746e-08
2.6363e-08
2.58573e-08
2.53577e-08
2.48641e-08
2.43766e-08
2.38952e-08
2.342e-08
2.29508e-08
2.24878e-08
2.2031e-08
2.15804e-08
2.11359e-08
2.06976e-08
2.02655e-08
1.98396e-08
1.94198e-08
1.90062e-08
1.85987e-08
1.81974e-08
1.78023e-08
1.74132e-08
1.70302e-08
1.66532e-08
1.62823e-08
1.59174e-08
1.55585e-08
1.52055e-08
1.48584e-08
1.45172e-08
1.41818e-08
1.38522e-08
1.35284e-08
1.32103e-08
1.28978e-08
1.2591e-08
1.22897e-08
1.1994e-08
1.17038e-08
1.14189e-08
1.11395e-08
1.08654e-08
1.05965e-08
1.03329e-08
1.00744e-08
9.82099e-09
9.57265e-09
9.32929e-09
9.09086e-09
8.8573e-09
8.62854e-09
8.40453e-09
8.1852e-09
7.9705e-09
7.76035e-09
7.55471e-09
7.3535e-09
7.15667e-09
6.96415e-09
6.77588e-09
6.5918e-09
6.41184e-09
6.23593e-09
6.06403e-09
5.89605e-09
5.73195e-09
5.57166e-09
5.41511e-09
5.26224e-09
5.11299e-09
4.9673e-09
4.82511e-09
4.68635e-09
4.55096e-09
4.41889e-09
4.29007e-09
4.16444e-09
4.04194e-09
3.92252e-09
3.80612e-09
3.69267e-09
3.58212e-09
3.47441e-09
3.36949e-09
3.2673e-09
3.16778e-09
3.07089e-09
2.97655e-09
2.88474e-09
2.79538e-09
2.70842e-09
2.62382e-09
2.54153e-09
2.46149e-09
2.38365e-09
2.30797e-09
2.23439e-09
2.16287e-09
2.09336e-09
2.02582e-09
1.9602e-09
1.89646e-09
1.83454e-09
1.77441e-09
1.71603e-09
1.65935e-09
1.60433e-09
1.55093e-09
1.49911e-09
1.44884e-09
1.40006e-09
1.35275e-09
1.30687e-09
1.26238e-09
1.21924e-09
1.17743e-09
1.1369e-09
1.09762e-09
1.05957e-09
1.02269e-09
9.86979e-10
9.52387e-10
9.18888e-10
8.86453e-10
8.55052e-10
8.24658e-10
7.95241e-10
7.66775e-10
7.39232e-10
7.12587e-10
6.86815e-10
6.6189e-10
6.37788e-10
6.14485e-10
5.91957e-10
5.70183e-10
5.4914e-10
5.28806e-10
5.09161e-10
4.90183e-10
4.71853e-10
4.54151e-10
4.37058e-10
4.20556e-10
4.04625e-10
3.8925e-10
3.74412e-10
3.60094e-10
3.46281e-10
3.32957e-10
3.20105e-10
3.07712e-10
2.95762e-10
2.84242e-10
2.73137e-10
2.62434e-10
2.52119e-10
2.42182e-10
2.32607e-10
2.23385e-10
2.14504e-10
2.05951e-10
1.97716e-10
1.89788e-10
1.82158e-10
1.74815e-10
1.67748e-10
1.6095e-10
1.5441e-10
1.48121e-10
1.42072e-10
1.36256e-10
1.30665e-10
1.25292e-10
1.20127e-10
1.15165e-10
1.10398e-10
1.05819e-10
1.01422e-10
9.71993e-11
9.31459e-11
8.92555e-11
8.55221e-11
8.19403e-11
7.85046e-11
7.52098e-11
7.20508e-11
6.90228e-11
6.61211e-11
6.3341e-11
6.06784e-11
5.81289e-11
5.56885e-11
5.33532e-11
5.11194e-11
4.89835e-11
4.69418e-11
4.49911e-11
4.31282e-11
4.135e-11
3.96534e-11
3.80358e-11
3.64943e-11
3.50263e-11
3.36294e-11
3.23011e-11
3.10393e-11
2.98416e-11
2.8706e-11
2.76306e-11
2.66134e-11
2.56527e-11
2.47468e-11
2.38941e-11
2.3093e-11
2.23422e-11
2.16403e-11
2.0986e-11
2.03782e-11
1.98157e-11
1.92976e-11
1.88229e-11
1.83907e-11
1.80004e-11
1.7651e-11
1.73421e-11
1.7073e-11
1.68432e-11
1.66524e-11
1.65002e-11
1.63862e-11
1.63104e-11
1.62725e-11
)
;
    }
    Wall
    {
        type            calculated;
        value           nonuniform List<scalar> 
400
(
1.53435e-09
4.59484e-09
7.63612e-09
1.06496e-08
1.36279e-08
1.65644e-08
1.94534e-08
2.22899e-08
2.50694e-08
2.7788e-08
3.04426e-08
3.30302e-08
3.55487e-08
3.79961e-08
4.0371e-08
4.26724e-08
4.48996e-08
4.70523e-08
4.91302e-08
5.11337e-08
5.30632e-08
5.49192e-08
5.67025e-08
5.84141e-08
6.00552e-08
6.16268e-08
6.31303e-08
6.4567e-08
6.59384e-08
6.72459e-08
6.8491e-08
6.96753e-08
7.08004e-08
7.18676e-08
7.28786e-08
7.3835e-08
7.47381e-08
7.55896e-08
7.63909e-08
7.71434e-08
7.78485e-08
7.85076e-08
7.91221e-08
7.96933e-08
8.02223e-08
8.07106e-08
8.11592e-08
8.15694e-08
8.19423e-08
8.22789e-08
8.25804e-08
8.28477e-08
8.30818e-08
8.32838e-08
8.34545e-08
8.35948e-08
8.37056e-08
8.37878e-08
8.38422e-08
8.38695e-08
8.38705e-08
8.3846e-08
8.37967e-08
8.37232e-08
8.36263e-08
8.35067e-08
8.33648e-08
8.32015e-08
8.30172e-08
8.28126e-08
8.25883e-08
8.23447e-08
8.20825e-08
8.18022e-08
8.15043e-08
8.11892e-08
8.08576e-08
8.05099e-08
8.01465e-08
7.9768e-08
7.93748e-08
7.89673e-08
7.85461e-08
7.81114e-08
7.76638e-08
7.72037e-08
7.67314e-08
7.62475e-08
7.57522e-08
7.5246e-08
7.47293e-08
7.42025e-08
7.36659e-08
7.31199e-08
7.25649e-08
7.20012e-08
7.14292e-08
7.08493e-08
7.02618e-08
6.9667e-08
6.90653e-08
6.84571e-08
6.78426e-08
6.72222e-08
6.65961e-08
6.59648e-08
6.53286e-08
6.46877e-08
6.40424e-08
6.33931e-08
6.27401e-08
6.20836e-08
6.14239e-08
6.07614e-08
6.00963e-08
5.94288e-08
5.87593e-08
5.8088e-08
5.74152e-08
5.67412e-08
5.60661e-08
5.53903e-08
5.4714e-08
5.40375e-08
5.33609e-08
5.26845e-08
5.20086e-08
5.13333e-08
5.06589e-08
4.99856e-08
4.93136e-08
4.86432e-08
4.79744e-08
4.73076e-08
4.66429e-08
4.59804e-08
4.53205e-08
4.46632e-08
4.40087e-08
4.33572e-08
4.27089e-08
4.20639e-08
4.14224e-08
4.07845e-08
4.01504e-08
3.95202e-08
3.8894e-08
3.8272e-08
3.76544e-08
3.70411e-08
3.64324e-08
3.58284e-08
3.52292e-08
3.46348e-08
3.40454e-08
3.3461e-08
3.28819e-08
3.2308e-08
3.17394e-08
3.11762e-08
3.06185e-08
3.00664e-08
2.95199e-08
2.89791e-08
2.8444e-08
2.79147e-08
2.73913e-08
2.68738e-08
2.63622e-08
2.58565e-08
2.53569e-08
2.48634e-08
2.43759e-08
2.38945e-08
2.34193e-08
2.29501e-08
2.24872e-08
2.20303e-08
2.15797e-08
2.11352e-08
2.0697e-08
2.02649e-08
1.9839e-08
1.94192e-08
1.90056e-08
1.85982e-08
1.81969e-08
1.78017e-08
1.74126e-08
1.70297e-08
1.66527e-08
1.62818e-08
1.59169e-08
1.5558e-08
1.5205e-08
1.48579e-08
1.45167e-08
1.41814e-08
1.38518e-08
1.3528e-08
1.32099e-08
1.28974e-08
1.25906e-08
1.22894e-08
1.19936e-08
1.17034e-08
1.14186e-08
1.11392e-08
1.0865e-08
1.05962e-08
1.03326e-08
1.00741e-08
9.8207e-09
9.57237e-09
9.32902e-09
9.09059e-09
8.85704e-09
8.62828e-09
8.40428e-09
8.18496e-09
7.97026e-09
7.76012e-09
7.55449e-09
7.35329e-09
7.15646e-09
6.96395e-09
6.77569e-09
6.59161e-09
6.41165e-09
6.23575e-09
6.06385e-09
5.89588e-09
5.73179e-09
5.5715e-09
5.41495e-09
5.26209e-09
5.11284e-09
4.96716e-09
4.82497e-09
4.68621e-09
4.55083e-09
4.41876e-09
4.28994e-09
4.16432e-09
4.04183e-09
3.92241e-09
3.80601e-09
3.69256e-09
3.58202e-09
3.47431e-09
3.36939e-09
3.26721e-09
3.16769e-09
3.0708e-09
2.97647e-09
2.88465e-09
2.7953e-09
2.70835e-09
2.62375e-09
2.54146e-09
2.46142e-09
2.38358e-09
2.3079e-09
2.23433e-09
2.16281e-09
2.09331e-09
2.02577e-09
1.96015e-09
1.89641e-09
1.83449e-09
1.77437e-09
1.71598e-09
1.65931e-09
1.60429e-09
1.55089e-09
1.49907e-09
1.4488e-09
1.40002e-09
1.35272e-09
1.30684e-09
1.26235e-09
1.21921e-09
1.1774e-09
1.13687e-09
1.09759e-09
1.05954e-09
1.02267e-09
9.86953e-10
9.52362e-10
9.18864e-10
8.8643e-10
8.5503e-10
8.24637e-10
7.9522e-10
7.66755e-10
7.39213e-10
7.12569e-10
6.86798e-10
6.61873e-10
6.37772e-10
6.14469e-10
5.91943e-10
5.70169e-10
5.49126e-10
5.28793e-10
5.09148e-10
4.90171e-10
4.71842e-10
4.5414e-10
4.37048e-10
4.20545e-10
4.04616e-10
3.8924e-10
3.74403e-10
3.60086e-10
3.46273e-10
3.32949e-10
3.20098e-10
3.07705e-10
2.95755e-10
2.84235e-10
2.7313e-10
2.62428e-10
2.52114e-10
2.42176e-10
2.32602e-10
2.2338e-10
2.14499e-10
2.05946e-10
1.97711e-10
1.89784e-10
1.82154e-10
1.74811e-10
1.67745e-10
1.60946e-10
1.54407e-10
1.48117e-10
1.42069e-10
1.36253e-10
1.30663e-10
1.25289e-10
1.20125e-10
1.15163e-10
1.10396e-10
1.05817e-10
1.01419e-10
9.71973e-11
9.3144e-11
8.92537e-11
8.55204e-11
8.19387e-11
7.85031e-11
7.52084e-11
7.20494e-11
6.90215e-11
6.61198e-11
6.33398e-11
6.06772e-11
5.81278e-11
5.56874e-11
5.33523e-11
5.11185e-11
4.89826e-11
4.69409e-11
4.49903e-11
4.31274e-11
4.13492e-11
3.96528e-11
3.80351e-11
3.64937e-11
3.50257e-11
3.36289e-11
3.23006e-11
3.10388e-11
2.98411e-11
2.87055e-11
2.76301e-11
2.6613e-11
2.56523e-11
2.47464e-11
2.38937e-11
2.30927e-11
2.23419e-11
2.164e-11
2.09857e-11
2.03779e-11
1.98154e-11
1.92973e-11
1.88227e-11
1.83905e-11
1.80001e-11
1.76508e-11
1.73419e-11
1.70728e-11
1.6843e-11
1.66522e-11
1.65e-11
1.6386e-11
1.63103e-11
1.62724e-11
)
;
    }
}


// ************************************************************************* //
