/*--------------------------------*- C++ -*----------------------------------*\
  =========                 |
  \\      /  F ield         | OpenFOAM: The Open Source CFD Toolbox
   \\    /   O peration     | Website:  https://openfoam.org
    \\  /    A nd           | Version:  10
     \\/     M anipulation  |
\*---------------------------------------------------------------------------*/
FoamFile
{
    format      ascii;
    class       volScalarField;
    location    "0.48";
    object      N1;
}
// * * * * * * * * * * * * * * * * * * * * * * * * * * * * * * * * * * * * * //

dimensions      [0 0 0 0 0 0 0];

internalField   nonuniform List<scalar> 
8000
(
1.16472e-08
3.48928e-08
5.80096e-08
8.09318e-08
1.03602e-07
1.25971e-07
1.47995e-07
1.69633e-07
1.90852e-07
2.11622e-07
2.31916e-07
2.51714e-07
2.70996e-07
2.89748e-07
3.07957e-07
3.25616e-07
3.42716e-07
3.59256e-07
3.75233e-07
3.90647e-07
4.05501e-07
4.19799e-07
4.33546e-07
4.46747e-07
4.59412e-07
4.71548e-07
4.83165e-07
4.94272e-07
5.04879e-07
5.14998e-07
5.24639e-07
5.33813e-07
5.42533e-07
5.50809e-07
5.58652e-07
5.66075e-07
5.73089e-07
5.79705e-07
5.85933e-07
5.91786e-07
5.97272e-07
6.02404e-07
6.07191e-07
6.11643e-07
6.1577e-07
6.19581e-07
6.23086e-07
6.26293e-07
6.29211e-07
6.31849e-07
6.34215e-07
6.36316e-07
6.3816e-07
6.39755e-07
6.41108e-07
6.42225e-07
6.43115e-07
6.43782e-07
6.44233e-07
6.44475e-07
6.44514e-07
6.44354e-07
6.44003e-07
6.43464e-07
6.42744e-07
6.41847e-07
6.40779e-07
6.39544e-07
6.38148e-07
6.36593e-07
6.34886e-07
6.33031e-07
6.3103e-07
6.2889e-07
6.26613e-07
6.24205e-07
6.21667e-07
6.19006e-07
6.16223e-07
6.13323e-07
6.10309e-07
6.07185e-07
6.03955e-07
6.00621e-07
5.97186e-07
5.93655e-07
5.90031e-07
5.86316e-07
5.82513e-07
5.78626e-07
5.74658e-07
5.70612e-07
5.6649e-07
5.62296e-07
5.58032e-07
5.53701e-07
5.49306e-07
5.44849e-07
5.40334e-07
5.35763e-07
5.31139e-07
5.26464e-07
5.21741e-07
5.16972e-07
5.12159e-07
5.07306e-07
5.02415e-07
4.97488e-07
4.92527e-07
4.87535e-07
4.82514e-07
4.77467e-07
4.72395e-07
4.673e-07
4.62186e-07
4.57054e-07
4.51906e-07
4.46744e-07
4.41571e-07
4.36387e-07
4.31196e-07
4.26e-07
4.20799e-07
4.15596e-07
4.10393e-07
4.05192e-07
3.99994e-07
3.94801e-07
3.89615e-07
3.84437e-07
3.79269e-07
3.74113e-07
3.6897e-07
3.63841e-07
3.58729e-07
3.53635e-07
3.48559e-07
3.43504e-07
3.38471e-07
3.33461e-07
3.28475e-07
3.23514e-07
3.1858e-07
3.13675e-07
3.08798e-07
3.03951e-07
2.99135e-07
2.94352e-07
2.89601e-07
2.84885e-07
2.80203e-07
2.75558e-07
2.70949e-07
2.66378e-07
2.61845e-07
2.57351e-07
2.52896e-07
2.48482e-07
2.44109e-07
2.39778e-07
2.35489e-07
2.31242e-07
2.27039e-07
2.2288e-07
2.18765e-07
2.14694e-07
2.10668e-07
2.06688e-07
2.02753e-07
1.98864e-07
1.95022e-07
1.91226e-07
1.87477e-07
1.83774e-07
1.80119e-07
1.76511e-07
1.7295e-07
1.69437e-07
1.65971e-07
1.62553e-07
1.59182e-07
1.55859e-07
1.52583e-07
1.49355e-07
1.46174e-07
1.4304e-07
1.39954e-07
1.36914e-07
1.33922e-07
1.30976e-07
1.28077e-07
1.25225e-07
1.22418e-07
1.19658e-07
1.16943e-07
1.14274e-07
1.11649e-07
1.0907e-07
1.06535e-07
1.04045e-07
1.01598e-07
9.91951e-08
9.68353e-08
9.45184e-08
9.2244e-08
9.00118e-08
8.78213e-08
8.56721e-08
8.35639e-08
8.14961e-08
7.94685e-08
7.74805e-08
7.55318e-08
7.36218e-08
7.17502e-08
6.99164e-08
6.81201e-08
6.63608e-08
6.46379e-08
6.29511e-08
6.12999e-08
5.96837e-08
5.81021e-08
5.65547e-08
5.50409e-08
5.35603e-08
5.21123e-08
5.06965e-08
4.93125e-08
4.79596e-08
4.66375e-08
4.53457e-08
4.40836e-08
4.28508e-08
4.16468e-08
4.04711e-08
3.93232e-08
3.82027e-08
3.71092e-08
3.6042e-08
3.50007e-08
3.3985e-08
3.29942e-08
3.20281e-08
3.1086e-08
3.01675e-08
2.92723e-08
2.83997e-08
2.75495e-08
2.67212e-08
2.59142e-08
2.51283e-08
2.43629e-08
2.36177e-08
2.28922e-08
2.21861e-08
2.14988e-08
2.08301e-08
2.01794e-08
1.95465e-08
1.89309e-08
1.83323e-08
1.77502e-08
1.71843e-08
1.66343e-08
1.60997e-08
1.55803e-08
1.50756e-08
1.45854e-08
1.41092e-08
1.36468e-08
1.31977e-08
1.27618e-08
1.23387e-08
1.1928e-08
1.15295e-08
1.11428e-08
1.07677e-08
1.04038e-08
1.00509e-08
9.70877e-09
9.37702e-09
9.05543e-09
8.74373e-09
8.44165e-09
8.14896e-09
7.86539e-09
7.59071e-09
7.32466e-09
7.06703e-09
6.81758e-09
6.57608e-09
6.34232e-09
6.11608e-09
5.89715e-09
5.68532e-09
5.4804e-09
5.28219e-09
5.0905e-09
4.90513e-09
4.72591e-09
4.55265e-09
4.38519e-09
4.22335e-09
4.06697e-09
3.91588e-09
3.76992e-09
3.62895e-09
3.49281e-09
3.36135e-09
3.23443e-09
3.11191e-09
2.99366e-09
2.87954e-09
2.76943e-09
2.6632e-09
2.56072e-09
2.46188e-09
2.36657e-09
2.27466e-09
2.18606e-09
2.10065e-09
2.01834e-09
1.93901e-09
1.86258e-09
1.78895e-09
1.71802e-09
1.64971e-09
1.58394e-09
1.5206e-09
1.45963e-09
1.40095e-09
1.34447e-09
1.29013e-09
1.23784e-09
1.18755e-09
1.13917e-09
1.09265e-09
1.04793e-09
1.00493e-09
9.63599e-10
9.23881e-10
8.85717e-10
8.49054e-10
8.13838e-10
7.80018e-10
7.47545e-10
7.16371e-10
6.8645e-10
6.57738e-10
6.30191e-10
6.03767e-10
5.78427e-10
5.54132e-10
5.30844e-10
5.08527e-10
4.87146e-10
4.66668e-10
4.4706e-10
4.28292e-10
4.10332e-10
3.93152e-10
3.76724e-10
3.61022e-10
3.4602e-10
3.31692e-10
3.18016e-10
3.04969e-10
2.92528e-10
2.80672e-10
2.69382e-10
2.58639e-10
2.48423e-10
2.38718e-10
2.29507e-10
2.20773e-10
2.12502e-10
2.0468e-10
1.97291e-10
1.90324e-10
1.83766e-10
1.77605e-10
1.7183e-10
1.66432e-10
1.614e-10
1.56725e-10
1.524e-10
1.48415e-10
1.44764e-10
1.4144e-10
1.38438e-10
1.35751e-10
1.33375e-10
1.31306e-10
1.29539e-10
1.28071e-10
1.269e-10
1.26024e-10
1.25441e-10
1.2515e-10
1.17663e-08
3.52607e-08
5.86459e-08
8.18585e-08
1.04842e-07
1.27547e-07
1.49927e-07
1.71943e-07
1.93559e-07
2.14744e-07
2.35471e-07
2.55714e-07
2.75456e-07
2.94678e-07
3.13368e-07
3.31513e-07
3.49107e-07
3.66144e-07
3.82621e-07
3.98535e-07
4.13889e-07
4.28683e-07
4.42923e-07
4.56613e-07
4.69759e-07
4.8237e-07
4.94452e-07
5.06015e-07
5.17068e-07
5.27622e-07
5.37686e-07
5.47272e-07
5.5639e-07
5.65052e-07
5.73268e-07
5.8105e-07
5.8841e-07
5.95357e-07
6.01903e-07
6.0806e-07
6.13837e-07
6.19245e-07
6.24295e-07
6.28996e-07
6.3336e-07
6.37394e-07
6.41109e-07
6.44513e-07
6.47616e-07
6.50427e-07
6.52953e-07
6.55203e-07
6.57185e-07
6.58907e-07
6.60375e-07
6.61598e-07
6.62582e-07
6.63334e-07
6.6386e-07
6.64168e-07
6.64263e-07
6.64151e-07
6.63838e-07
6.63329e-07
6.62632e-07
6.61749e-07
6.60688e-07
6.59452e-07
6.58048e-07
6.56478e-07
6.5475e-07
6.52866e-07
6.50831e-07
6.4865e-07
6.46327e-07
6.43866e-07
6.41271e-07
6.38547e-07
6.35696e-07
6.32723e-07
6.29632e-07
6.26425e-07
6.23108e-07
6.19683e-07
6.16153e-07
6.12523e-07
6.08795e-07
6.04974e-07
6.01061e-07
5.9706e-07
5.92975e-07
5.88809e-07
5.84564e-07
5.80244e-07
5.75851e-07
5.71389e-07
5.6686e-07
5.62267e-07
5.57613e-07
5.52902e-07
5.48134e-07
5.43314e-07
5.38444e-07
5.33526e-07
5.28564e-07
5.23559e-07
5.18514e-07
5.13433e-07
5.08316e-07
5.03167e-07
4.97987e-07
4.9278e-07
4.87548e-07
4.82292e-07
4.77016e-07
4.71721e-07
4.66409e-07
4.61084e-07
4.55746e-07
4.50397e-07
4.45041e-07
4.39679e-07
4.34312e-07
4.28943e-07
4.23574e-07
4.18207e-07
4.12842e-07
4.07483e-07
4.02131e-07
3.96788e-07
3.91455e-07
3.86134e-07
3.80826e-07
3.75533e-07
3.70257e-07
3.65e-07
3.59762e-07
3.54544e-07
3.4935e-07
3.44179e-07
3.39033e-07
3.33913e-07
3.28821e-07
3.23758e-07
3.18724e-07
3.13722e-07
3.08752e-07
3.03814e-07
2.98912e-07
2.94044e-07
2.89212e-07
2.84417e-07
2.7966e-07
2.74942e-07
2.70263e-07
2.65625e-07
2.61028e-07
2.56472e-07
2.51958e-07
2.47488e-07
2.43061e-07
2.38678e-07
2.3434e-07
2.30046e-07
2.25799e-07
2.21597e-07
2.17442e-07
2.13334e-07
2.09273e-07
2.05259e-07
2.01293e-07
1.97375e-07
1.93505e-07
1.89684e-07
1.85911e-07
1.82187e-07
1.78512e-07
1.74886e-07
1.71308e-07
1.6778e-07
1.64301e-07
1.60871e-07
1.5749e-07
1.54158e-07
1.50874e-07
1.4764e-07
1.44454e-07
1.41317e-07
1.38229e-07
1.35188e-07
1.32196e-07
1.29252e-07
1.26355e-07
1.23506e-07
1.20704e-07
1.17948e-07
1.1524e-07
1.12578e-07
1.09961e-07
1.07391e-07
1.04865e-07
1.02385e-07
9.99494e-08
9.7558e-08
9.52105e-08
9.29065e-08
9.06455e-08
8.84272e-08
8.62512e-08
8.4117e-08
8.20241e-08
7.99722e-08
7.79608e-08
7.59894e-08
7.40576e-08
7.21649e-08
7.03108e-08
6.84949e-08
6.67166e-08
6.49756e-08
6.32712e-08
6.16031e-08
5.99707e-08
5.83734e-08
5.6811e-08
5.52827e-08
5.37882e-08
5.23269e-08
5.08983e-08
4.9502e-08
4.81374e-08
4.6804e-08
4.55013e-08
4.42288e-08
4.29861e-08
4.17726e-08
4.05878e-08
3.94313e-08
3.83026e-08
3.72011e-08
3.61263e-08
3.50779e-08
3.40553e-08
3.30581e-08
3.20857e-08
3.11377e-08
3.02136e-08
2.93131e-08
2.84355e-08
2.75805e-08
2.67476e-08
2.59364e-08
2.51464e-08
2.43772e-08
2.36284e-08
2.28996e-08
2.21902e-08
2.14999e-08
2.08284e-08
2.01751e-08
1.95397e-08
1.89218e-08
1.8321e-08
1.7737e-08
1.71693e-08
1.66175e-08
1.60814e-08
1.55604e-08
1.50544e-08
1.45629e-08
1.40856e-08
1.36222e-08
1.31722e-08
1.27355e-08
1.23116e-08
1.19002e-08
1.15011e-08
1.11139e-08
1.07384e-08
1.03742e-08
1.0021e-08
9.67858e-09
9.34664e-09
9.02492e-09
8.71313e-09
8.41102e-09
8.11834e-09
7.83482e-09
7.56022e-09
7.2943e-09
7.03682e-09
6.78756e-09
6.54628e-09
6.31276e-09
6.08679e-09
5.86816e-09
5.65665e-09
5.45206e-09
5.2542e-09
5.06287e-09
4.87789e-09
4.69906e-09
4.52622e-09
4.35917e-09
4.19776e-09
4.04181e-09
3.89116e-09
3.74566e-09
3.60513e-09
3.46945e-09
3.33845e-09
3.21199e-09
3.08993e-09
2.97215e-09
2.85849e-09
2.74884e-09
2.64307e-09
2.54105e-09
2.44267e-09
2.34781e-09
2.25636e-09
2.16821e-09
2.08324e-09
2.00137e-09
1.92248e-09
1.84648e-09
1.77327e-09
1.70277e-09
1.63487e-09
1.5695e-09
1.50657e-09
1.446e-09
1.38771e-09
1.33162e-09
1.27765e-09
1.22574e-09
1.17581e-09
1.12779e-09
1.08163e-09
1.03725e-09
9.94587e-10
9.53592e-10
9.14201e-10
8.76358e-10
8.4001e-10
8.05102e-10
7.71585e-10
7.39409e-10
7.08526e-10
6.7889e-10
6.50457e-10
6.23184e-10
5.97029e-10
5.71952e-10
5.47916e-10
5.24881e-10
5.02813e-10
4.81676e-10
4.61437e-10
4.42065e-10
4.23528e-10
4.05795e-10
3.88839e-10
3.72632e-10
3.57147e-10
3.42359e-10
3.28243e-10
3.14776e-10
3.01935e-10
2.89698e-10
2.78045e-10
2.66956e-10
2.56412e-10
2.46395e-10
2.36888e-10
2.27873e-10
2.19336e-10
2.11262e-10
2.03636e-10
1.96444e-10
1.89675e-10
1.83316e-10
1.77356e-10
1.71784e-10
1.6659e-10
1.61765e-10
1.57301e-10
1.53188e-10
1.49419e-10
1.45989e-10
1.4289e-10
1.40117e-10
1.37664e-10
1.35528e-10
1.33705e-10
1.3219e-10
1.30981e-10
1.30077e-10
1.29475e-10
1.29174e-10
1.18831e-08
3.56163e-08
5.92524e-08
8.27319e-08
1.06e-07
1.29007e-07
1.51708e-07
1.74061e-07
1.96032e-07
2.17586e-07
2.38696e-07
2.59337e-07
2.79487e-07
2.99127e-07
3.18243e-07
3.36822e-07
3.54854e-07
3.72333e-07
3.89254e-07
4.05614e-07
4.21412e-07
4.36649e-07
4.51328e-07
4.65453e-07
4.79028e-07
4.92061e-07
5.04559e-07
5.16529e-07
5.27981e-07
5.38923e-07
5.49366e-07
5.5932e-07
5.68795e-07
5.77802e-07
5.86352e-07
5.94456e-07
6.02125e-07
6.0937e-07
6.16202e-07
6.22631e-07
6.28669e-07
6.34325e-07
6.39612e-07
6.44537e-07
6.49113e-07
6.53348e-07
6.57252e-07
6.60834e-07
6.64104e-07
6.6707e-07
6.69741e-07
6.72126e-07
6.74232e-07
6.76067e-07
6.7764e-07
6.78958e-07
6.80028e-07
6.80856e-07
6.81451e-07
6.81818e-07
6.81964e-07
6.81895e-07
6.81617e-07
6.81137e-07
6.80459e-07
6.7959e-07
6.78535e-07
6.773e-07
6.75888e-07
6.74306e-07
6.72559e-07
6.7065e-07
6.68585e-07
6.66368e-07
6.64004e-07
6.61496e-07
6.5885e-07
6.56069e-07
6.53158e-07
6.5012e-07
6.46959e-07
6.43679e-07
6.40284e-07
6.36777e-07
6.33163e-07
6.29444e-07
6.25624e-07
6.21707e-07
6.17695e-07
6.13593e-07
6.09403e-07
6.05129e-07
6.00774e-07
5.96341e-07
5.91833e-07
5.87253e-07
5.82604e-07
5.77889e-07
5.73111e-07
5.68273e-07
5.63378e-07
5.58428e-07
5.53426e-07
5.48375e-07
5.43278e-07
5.38137e-07
5.32955e-07
5.27734e-07
5.22478e-07
5.17187e-07
5.11866e-07
5.06516e-07
5.0114e-07
4.9574e-07
4.90318e-07
4.84877e-07
4.79419e-07
4.73946e-07
4.6846e-07
4.62964e-07
4.57459e-07
4.51948e-07
4.46433e-07
4.40916e-07
4.35397e-07
4.29881e-07
4.24368e-07
4.1886e-07
4.13359e-07
4.07867e-07
4.02386e-07
3.96916e-07
3.91461e-07
3.86021e-07
3.80598e-07
3.75194e-07
3.6981e-07
3.64448e-07
3.59108e-07
3.53793e-07
3.48504e-07
3.43241e-07
3.38007e-07
3.32803e-07
3.27629e-07
3.22487e-07
3.17378e-07
3.12303e-07
3.07263e-07
3.02259e-07
2.97293e-07
2.92364e-07
2.87475e-07
2.82625e-07
2.77815e-07
2.73047e-07
2.68322e-07
2.63638e-07
2.58999e-07
2.54404e-07
2.49853e-07
2.45348e-07
2.40888e-07
2.36475e-07
2.32109e-07
2.2779e-07
2.23519e-07
2.19296e-07
2.15121e-07
2.10995e-07
2.06919e-07
2.02891e-07
1.98913e-07
1.94985e-07
1.91107e-07
1.87279e-07
1.83501e-07
1.79773e-07
1.76096e-07
1.72469e-07
1.68893e-07
1.65367e-07
1.61891e-07
1.58466e-07
1.55091e-07
1.51766e-07
1.48492e-07
1.45267e-07
1.42092e-07
1.38967e-07
1.35891e-07
1.32864e-07
1.29886e-07
1.26958e-07
1.24077e-07
1.21245e-07
1.18461e-07
1.15724e-07
1.13035e-07
1.10392e-07
1.07796e-07
1.05247e-07
1.02743e-07
1.00285e-07
9.78716e-08
9.55031e-08
9.3179e-08
9.08987e-08
8.86619e-08
8.6468e-08
8.43166e-08
8.22074e-08
8.01398e-08
7.81133e-08
7.61275e-08
7.41819e-08
7.2276e-08
7.04093e-08
6.85813e-08
6.67916e-08
6.50396e-08
6.33249e-08
6.16468e-08
6.0005e-08
5.83988e-08
5.68278e-08
5.52915e-08
5.37894e-08
5.23209e-08
5.08855e-08
4.94828e-08
4.81121e-08
4.6773e-08
4.5465e-08
4.41875e-08
4.29401e-08
4.17223e-08
4.05334e-08
3.93731e-08
3.82408e-08
3.71361e-08
3.60583e-08
3.50072e-08
3.3982e-08
3.29825e-08
3.2008e-08
3.10581e-08
3.01324e-08
2.92303e-08
2.83514e-08
2.74952e-08
2.66613e-08
2.58493e-08
2.50586e-08
2.42888e-08
2.35396e-08
2.28104e-08
2.21009e-08
2.14105e-08
2.0739e-08
2.00859e-08
1.94507e-08
1.88331e-08
1.82327e-08
1.76491e-08
1.7082e-08
1.65308e-08
1.59954e-08
1.54752e-08
1.497e-08
1.44793e-08
1.40029e-08
1.35404e-08
1.30914e-08
1.26557e-08
1.22328e-08
1.18226e-08
1.14246e-08
1.10385e-08
1.06641e-08
1.03011e-08
9.94909e-09
9.60788e-09
9.27716e-09
8.95666e-09
8.64611e-09
8.34524e-09
8.0538e-09
7.77153e-09
7.49818e-09
7.2335e-09
6.97727e-09
6.72925e-09
6.48921e-09
6.25692e-09
6.03217e-09
5.81475e-09
5.60445e-09
5.40106e-09
5.20438e-09
5.01423e-09
4.8304e-09
4.65272e-09
4.48101e-09
4.31509e-09
4.15478e-09
3.99992e-09
3.85035e-09
3.7059e-09
3.56642e-09
3.43176e-09
3.30176e-09
3.1763e-09
3.05522e-09
2.93839e-09
2.82567e-09
2.71694e-09
2.61208e-09
2.51095e-09
2.41344e-09
2.31943e-09
2.22881e-09
2.14147e-09
2.05731e-09
1.97621e-09
1.89809e-09
1.82284e-09
1.75036e-09
1.68057e-09
1.61337e-09
1.54868e-09
1.48642e-09
1.4265e-09
1.36884e-09
1.31336e-09
1.26e-09
1.20867e-09
1.15931e-09
1.11186e-09
1.06624e-09
1.02239e-09
9.80245e-10
9.39753e-10
9.00853e-10
8.63488e-10
8.27605e-10
7.93151e-10
7.60075e-10
7.28329e-10
6.97865e-10
6.68638e-10
6.40602e-10
6.13716e-10
5.87939e-10
5.6323e-10
5.39552e-10
5.16866e-10
4.95139e-10
4.74335e-10
4.54421e-10
4.35365e-10
4.17137e-10
3.99708e-10
3.83048e-10
3.6713e-10
3.51928e-10
3.37418e-10
3.23574e-10
3.10374e-10
2.97795e-10
2.85817e-10
2.74418e-10
2.63579e-10
2.53282e-10
2.43509e-10
2.34242e-10
2.25467e-10
2.17167e-10
2.09327e-10
2.01935e-10
1.94977e-10
1.8844e-10
1.82313e-10
1.76586e-10
1.71247e-10
1.66287e-10
1.61697e-10
1.57469e-10
1.53596e-10
1.50069e-10
1.46884e-10
1.44033e-10
1.41512e-10
1.39316e-10
1.37442e-10
1.35885e-10
1.34642e-10
1.33713e-10
1.33094e-10
1.32785e-10
1.19924e-08
3.59472e-08
5.98129e-08
8.35333e-08
1.07056e-07
1.30331e-07
1.53315e-07
1.75966e-07
1.98248e-07
2.20127e-07
2.41573e-07
2.62561e-07
2.83068e-07
3.03075e-07
3.22564e-07
3.41522e-07
3.59938e-07
3.77804e-07
3.95114e-07
4.11864e-07
4.28051e-07
4.43676e-07
4.5874e-07
4.73246e-07
4.87199e-07
5.00603e-07
5.13466e-07
5.25794e-07
5.37595e-07
5.4888e-07
5.59656e-07
5.69933e-07
5.79723e-07
5.89034e-07
5.97878e-07
6.06266e-07
6.14208e-07
6.21715e-07
6.28798e-07
6.35468e-07
6.41736e-07
6.47612e-07
6.53107e-07
6.58231e-07
6.62994e-07
6.67407e-07
6.71478e-07
6.75217e-07
6.78634e-07
6.81738e-07
6.84538e-07
6.87042e-07
6.89258e-07
6.91195e-07
6.9286e-07
6.94262e-07
6.95408e-07
6.96305e-07
6.9696e-07
6.9738e-07
6.97571e-07
6.97541e-07
6.97295e-07
6.9684e-07
6.96181e-07
6.95324e-07
6.94275e-07
6.93039e-07
6.91623e-07
6.9003e-07
6.88266e-07
6.86335e-07
6.84244e-07
6.81995e-07
6.79595e-07
6.77047e-07
6.74356e-07
6.71526e-07
6.68561e-07
6.65466e-07
6.62244e-07
6.58899e-07
6.55436e-07
6.51857e-07
6.48168e-07
6.44371e-07
6.4047e-07
6.36468e-07
6.3237e-07
6.28178e-07
6.23896e-07
6.19527e-07
6.15075e-07
6.10542e-07
6.05932e-07
6.01248e-07
5.96494e-07
5.91671e-07
5.86784e-07
5.81834e-07
5.76826e-07
5.71762e-07
5.66644e-07
5.61476e-07
5.5626e-07
5.50999e-07
5.45695e-07
5.40352e-07
5.34972e-07
5.29557e-07
5.24111e-07
5.18635e-07
5.13132e-07
5.07604e-07
5.02054e-07
4.96484e-07
4.90897e-07
4.85294e-07
4.79678e-07
4.74051e-07
4.68416e-07
4.62774e-07
4.57128e-07
4.51479e-07
4.45829e-07
4.40181e-07
4.34537e-07
4.28897e-07
4.23265e-07
4.17642e-07
4.1203e-07
4.0643e-07
4.00844e-07
3.95274e-07
3.89722e-07
3.84189e-07
3.78676e-07
3.73185e-07
3.67718e-07
3.62276e-07
3.5686e-07
3.51471e-07
3.46112e-07
3.40783e-07
3.35485e-07
3.3022e-07
3.24989e-07
3.19792e-07
3.14632e-07
3.09508e-07
3.04423e-07
2.99376e-07
2.94369e-07
2.89403e-07
2.84478e-07
2.79596e-07
2.74757e-07
2.69962e-07
2.65211e-07
2.60505e-07
2.55846e-07
2.51232e-07
2.46666e-07
2.42147e-07
2.37676e-07
2.33254e-07
2.2888e-07
2.24556e-07
2.20281e-07
2.16057e-07
2.11882e-07
2.07758e-07
2.03685e-07
1.99662e-07
1.95691e-07
1.91771e-07
1.87903e-07
1.84086e-07
1.8032e-07
1.76606e-07
1.72944e-07
1.69333e-07
1.65775e-07
1.62267e-07
1.58811e-07
1.55407e-07
1.52054e-07
1.48752e-07
1.455e-07
1.423e-07
1.39151e-07
1.36051e-07
1.33002e-07
1.30003e-07
1.27054e-07
1.24153e-07
1.21302e-07
1.185e-07
1.15746e-07
1.1304e-07
1.10382e-07
1.07771e-07
1.05208e-07
1.0269e-07
1.00219e-07
9.77941e-08
9.54142e-08
9.30792e-08
9.07887e-08
8.85422e-08
8.63393e-08
8.41794e-08
8.20622e-08
7.99871e-08
7.79537e-08
7.59614e-08
7.40098e-08
7.20983e-08
7.02265e-08
6.83938e-08
6.65998e-08
6.48439e-08
6.31256e-08
6.14444e-08
5.97997e-08
5.81911e-08
5.66179e-08
5.50797e-08
5.3576e-08
5.21062e-08
5.06698e-08
4.92662e-08
4.7895e-08
4.65556e-08
4.52475e-08
4.39702e-08
4.27231e-08
4.15057e-08
4.03176e-08
3.91582e-08
3.80269e-08
3.69233e-08
3.58469e-08
3.47972e-08
3.37737e-08
3.27758e-08
3.18031e-08
3.08552e-08
2.99314e-08
2.90315e-08
2.81548e-08
2.73009e-08
2.64693e-08
2.56597e-08
2.48715e-08
2.41043e-08
2.33576e-08
2.2631e-08
2.19241e-08
2.12365e-08
2.05677e-08
1.99173e-08
1.92849e-08
1.86701e-08
1.80725e-08
1.74917e-08
1.69274e-08
1.63791e-08
1.58464e-08
1.53291e-08
1.48266e-08
1.43388e-08
1.38652e-08
1.34055e-08
1.29593e-08
1.25263e-08
1.21062e-08
1.16986e-08
1.13033e-08
1.09199e-08
1.05482e-08
1.01878e-08
9.83836e-09
9.4997e-09
9.17152e-09
8.85351e-09
8.54543e-09
8.24699e-09
7.95795e-09
7.67804e-09
7.40702e-09
7.14464e-09
6.89067e-09
6.64487e-09
6.40701e-09
6.17687e-09
5.95423e-09
5.73889e-09
5.53062e-09
5.32922e-09
5.13451e-09
4.94627e-09
4.76433e-09
4.5885e-09
4.4186e-09
4.25444e-09
4.09587e-09
3.94271e-09
3.79479e-09
3.65197e-09
3.51408e-09
3.38097e-09
3.25249e-09
3.12851e-09
3.00887e-09
2.89345e-09
2.78212e-09
2.67473e-09
2.57118e-09
2.47133e-09
2.37507e-09
2.28227e-09
2.19284e-09
2.10666e-09
2.02362e-09
1.94362e-09
1.86656e-09
1.79235e-09
1.72088e-09
1.65207e-09
1.58583e-09
1.52207e-09
1.46071e-09
1.40167e-09
1.34486e-09
1.29022e-09
1.23766e-09
1.18712e-09
1.13853e-09
1.09181e-09
1.04691e-09
1.00376e-09
9.62296e-10
9.22462e-10
8.84201e-10
8.47457e-10
8.12177e-10
7.78308e-10
7.458e-10
7.14605e-10
6.84676e-10
6.55968e-10
6.28438e-10
6.02042e-10
5.7674e-10
5.52494e-10
5.29265e-10
5.07016e-10
4.85713e-10
4.65321e-10
4.45809e-10
4.27143e-10
4.09296e-10
3.92236e-10
3.75936e-10
3.6037e-10
3.45512e-10
3.31336e-10
3.17819e-10
3.04939e-10
2.92673e-10
2.81e-10
2.69902e-10
2.59358e-10
2.4935e-10
2.39861e-10
2.30875e-10
2.22376e-10
2.14348e-10
2.06779e-10
1.99654e-10
1.9296e-10
1.86687e-10
1.80821e-10
1.75354e-10
1.70276e-10
1.65576e-10
1.61247e-10
1.5728e-10
1.53669e-10
1.50407e-10
1.47488e-10
1.44907e-10
1.42658e-10
1.40738e-10
1.39144e-10
1.37872e-10
1.3692e-10
1.36286e-10
1.3597e-10
1.20906e-08
3.62437e-08
6.03132e-08
8.42456e-08
1.0799e-07
1.31499e-07
1.54727e-07
1.77635e-07
2.00185e-07
2.22342e-07
2.44078e-07
2.65364e-07
2.86178e-07
3.06498e-07
3.26307e-07
3.4559e-07
3.64335e-07
3.82534e-07
4.00177e-07
4.17261e-07
4.33783e-07
4.49741e-07
4.65135e-07
4.79969e-07
4.94245e-07
5.07969e-07
5.21145e-07
5.33781e-07
5.45884e-07
5.57462e-07
5.68525e-07
5.79082e-07
5.89142e-07
5.98715e-07
6.07813e-07
6.16445e-07
6.24622e-07
6.32356e-07
6.39657e-07
6.46535e-07
6.53001e-07
6.59067e-07
6.64742e-07
6.70038e-07
6.74963e-07
6.79529e-07
6.83745e-07
6.8762e-07
6.91165e-07
6.94388e-07
6.97299e-07
6.99906e-07
7.02218e-07
7.04242e-07
7.05988e-07
7.07463e-07
7.08675e-07
7.09631e-07
7.10339e-07
7.10805e-07
7.11036e-07
7.11039e-07
7.10821e-07
7.10387e-07
7.09745e-07
7.08899e-07
7.07856e-07
7.06621e-07
7.05199e-07
7.03597e-07
7.01819e-07
6.9987e-07
6.97756e-07
6.95481e-07
6.9305e-07
6.90467e-07
6.87737e-07
6.84865e-07
6.81854e-07
6.78709e-07
6.75435e-07
6.72034e-07
6.68512e-07
6.64872e-07
6.61118e-07
6.57254e-07
6.53283e-07
6.49209e-07
6.45035e-07
6.40766e-07
6.36404e-07
6.31954e-07
6.27418e-07
6.22799e-07
6.18102e-07
6.13329e-07
6.08483e-07
6.03567e-07
5.98585e-07
5.9354e-07
5.88434e-07
5.83271e-07
5.78053e-07
5.72783e-07
5.67465e-07
5.621e-07
5.56692e-07
5.51244e-07
5.45757e-07
5.40235e-07
5.3468e-07
5.29095e-07
5.23483e-07
5.17845e-07
5.12184e-07
5.06503e-07
5.00804e-07
4.95089e-07
4.89361e-07
4.83622e-07
4.77874e-07
4.72119e-07
4.66359e-07
4.60596e-07
4.54834e-07
4.49072e-07
4.43314e-07
4.37561e-07
4.31816e-07
4.2608e-07
4.20355e-07
4.14642e-07
4.08944e-07
4.03262e-07
3.97598e-07
3.91953e-07
3.86329e-07
3.80727e-07
3.7515e-07
3.69598e-07
3.64072e-07
3.58575e-07
3.53108e-07
3.47671e-07
3.42267e-07
3.36895e-07
3.31558e-07
3.26257e-07
3.20992e-07
3.15765e-07
3.10577e-07
3.05428e-07
3.0032e-07
2.95254e-07
2.9023e-07
2.85249e-07
2.80312e-07
2.7542e-07
2.70573e-07
2.65773e-07
2.61019e-07
2.56312e-07
2.51654e-07
2.47043e-07
2.42482e-07
2.3797e-07
2.33508e-07
2.29097e-07
2.24735e-07
2.20425e-07
2.16166e-07
2.11959e-07
2.07803e-07
2.037e-07
1.99648e-07
1.95649e-07
1.91702e-07
1.87808e-07
1.83966e-07
1.80177e-07
1.76441e-07
1.72758e-07
1.69127e-07
1.65548e-07
1.62023e-07
1.58549e-07
1.55128e-07
1.5176e-07
1.48443e-07
1.45178e-07
1.41964e-07
1.38802e-07
1.35692e-07
1.32632e-07
1.29623e-07
1.26664e-07
1.23755e-07
1.20896e-07
1.18087e-07
1.15326e-07
1.12614e-07
1.09951e-07
1.07335e-07
1.04767e-07
1.02246e-07
9.97717e-08
9.73437e-08
9.49615e-08
9.26246e-08
9.03327e-08
8.80852e-08
8.58817e-08
8.37216e-08
8.16046e-08
7.953e-08
7.74974e-08
7.55064e-08
7.35562e-08
7.16466e-08
6.97769e-08
6.79466e-08
6.61552e-08
6.44021e-08
6.26869e-08
6.1009e-08
5.93678e-08
5.77628e-08
5.61935e-08
5.46594e-08
5.31599e-08
5.16944e-08
5.02625e-08
4.88635e-08
4.74971e-08
4.61625e-08
4.48593e-08
4.3587e-08
4.23451e-08
4.11329e-08
3.995e-08
3.87959e-08
3.767e-08
3.65718e-08
3.55009e-08
3.44566e-08
3.34386e-08
3.24462e-08
3.14791e-08
3.05367e-08
2.96185e-08
2.87241e-08
2.7853e-08
2.70046e-08
2.61786e-08
2.53744e-08
2.45917e-08
2.38299e-08
2.30886e-08
2.23675e-08
2.16659e-08
2.09836e-08
2.032e-08
1.96749e-08
1.90476e-08
1.8438e-08
1.78454e-08
1.72697e-08
1.67103e-08
1.61668e-08
1.5639e-08
1.51265e-08
1.46288e-08
1.41456e-08
1.36765e-08
1.32213e-08
1.27796e-08
1.2351e-08
1.19352e-08
1.15319e-08
1.11408e-08
1.07615e-08
1.03938e-08
1.00373e-08
9.6918e-09
9.35697e-09
9.03254e-09
8.71823e-09
8.41376e-09
8.11887e-09
7.8333e-09
7.5568e-09
7.28912e-09
7.03001e-09
6.77924e-09
6.53657e-09
6.30177e-09
6.07464e-09
5.85493e-09
5.64245e-09
5.43698e-09
5.23833e-09
5.04629e-09
4.86067e-09
4.68129e-09
4.50795e-09
4.34047e-09
4.17869e-09
4.02243e-09
3.87153e-09
3.72581e-09
3.58513e-09
3.44933e-09
3.31826e-09
3.19177e-09
3.06971e-09
2.95196e-09
2.83837e-09
2.72882e-09
2.62317e-09
2.5213e-09
2.42309e-09
2.32842e-09
2.23718e-09
2.14926e-09
2.06454e-09
1.98292e-09
1.90431e-09
1.82859e-09
1.75568e-09
1.68548e-09
1.6179e-09
1.55285e-09
1.49025e-09
1.43001e-09
1.37206e-09
1.31631e-09
1.26269e-09
1.21113e-09
1.16155e-09
1.11389e-09
1.06808e-09
1.02406e-09
9.81754e-10
9.41115e-10
9.0208e-10
8.64593e-10
8.28599e-10
7.94045e-10
7.6088e-10
7.29055e-10
6.98521e-10
6.69232e-10
6.41145e-10
6.14215e-10
5.88402e-10
5.63665e-10
5.39966e-10
5.17268e-10
4.95534e-10
4.7473e-10
4.54823e-10
4.3578e-10
4.17572e-10
4.00167e-10
3.83538e-10
3.67657e-10
3.52498e-10
3.38036e-10
3.24245e-10
3.11105e-10
2.98591e-10
2.86682e-10
2.75359e-10
2.64602e-10
2.54392e-10
2.44711e-10
2.35543e-10
2.26872e-10
2.18683e-10
2.1096e-10
2.03691e-10
1.96862e-10
1.90461e-10
1.84478e-10
1.789e-10
1.73719e-10
1.68924e-10
1.64507e-10
1.6046e-10
1.56776e-10
1.53448e-10
1.5047e-10
1.47837e-10
1.45543e-10
1.43584e-10
1.41957e-10
1.40659e-10
1.39688e-10
1.39042e-10
1.38719e-10
1.21752e-08
3.6499e-08
6.07431e-08
8.48562e-08
1.08789e-07
1.32494e-07
1.55929e-07
1.79051e-07
2.01825e-07
2.24216e-07
2.46192e-07
2.67727e-07
2.88796e-07
3.09378e-07
3.29454e-07
3.49008e-07
3.68028e-07
3.86503e-07
4.04425e-07
4.21788e-07
4.38588e-07
4.54823e-07
4.70494e-07
4.85602e-07
5.00148e-07
5.14138e-07
5.27576e-07
5.40469e-07
5.52824e-07
5.64649e-07
5.75951e-07
5.86741e-07
5.97028e-07
6.06821e-07
6.16131e-07
6.24968e-07
6.33342e-07
6.41266e-07
6.48748e-07
6.55801e-07
6.62434e-07
6.68659e-07
6.74485e-07
6.79924e-07
6.84986e-07
6.89681e-07
6.94018e-07
6.98008e-07
7.0166e-07
7.04984e-07
7.07988e-07
7.10682e-07
7.13074e-07
7.15172e-07
7.16986e-07
7.18522e-07
7.1979e-07
7.20796e-07
7.21548e-07
7.22053e-07
7.22317e-07
7.22349e-07
7.22154e-07
7.21739e-07
7.2111e-07
7.20274e-07
7.19235e-07
7.18001e-07
7.16576e-07
7.14966e-07
7.13177e-07
7.11213e-07
7.0908e-07
7.06782e-07
7.04325e-07
7.01713e-07
6.98951e-07
6.96044e-07
6.92995e-07
6.89809e-07
6.8649e-07
6.83043e-07
6.79472e-07
6.7578e-07
6.71972e-07
6.68051e-07
6.64022e-07
6.59887e-07
6.55651e-07
6.51317e-07
6.46889e-07
6.4237e-07
6.37764e-07
6.33073e-07
6.28302e-07
6.23454e-07
6.18532e-07
6.13538e-07
6.08477e-07
6.03351e-07
5.98164e-07
5.92918e-07
5.87616e-07
5.82261e-07
5.76857e-07
5.71406e-07
5.6591e-07
5.60373e-07
5.54797e-07
5.49185e-07
5.4354e-07
5.37864e-07
5.32159e-07
5.26429e-07
5.20676e-07
5.14902e-07
5.09109e-07
5.03301e-07
4.97478e-07
4.91644e-07
4.85801e-07
4.79952e-07
4.74097e-07
4.68239e-07
4.62381e-07
4.56525e-07
4.50672e-07
4.44824e-07
4.38984e-07
4.33153e-07
4.27333e-07
4.21526e-07
4.15733e-07
4.09957e-07
4.04199e-07
3.98461e-07
3.92744e-07
3.8705e-07
3.8138e-07
3.75736e-07
3.70119e-07
3.64531e-07
3.58972e-07
3.53446e-07
3.47951e-07
3.42491e-07
3.37065e-07
3.31676e-07
3.26324e-07
3.2101e-07
3.15736e-07
3.10502e-07
3.05309e-07
3.00159e-07
2.95051e-07
2.89988e-07
2.84969e-07
2.79995e-07
2.75068e-07
2.70188e-07
2.65355e-07
2.6057e-07
2.55834e-07
2.51148e-07
2.46511e-07
2.41924e-07
2.37388e-07
2.32903e-07
2.28469e-07
2.24087e-07
2.19758e-07
2.1548e-07
2.11256e-07
2.07084e-07
2.02965e-07
1.989e-07
1.94887e-07
1.90928e-07
1.87023e-07
1.83171e-07
1.79373e-07
1.75628e-07
1.71937e-07
1.68299e-07
1.64715e-07
1.61184e-07
1.57706e-07
1.54281e-07
1.50909e-07
1.4759e-07
1.44323e-07
1.41109e-07
1.37946e-07
1.34836e-07
1.31776e-07
1.28768e-07
1.25811e-07
1.22905e-07
1.20049e-07
1.17242e-07
1.14485e-07
1.11777e-07
1.09118e-07
1.06508e-07
1.03945e-07
1.01429e-07
9.8961e-08
9.65393e-08
9.41636e-08
9.18336e-08
8.95488e-08
8.73086e-08
8.51127e-08
8.29604e-08
8.08514e-08
7.87851e-08
7.67609e-08
7.47784e-08
7.2837e-08
7.09362e-08
6.90755e-08
6.72544e-08
6.54722e-08
6.37284e-08
6.20226e-08
6.03542e-08
5.87225e-08
5.71272e-08
5.55676e-08
5.40431e-08
5.25533e-08
5.10976e-08
4.96754e-08
4.82862e-08
4.69295e-08
4.56047e-08
4.43112e-08
4.30486e-08
4.18163e-08
4.06138e-08
3.94405e-08
3.82959e-08
3.71794e-08
3.60907e-08
3.50291e-08
3.39942e-08
3.29853e-08
3.20021e-08
3.10441e-08
3.01106e-08
2.92014e-08
2.83157e-08
2.74533e-08
2.66135e-08
2.5796e-08
2.50003e-08
2.42258e-08
2.34723e-08
2.27391e-08
2.20259e-08
2.13322e-08
2.06576e-08
2.00018e-08
1.93641e-08
1.87443e-08
1.81419e-08
1.75566e-08
1.69879e-08
1.64355e-08
1.58989e-08
1.53778e-08
1.48718e-08
1.43806e-08
1.39038e-08
1.3441e-08
1.29919e-08
1.25562e-08
1.21335e-08
1.17235e-08
1.13259e-08
1.09403e-08
1.05664e-08
1.02041e-08
9.85283e-09
9.51244e-09
9.18261e-09
8.86308e-09
8.55355e-09
8.25376e-09
7.96345e-09
7.68235e-09
7.41022e-09
7.14681e-09
6.89187e-09
6.64517e-09
6.40648e-09
6.17556e-09
5.95221e-09
5.7362e-09
5.52732e-09
5.32536e-09
5.13013e-09
4.94143e-09
4.75906e-09
4.58284e-09
4.41259e-09
4.24812e-09
4.08926e-09
3.93585e-09
3.78772e-09
3.6447e-09
3.50664e-09
3.37339e-09
3.2448e-09
3.12072e-09
3.00101e-09
2.88553e-09
2.77416e-09
2.66675e-09
2.56319e-09
2.46335e-09
2.36711e-09
2.27435e-09
2.18496e-09
2.09884e-09
2.01587e-09
1.93594e-09
1.85897e-09
1.78485e-09
1.71348e-09
1.64478e-09
1.57865e-09
1.51501e-09
1.45377e-09
1.39485e-09
1.33818e-09
1.28367e-09
1.23125e-09
1.18085e-09
1.1324e-09
1.08583e-09
1.04107e-09
9.98065e-10
9.56751e-10
9.17068e-10
8.78958e-10
8.42366e-10
8.07238e-10
7.73522e-10
7.41167e-10
7.10126e-10
6.80351e-10
6.51797e-10
6.2442e-10
5.98178e-10
5.7303e-10
5.48938e-10
5.25862e-10
5.03767e-10
4.82617e-10
4.62379e-10
4.4302e-10
4.24509e-10
4.06815e-10
3.8991e-10
3.73765e-10
3.58354e-10
3.43652e-10
3.29633e-10
3.16273e-10
3.03551e-10
2.91445e-10
2.79934e-10
2.68998e-10
2.58618e-10
2.48777e-10
2.39457e-10
2.30642e-10
2.22316e-10
2.14465e-10
2.07075e-10
2.00133e-10
1.93626e-10
1.87543e-10
1.81872e-10
1.76605e-10
1.7173e-10
1.6724e-10
1.63126e-10
1.59381e-10
1.55998e-10
1.5297e-10
1.50293e-10
1.47961e-10
1.4597e-10
1.44316e-10
1.42996e-10
1.42009e-10
1.41352e-10
1.41024e-10
1.22447e-08
3.67083e-08
6.10952e-08
8.53552e-08
1.0944e-07
1.33305e-07
1.56905e-07
1.80201e-07
2.03154e-07
2.25732e-07
2.47902e-07
2.69636e-07
2.90909e-07
3.117e-07
3.3199e-07
3.51761e-07
3.71e-07
3.89696e-07
4.07841e-07
4.25427e-07
4.42451e-07
4.58909e-07
4.74801e-07
4.90127e-07
5.0489e-07
5.19094e-07
5.32742e-07
5.45841e-07
5.58398e-07
5.7042e-07
5.81915e-07
5.92892e-07
6.0336e-07
6.1333e-07
6.2281e-07
6.31812e-07
6.40345e-07
6.48421e-07
6.5605e-07
6.63243e-07
6.7001e-07
6.76362e-07
6.82311e-07
6.87865e-07
6.93037e-07
6.97835e-07
7.0227e-07
7.06352e-07
7.10091e-07
7.13495e-07
7.16575e-07
7.19338e-07
7.21795e-07
7.23953e-07
7.25821e-07
7.27408e-07
7.2872e-07
7.29766e-07
7.30554e-07
7.3109e-07
7.31382e-07
7.31437e-07
7.31261e-07
7.30861e-07
7.30244e-07
7.29415e-07