/*--------------------------------*- C++ -*----------------------------------*\
  =========                 |
  \\      /  F ield         | OpenFOAM: The Open Source CFD Toolbox
   \\    /   O peration     | Website:  https://openfoam.org
    \\  /    A nd           | Version:  10
     \\/     M anipulation  |
\*---------------------------------------------------------------------------*/
FoamFile
{
    format      ascii;
    class       volScalarField;
    location    "0.08";
    object      cov;
}
// * * * * * * * * * * * * * * * * * * * * * * * * * * * * * * * * * * * * * //

dimensions      [0 0 0 0 0 0 0];

internalField   uniform 0;

boundaryField
{
    frontAndBack
    {
        type            empty;
    }
    inlet
    {
        type            calculated;
        value           uniform 0;
    }
    outlet
    {
        type            calculated;
        value           uniform 0;
    }
    substrate
    {
        type            calculated;
        value           nonuniform List<scalar> 
400
(
0.512522
0.482437
0.454893
0.429116
0.404733
0.381545
0.359437
0.338339
0.318203
0.298996
0.280692
0.263266
0.246698
0.230967
0.216049
0.201923
0.188565
0.175949
0.16405
0.152841
0.142295
0.132384
0.123081
0.114356
0.106184
0.098535
0.0913836
0.0847031
0.0784677
0.0726525
0.0672334
0.0621873
0.0574917
0.0531254
0.0490679
0.0452998
0.0418025
0.0385585
0.0355512
0.0327649
0.0301846
0.0277964
0.0255871
0.0235442
0.0216562
0.019912
0.0183016
0.0168152
0.0154439
0.0141793
0.0130136
0.0119396
0.0109503
0.0100395
0.00920129
0.00843016
0.00772102
0.00706911
0.00647006
0.00591977
0.00541446
0.00495062
0.004525
0.00413458
0.00377659
0.00344845
0.00314776
0.00287234
0.00262014
0.00238929
0.00217804
0.00198482
0.00180812
0.00164661
0.00149902
0.0013642
0.00124109
0.0011287
0.00102615
0.000932593
0.000847279
0.000769507
0.000698634
0.00063407
0.000575274
0.000521749
0.000473039
0.000428728
0.000388431
0.000351797
0.000318506
0.000288264
0.000260799
0.000235867
0.000213242
0.000192718
0.000174105
0.000157234
0.000141945
0.000128095
0.000115555
0.000104203
9.39319e-05
8.46413e-05
7.6241e-05
6.86485e-05
6.17887e-05
5.55932e-05
4.99998e-05
4.49519e-05
4.03981e-05
3.62915e-05
3.25897e-05
2.92541e-05
2.62496e-05
2.35443e-05
2.11096e-05
1.89191e-05
1.69491e-05
1.51782e-05
1.35869e-05
1.21575e-05
1.08741e-05
9.72216e-06
8.68875e-06
7.762e-06
6.93124e-06
6.18685e-06
5.52012e-06
4.92319e-06
4.38897e-06
3.91109e-06
3.48378e-06
3.10185e-06
2.76062e-06
2.45589e-06
2.18386e-06
1.94114e-06
1.72465e-06
1.53165e-06
1.35966e-06
1.20647e-06
1.07007e-06
9.48673e-07
8.40685e-07
7.44663e-07
6.5932e-07
5.835e-07
5.16172e-07
4.56411e-07
4.03389e-07
3.56369e-07
3.14689e-07
2.7776e-07
2.45054e-07
2.16102e-07
1.90485e-07
1.67829e-07
1.47801e-07
1.30104e-07
1.14473e-07
1.00675e-07
8.84992e-08
7.77605e-08
6.82935e-08
5.99515e-08
5.26042e-08
4.61361e-08
4.04445e-08
3.54387e-08
3.1038e-08
2.71711e-08
2.37749e-08
2.07935e-08
1.81775e-08
1.58831e-08
1.38718e-08
1.21095e-08
1.05661e-08
9.21509e-09
8.033e-09
6.99923e-09
6.09561e-09
5.30612e-09
4.61669e-09
4.01492e-09
3.48993e-09
3.03213e-09
2.63313e-09
2.28553e-09
1.98287e-09
1.71946e-09
1.49032e-09
1.2911e-09
1.11797e-09
9.67585e-10
8.37026e-10
7.23732e-10
6.2547e-10
5.40286e-10
4.66476e-10
4.02554e-10
3.47222e-10
2.99349e-10
2.57951e-10
2.22169e-10
1.91257e-10
1.64565e-10
1.41529e-10
1.21658e-10
1.04525e-10
8.9761e-11
7.70444e-11
6.60968e-11
5.66768e-11
4.85753e-11
4.16113e-11
3.5628e-11
3.049e-11
2.608e-11
2.22968e-11
1.9053e-11
1.6273e-11
1.38917e-11
1.18529e-11
1.01084e-11
8.61631e-12
7.34081e-12
6.25101e-12
5.32034e-12
4.52597e-12
3.84828e-12
3.27043e-12
2.77796e-12
2.35846e-12
2.00131e-12
1.6974e-12
1.43891e-12
1.21917e-12
1.03247e-12
8.73927e-13
7.39355e-13
6.2519e-13
5.28388e-13
4.4635e-13
3.76859e-13
3.18027e-13
2.68244e-13
2.2614e-13
1.90548e-13
1.60477e-13
1.35084e-13
1.13651e-13
9.55706e-14
8.0326e-14
6.74789e-14
5.66579e-14
4.75481e-14
3.98829e-14
3.34364e-14
2.80178e-14
2.34654e-14
1.96427e-14
1.64345e-14
1.37432e-14
1.14869e-14
9.59614e-15
8.01254e-15
6.68688e-15
5.57772e-15
4.65018e-15
3.87491e-15
3.22726e-15
2.68649e-15
2.23521e-15
1.85878e-15
1.54497e-15
1.28348e-15
1.06571e-15
8.84439e-16
7.33629e-16
6.08225e-16
5.04001e-16
4.17425e-16
3.45545e-16
2.85898e-16
2.36426e-16
1.95416e-16
1.61438e-16
1.33299e-16
1.1001e-16
9.07429e-17
7.48125e-17
6.16475e-17
5.07734e-17
4.17961e-17
3.43887e-17
2.82796e-17
2.32441e-17
1.90955e-17
1.56793e-17
1.28678e-17
1.05551e-17
8.65359e-18
7.09107e-18
5.80774e-18
4.75425e-18
3.88988e-18
3.18105e-18
2.60007e-18
2.12411e-18
1.73441e-18
1.41548e-18
1.15462e-18
9.4135e-19
7.67086e-19
6.24765e-19
5.08592e-19
4.13812e-19
3.36524e-19
2.73533e-19
2.2222e-19
1.80442e-19
1.46444e-19
1.18792e-19
9.6312e-20
7.80469e-20
6.32137e-20
5.11738e-20
4.14062e-20
3.34859e-20
2.70671e-20
2.18676e-20
1.7658e-20
1.42515e-20
1.14964e-20
9.26929e-21
7.46983e-21
6.01666e-21
4.84376e-21
3.89754e-21
3.13458e-21
2.51971e-21
2.02443e-21
1.62568e-21
1.30482e-21
1.04676e-21
8.39321e-22
6.7265e-22
5.38805e-22
4.31377e-22
3.45195e-22
2.76092e-22
2.20711e-22
1.76351e-22
1.40836e-22
1.12418e-22
8.96883e-23
7.15188e-23
5.70016e-23
4.54085e-23
3.61551e-23
2.8773e-23
2.28868e-23
1.81956e-23
1.44588e-23
1.14837e-23
9.11622e-24
7.23321e-24
5.73629e-24
4.54689e-24
3.60232e-24
2.85256e-24
2.25772e-24
1.78604e-24
1.4122e-24
1.11606e-24
8.8158e-25
6.96023e-25
5.49253e-25
4.33222e-25
3.4154e-25
2.69134e-25
2.11983e-25
1.66897e-25
1.31352e-25
1.03346e-25
8.1297e-26
6.39544e-26
5.03298e-26
3.96437e-26
3.12823e-26
2.47633e-26
1.97094e-26
1.58268e-26
1.28891e-26
1.07242e-26
9.20438e-27
8.23921e-27
7.77043e-27
)
;
    }
    Wall
    {
        type            calculated;
        value           nonuniform List<scalar> 
400
(
0.512522
0.482437
0.454893
0.429116
0.404733
0.381545
0.359438
0.33834
0.318205
0.298998
0.280694
0.263269
0.246701
0.23097
0.216053
0.201927
0.188569
0.175954
0.164055
0.152846
0.1423
0.132389
0.123086
0.114361
0.106189
0.0985399
0.0913885
0.084708
0.0784725
0.0726573
0.0672382
0.062192
0.0574963
0.0531299
0.0490723
0.0453041
0.0418067
0.0385626
0.0355552
0.0327687
0.0301883
0.0278
0.0255905
0.0235475
0.0216594
0.0199151
0.0183045
0.016818
0.0154466
0.0141819
0.0130161
0.0119419
0.0109525
0.0100416
0.00920332
0.00843208
0.00772283
0.00707084
0.00647169
0.00592131
0.00541591
0.00495199
0.00452629
0.0041358
0.00377774
0.00344952
0.00314878
0.00287329
0.00262103
0.00239012
0.00217883
0.00198555
0.00180881
0.00164725
0.00149962
0.00136476
0.00124161
0.00112919
0.0010266
0.000933016
0.000847673
0.000769874
0.000698975
0.000634387
0.000575568
0.000522022
0.000473293
0.000428963
0.000388649
0.000352
0.000318694
0.000288437
0.00026096
0.000236016
0.000213379
0.000192844
0.000174222
0.000157341
0.000142044
0.000128187
0.000115639
0.000104281
9.40035e-05
8.47072e-05
7.63016e-05
6.87042e-05
6.18399e-05
5.56402e-05
5.00429e-05
4.49915e-05
4.04343e-05
3.63248e-05
3.26202e-05
2.9282e-05
2.62751e-05
2.35677e-05
2.11309e-05
1.89386e-05
1.69669e-05
1.51945e-05
1.36017e-05
1.2171e-05
1.08864e-05
9.73339e-06
8.69896e-06
7.77129e-06
6.9397e-06
6.19454e-06
5.5271e-06
4.92953e-06
4.39473e-06
3.91632e-06
3.48852e-06
3.10614e-06
2.76451e-06
2.4594e-06
2.18704e-06
1.94402e-06
1.72725e-06
1.534e-06
1.36179e-06
1.20838e-06
1.07179e-06
9.5023e-07
8.42088e-07
7.45927e-07
6.60457e-07
5.84523e-07
5.17092e-07
4.57237e-07
4.04131e-07
3.57035e-07
3.15286e-07
2.78295e-07
2.45534e-07
2.16532e-07
1.9087e-07
1.68174e-07
1.48109e-07
1.30379e-07
1.14719e-07
1.00894e-07
8.8695e-08
7.79351e-08
6.84491e-08
6.00901e-08
5.27277e-08
4.62459e-08
4.05422e-08
3.55255e-08
3.11152e-08
2.72396e-08
2.38357e-08
2.08474e-08
1.82253e-08
1.59254e-08
1.39093e-08
1.21427e-08
1.05955e-08
9.24103e-09
8.05592e-09
7.01947e-09
6.11347e-09
5.32188e-09
4.63058e-09
4.02716e-09
3.5007e-09
3.04161e-09
2.64147e-09
2.29286e-09
1.98931e-09
1.72512e-09
1.49529e-09
1.29546e-09
1.12179e-09
9.70933e-10
8.39957e-10
7.26298e-10
6.27714e-10
5.42248e-10
4.68191e-10
4.04052e-10
3.48529e-10
3.0049e-10
2.58945e-10
2.23036e-10
1.92012e-10
1.65222e-10
1.42101e-10
1.22155e-10
1.04957e-10
9.01363e-11
7.73702e-11
6.63794e-11
5.69219e-11
4.87877e-11
4.17953e-11
3.57873e-11
3.06278e-11
2.61992e-11
2.23999e-11
1.9142e-11
1.63498e-11
1.3958e-11
1.19101e-11
1.01577e-11
8.65876e-12
7.37736e-12
6.28246e-12
5.34739e-12
4.54923e-12
3.86826e-12
3.28759e-12
2.79268e-12
2.37109e-12
2.01214e-12
1.70667e-12
1.44685e-12
1.22597e-12
1.03829e-12
8.78897e-13
7.43601e-13
6.28816e-13
5.31483e-13
4.4899e-13
3.7911e-13
3.19945e-13
2.69877e-13
2.2753e-13
1.91731e-13
1.61483e-13
1.35938e-13
1.14377e-13
9.61868e-14
8.08488e-14
6.79222e-14
5.70336e-14
4.78664e-14
4.01523e-14
3.36644e-14
2.82106e-14
2.36283e-14
1.97804e-14
1.65507e-14
1.38413e-14
1.15696e-14
9.66586e-15
8.07128e-15
6.73634e-15
5.61934e-15
4.68519e-15
3.90434e-15
3.25199e-15
2.70726e-15
2.25263e-15
1.8734e-15
1.55722e-15
1.29375e-15
1.07431e-15
8.91639e-16
7.39653e-16
6.13262e-16
5.08211e-16
4.20941e-16
3.4848e-16
2.88347e-16
2.38469e-16
1.97118e-16
1.62855e-16
1.3448e-16
1.10992e-16
9.15599e-17
7.54916e-17
6.22117e-17
5.12418e-17
4.21849e-17
3.47111e-17
2.8547e-17
2.34656e-17
1.92789e-17
1.58312e-17
1.29934e-17
1.06589e-17
8.73942e-18
7.16196e-18
5.86625e-18
4.80253e-18
3.92969e-18
3.21386e-18
2.62709e-18
2.14637e-18
1.75272e-18
1.43054e-18
1.167e-18
9.5152e-19
7.75437e-19
6.31619e-19
5.14214e-19
4.18421e-19
3.40301e-19
2.76626e-19
2.24752e-19
1.82513e-19
1.48137e-19
1.20176e-19
9.74425e-20
7.89698e-20
6.39668e-20
5.1788e-20
4.19067e-20
3.38937e-20
2.73991e-20
2.21378e-20
1.78777e-20
1.44302e-20
1.16416e-20
9.38719e-21
7.56553e-21
6.0943e-21
4.90671e-21
3.94855e-21
3.1759e-21
2.55316e-21
2.0515e-21
1.64757e-21
1.32252e-21
1.06106e-21
8.50863e-22
6.81964e-22
5.46319e-22
4.37434e-22
3.50075e-22
2.80022e-22
2.23875e-22
1.78897e-22
1.42883e-22
1.14063e-22
9.10097e-23
7.25796e-23
5.78529e-23
4.60912e-23
3.67024e-23
2.92115e-23
2.32379e-23
1.84767e-23
1.46836e-23
1.16635e-23
9.25987e-24
7.34794e-24
5.82788e-24
4.61998e-24
3.6606e-24
2.89901e-24
2.29473e-24
1.81551e-24
1.43565e-24
1.13471e-24
8.96412e-25
7.07809e-25
5.58614e-25
4.40654e-25
3.47436e-25
2.7381e-25
2.15689e-25
1.69834e-25
1.33677e-25
1.05186e-25
8.27535e-26
6.51067e-26
5.12415e-26
4.03653e-26
3.1854e-26
2.52174e-26
2.00717e-26
1.61183e-26
1.3127e-26
1.09232e-26
9.37763e-27
8.3981e-27
7.917e-27
)
;
    }
}


// ************************************************************************* //
