/*--------------------------------*- C++ -*----------------------------------*\
  =========                 |
  \\      /  F ield         | OpenFOAM: The Open Source CFD Toolbox
   \\    /   O peration     | Website:  https://openfoam.org
    \\  /    A nd           | Version:  10
     \\/     M anipulation  |
\*---------------------------------------------------------------------------*/
FoamFile
{
    format      ascii;
    class       volScalarField;
    location    "3.5";
    object      Ma;
}
// * * * * * * * * * * * * * * * * * * * * * * * * * * * * * * * * * * * * * //

dimensions      [0 0 0 0 0 0 0];

internalField   nonuniform List<scalar> 
5250
(
3
2.99997
2.99991
2.99976
2.99942
2.99849
2.99647
2.99071
2.97856
2.94379
2.86556
2.65901
2.19254
1.31587
0.542122
0.260908
0.322236
0.339504
0.305731
0.250269
0.199119
0.158191
0.117862
0.0733157
0.0394369
3
2.99997
2.99991
2.99979
2.99938
2.99865
2.99621
2.99161
2.97741
2.94732
2.8643
2.66766
2.20253
1.33377
0.551336
0.262056
0.324636
0.342695
0.309158
0.25451
0.204535
0.16491
0.12665
0.0870911
0.062382
3
2.99997
2.99992
2.99978
2.99944
2.9986
2.99653
2.99158
2.97862
2.94867
2.86956
2.67863
2.22808
1.37395
0.572692
0.267488
0.332054
0.351937
0.319279
0.266661
0.219301
0.1827
0.148957
0.117154
0.100079
3
2.99998
2.99992
2.9998
2.99945
2.99873
2.99664
2.99208
2.97984
2.95098
2.87721
2.69538
2.26627
1.43719
0.606016
0.278072
0.344769
0.367337
0.336056
0.286227
0.242006
0.209012
0.180097
0.154554
0.14153
3
2.99998
2.99992
2.99982
2.99948
2.99882
2.99687
2.99263
2.98129
2.95441
2.88612
2.71738
2.31588
1.52295
0.650938
0.297486
0.364357
0.38941
0.35955
0.312723
0.271382
0.241871
0.217174
0.196364
0.185894
3
2.99998
2.99993
2.99982
2.99954
2.99887
2.99723
2.99304
2.98338
2.95736
2.89768
2.7411
2.37523
1.63027
0.709031
0.331478
0.39425
0.419727
0.391148
0.346886
0.308216
0.281537
0.260713
0.24399
0.236207
3
2.99998
2.99994
2.99983
2.99961
2.99893
2.99754
2.99359
2.98482
2.96155
2.9064
2.7651
2.42971
1.73106
0.769832
0.365053
0.423642
0.449003
0.424252
0.385534
0.350621
0.327794
0.311219
0.299522
0.296193
3
2.99999
2.99994
2.99986
2.99961
2.9991
2.9976
2.99445
2.98568
2.96563
2.91353
2.78696
2.47505
1.81798
0.842058
0.406984
0.44863
0.469248
0.453574
0.424007
0.396219
0.379223
0.369337
0.365124
0.372028
3
2.99999
2.99995
2.99987
2.99966
2.99915
2.99791
2.99475
2.98747
2.9678
2.92312
2.80483
2.52248
1.90728
0.937931
0.467734
0.46777
0.482897
0.480667
0.461665
0.443493
0.435098
0.434731
0.445057
0.475005
3
2.99999
2.99996
2.99988
2.9997
2.99924
2.9981
2.99542
2.98832
2.97233
2.92903
2.82767
2.56882
2.00445
1.05783
0.540237
0.483443
0.499306
0.507425
0.498818
0.49174
0.493531
0.509375
0.549814
0.651228
3
2.99999
2.99997
2.99989
2.99975
2.99929
2.99846
2.99566
2.9905
2.97415
2.94025
2.84537
2.62304
2.10871
1.2047
0.625389
0.501717
0.51919
0.534895
0.535925
0.539059
0.554083
0.592726
0.676246
0.844784
3
2.99999
2.99997
2.99992
2.99976
2.99947
2.99851
2.99665
2.99112
2.97921
2.94677
2.87077
2.67484
2.2276
1.38485
0.725219
0.528322
0.545447
0.564878
0.573571
0.58558
0.613783
0.671289
0.7787
0.96062
3
3
2.99998
2.99993
2.99982
2.99951
2.99885
2.99707
2.99286
2.98253
2.95623
2.89316
2.73271
2.35543
1.60376
0.842174
0.573785
0.58557
0.601851
0.614883
0.632792
0.669642
0.735636
0.844486
1.00363
3
3
2.99998
2.99995
2.99984
2.99964
2.99899
2.99779
2.99395
2.98636
2.96422
2.91547
2.78578
2.48395
1.84431
0.974071
0.637799
0.634391
0.645981
0.661563
0.681357
0.720216
0.785327
0.884499
1.02057
3.00001
3
2.99999
2.99995
2.99988
2.99967
2.99925
2.99804
2.99537
2.98834
2.97158
2.92982
2.82622
2.57215
2.01649
1.12
0.708149
0.672735
0.686373
0.70428
0.726757
0.764947
0.825579
0.912834
1.02955
3.00001
3
2.99999
2.99997
2.9999
2.99975
2.99937
2.99845
2.99625
2.9905
2.97753
2.9423
2.86134
2.65134
2.18174
1.33395
0.814104
0.704257
0.716368
0.736914
0.765203
0.80341
0.859273
0.936113
1.03642
3.00001
3
3
2.99997
2.99993
2.9998
2.99953
2.99877
2.99705
2.99268
2.98196
2.95592
2.8904
2.72896
2.34786
1.59819
0.94604
0.74718
0.74825
0.767551
0.798673
0.836845
0.888454
0.956597
1.04319
3.00001
3
3
2.99998
2.99995
2.99985
2.99963
2.99909
2.99772
2.99462
2.98616
2.96776
2.91749
2.80167
2.5141
1.9128
1.10922
0.814524
0.791823
0.805606
0.833489
0.870002
0.916416
0.976404
1.05125
3.00001
3
3
2.99999
2.99996
2.99988
2.99974
2.99926
2.9984
2.99561
2.99015
2.97412
2.93926
2.8459
2.62628
2.12825
1.29759
0.892668
0.828708
0.840246
0.86525
0.900821
0.94324
0.996175
1.06113
3.00001
3.00001
3
2.99999
2.99997
2.99992
2.99979
2.99948
2.99873
2.99682
2.99249
2.98066
2.95469
2.88421
2.71931
2.32472
1.57234
1.02191
0.872467
0.873006
0.893211
0.927172
0.96782
1.01552
1.07238
3.00001
3.00001
3
3
2.99998
2.99995
2.99985
2.99964
2.99907
2.99777
2.99452
2.98652
2.96751
2.91913
2.80355
2.52394
1.93388
1.19489
0.938978
0.91383
0.926559
0.955409
0.993479
1.03587
1.08559
3.00001
3.00001
3
3
2.99999
2.99996
2.99989
2.99975
2.9993
2.99846
2.99588
2.99061
2.9758
2.94263
2.85618
2.65122
2.18524
1.40205
1.01919
0.950885
0.959661
0.983693
1.01811
1.05644
1.10029
3.00001
3.00001
3.00001
3
2.99999
2.99998
2.99992
2.99983
2.99951
2.9989
2.99708
2.99329
2.98288
2.95903
2.89808
2.7508
2.4014
1.71183
1.15711
1.0015
0.994416
1.00964
1.0393
1.07613
1.11629
3.00001
3.00001
3.00001
3
3
2.99999
2.99995
2.99987
2.99968
2.9992
2.99812
2.99515
2.98894
2.97115
2.9333
2.83098
2.59731
2.07693
1.35478
1.07885
1.03421
1.04096
1.06328
1.09625
1.13309
3.00001
3.00001
3.00001
3.00001
3
2.99999
2.99997
2.99992
2.99978
2.99947
2.99868
2.99678
2.99222
2.98062
2.95387
2.88456
2.72101
2.33755
1.63044
1.1933
1.07896
1.07294
1.08591
1.114
1.14989
3.00001
3.00001
3.00001
3.00001
3
3
2.99998
2.99995
2.99985
2.99967
2.99908
2.99799
2.99465
2.98793
2.96894
2.92718
2.81844
2.56943
2.02619
1.37228
1.14302
1.10923
1.11451
1.13601
1.16637
3.00001
3.00001
3.00001
3.00001
3
3
2.99999
2.99997
2.99991
2.99977
2.99941
2.99864
2.99644
2.99206
2.97885
2.95238
2.87708
2.70938
2.31009
1.61568
1.23543
1.14783
1.14346
1.15629
1.18217
3.00001
3.00001
3.00001
3.00001
3.00001
3
3
2.99998
2.99994
2.99985
2.99963
2.99911
2.99774
2.9948
2.98653
2.96938
2.92122
2.81495
2.54994
1.99852
1.40402
1.20534
1.17647
1.18178
1.20216
3.00001
3.00001
3.00001
3.00001
3.00001
3
3
2.99999
2.99997
2.9999
2.99978
2.99938
2.99866
2.99639
2.99194
2.97915
2.95148
2.87849
2.70976
2.3158
1.65019
1.29982
1.21688
1.21036
1.22114
3.00001
3.00001
3.00001
3.00001
3.00001
3.00001
3
3
2.99998
2.99995
2.99985
2.99966
2.99907
2.99794
2.99459
2.98772
2.96878
2.92662
2.8186
2.5712
2.03842
1.47038
1.27516
1.24314
1.2457
3.00001
3.00001
3.00001
3.00001
3.00001
3.00001
3
3
2.99999
2.99997
2.99991
2.99978
2.99944
2.99866
2.99675
2.99202
2.9812
2.95279
2.88889
2.72638
2.36238
1.72675
1.37476
1.28391
1.27356
3.00001
3.00001
3.00001
3.00001
3.00001
3.00001
3.00001
3
3
2.99998
2.99995
2.99987
2.99966
2.99923
2.99793
2.99553
2.98793
2.97364
2.93138
2.84171
2.61475
2.13642
1.5591
1.34595
1.30752
3.00001
3.00001
3.00001
3.00001
3.00001
3.00001
3.00001
3
3
2.99999
2.99997
2.99992
2.99981
2.99949
2.99882
2.99708
2.99298
2.98322
2.9585
2.90182
2.75928
2.43659
1.83697
1.45059
1.34564
3.00001
3.00001
3.00001
3.00001
3.00001
3.00001
3.00001
3.00001
3
3
2.99999
2.99996
2.99989
2.9997
2.99932
2.9982
2.99608
2.98948
2.97706
2.94017
2.86274
2.66405
2.23621
1.65631
1.41878
3.00001
3.00001
3.00001
3.00001
3.00001
3.00001
3.00001
3.00001
3.00001
3
2.99999
2.99998
2.99993
2.99984
2.99957
2.99901
2.99752
2.9941
2.98584
2.96535
2.9179
2.79963
2.52888
1.99007
1.55268
3.00001
3.00001
3.00001
3.00001
3.00001
3.00001
3.00001
3.00001
3.00001
3
3
2.99999
2.99997
2.9999
2.99977
2.99939
2.99862
2.99651
2.99184
2.98012
2.95234
2.88506
2.72569
2.36045
1.79371
3.00001
3.00001
3.00001
3.00001
3.00001
3.00001
3.00001
3.00001
3.00001
3.00001
3
3
2.99998
2.99995
2.99987
2.99966
2.99921
2.99805
2.99538
2.989
2.97317
2.93719
2.84683
2.64162
2.19779
3.00001
3.00001
3.00001
3.00001
3.00001
3.00001
3.00001
3.00001
3.00001
3.00001
3
3
2.99999
2.99998
2.99992
2.99982
2.99953
2.99892
2.99732
2.99366
2.9848
2.96311
2.91264
2.78888
2.50596
3.00001
3.00001
3.00001
3.00001
3.00001
3.00001
3.00001
3.00001
3.00001
3.00001
3.00001
3
3
2.99999
2.99996
2.9999
2.99975
2.99938
2.99855
2.99635
2.99178
2.97897
2.95264
2.8812
2.72444
3.00001
3.00001
3.00001
3.00001
3.00001
3.00001
3.00001
3.00001
3.00001
3.00001
3.00001
3.00001
3
3
2.99998
2.99995
2.99986
2.99967
2.99919
2.99804
2.99546
2.98869
2.97446
2.93562
2.85317
3.00001
3.00001
3.00001
3.00001
3.00001
3.00001
3.00001
3.00001
3.00001
3.00001
3.00001
3.00001
3.00001
3
2.99999
2.99997
2.99993
2.99982
2.99955
2.99894
2.99739
2.99405
2.9849
2.96625
2.91433
3.00001
3.00001
3.00001
3.00001
3.00001
3.00001
3.00001
3.00001
3.00001
3.00001
3.00001
3.00001
3.00001
3
3
2.99999
2.99996
2.99991
2.99975
2.99943
2.9986
2.99671
2.99213
2.98108
2.95549
3.00001
3.00001
3.00001
3.00001
3.00001
3.00001
3.00001
3.00001
3.00001
3.00001
3.00001
3.00001
3.00001
3.00001
3
3
2.99999
2.99995
2.99988
2.99968
2.9993
2.99817
2.99599
2.98978
2.97704
3.00001
3.00001
3.00001
3.00001
3.00001
3.00001
3.00001
3.00001
3.00001
3.00001
3.00001
3.00001
3.00001
3.00001
3.00001
3
2.99999
2.99998
2.99994
2.99983
2.99962
2.99902
2.99786
2.99438
2.98798
3.00001
3.00001
3.00001
3.00001
3.00001
3.00001
3.00001
3.00001
3.00001
3.00001
3.00001
3.00001
3.00001
3.00001
3.00001
3
3
2.99999
2.99997
2.99992
2.99977
2.99951
2.99871
2.99715
2.99285
3.00001
3.00001
3.00001
3.00001
3.00001
3.00001
3.00001
3.00001
3.00001
3.00001
3.00001
3.00001
3.00001
3.00001
3.00001
3.00001
3
3
2.99998
2.99995
2.99987
2.99969
2.99923
2.99826
2.99553
3.00001
3.00001
3.00001
3.00001
3.00001
3.00001
3.00001
3.00001
3.00001
3.00001
3.00001
3.00001
3.00001
3.00001
3.00001
3.00001
3
3
2.99999
2.99997
2.99991
2.99977
2.99945
2.99863
2.99668
3.00001
3.00001
3.00001
3.00001
3.00001
3.00001
3.00001
3.00001
3.00001
3.00001
3.00001
3.00001
3.00001
3.00001
3.00001
3.00001
3.00001
3
2.99999
2.99997
2.99992
2.99981
2.99948
2.99886
2.99682
3.00001
3.00001
3.00001
3.00001
3.00001
3.00001
3.00001
3.00001
3.00001
3.00001
3.00001
3.00001
3.00001
3.00001
3.00001
3.00001
3.00001
3
2.99999
2.99997
2.99993
2.9998
2.99956
2.99875
2.99729
3.00001
3.00001
3.00001
3.00001
3.00001
3.00001
3.00001
3.00001
3.00001
3.00001
3.00001
3.00001
3.00001
3.00001
3.00001
3.00001
3.00001
3
2.99999
2.99998
2.99993
2.99981
2.99955
2.99879
2.99726
1.12016
1.32479
1.38855
1.35083
1.27884
1.19075
1.1096
1.06937
1.06301
1.06574
1.06838
1.06883
1.06718
1.06395
1.05885
1.05307
1.04585
1.03253
1.00429
0.943811
0.815921
0.567219
0.289801
0.122094
0.0818285
0.153816
0.241267
0.327484
0.395153
0.435429
0.456261
0.467364
0.471849
0.467248
0.449152
0.416
0.3703
0.316206
0.258017
0.199136
0.143593
0.0915951
0.0490116
0.0327987
0.0644252
0.103226
0.14016
0.174916
0.206542
0.235997
0.266558
0.296904
0.325744
0.352565
0.378594
0.403219
0.42744
0.450389
0.473112
0.494625
0.516053
0.536312
0.556616
0.575782
0.595127
0.613358
0.631894
0.649349
0.667163
0.684029
0.701221
0.717546
0.73425
0.750106
0.766361
0.781818
0.79765
0.812742
0.828176
0.842914
0.857956
0.872344
0.887005
0.901037
0.915336
0.929023
0.94299
0.956362
0.970027
0.983124
0.996514
1.00931
1.02243
1.03484
1.04749
1.05925
1.07084
1.08082
1.089
1.09441
1.1342
1.25235
1.31854
1.36303
1.40847
1.44377
1.45326
1.44872
1.43238
1.40931
1.39159
1.38582
1.38607
1.38653
1.38628
1.38473
1.38002
1.36787
1.34138
1.28679
1.17497
0.956634
0.66691
0.470386
0.370063
0.28715
0.216793
0.147778
0.0842566
0.0749927
0.132145
0.184305
0.214348
0.22292
0.197128
0.161751
0.122152
0.085453
0.0683261
0.0850396
0.119349
0.157026
0.194529
0.228343
0.261865
0.294345
0.326358
0.356447
0.384824
0.410563
0.43707
0.463679
0.489608
0.513487
0.536907
0.558976
0.581049
0.601823
0.622711
0.642362
0.662165
0.680868
0.699701
0.717571
0.735574
0.752695
0.770009
0.786472
0.803211
0.819107
0.835366
0.850791
0.866635
0.881686
0.897152
0.911889
0.927005
0.941441
0.956221
0.970339
0.984794
0.998573
1.01271
1.02615
1.03998
1.05309
1.06663
1.07944
1.09271
1.10524
1.11828
1.13059
1.14343
1.15548
1.168
1.17947
1.191
1.20081
1.20911
1.21436
1.13394
1.24209
1.33935
1.4326
1.51868
1.58684
1.61937
1.6222
1.61714
1.60244
1.58248
1.56657
1.55733
1.55359
1.55256
1.55147
1.54866
1.54169
1.52513
1.48815
1.40907
1.24205
0.970792
0.761721
0.651265
0.572243
0.504731
0.439608
0.369367
0.299055
0.232242
0.169624
0.120095
0.0884529
0.0955656
0.140093
0.186055
0.230276
0.269083
0.302971
0.334881
0.36523
0.394432
0.421401
0.447922
0.473313
0.498748
0.52291
0.54631
0.567395
0.588762
0.610622
0.632808
0.653343
0.673399
0.692472
0.711567
0.729801
0.748117
0.765585
0.783163
0.799977
0.816893
0.833141
0.849477
0.865197
0.881065
0.89629
0.911776
0.92656
0.941691
0.956117
0.970916
0.985073
0.999584
1.01353
1.02779
1.04154
1.05556
1.06906
1.08283
1.09604
1.10955
1.12244
1.13569
1.14832
1.16133
1.17378
1.18663
1.19896
1.21166
1.22382
1.23628
1.24817
1.26027
1.27163
1.28286
1.29274
1.301
1.30638
1.14244
1.24997
1.34949
1.44083
1.52187
1.58948
1.64184
1.68012
1.70051
1.70574
1.70383
1.69621
1.68401
1.67257
1.66513
1.66149
1.65937
1.65541
1.64596
1.62333
1.57178
1.4553
1.24337
0.996506
0.856214
0.78891
0.730048
0.668467
0.607144
0.547081
0.484952
0.42635
0.378627
0.352391
0.35661
0.384443
0.421977
0.459223
0.491189
0.515904
0.537914
0.558145
0.578171
0.597224
0.616359
0.634916
0.653759
0.672086
0.690279
0.706864
0.723464
0.74036
0.758728
0.775885
0.793056
0.809117
0.825588
0.841201
0.857279
0.872472
0.888169
0.902929
0.9183
0.932702
0.947763
0.961865
0.976575
0.990412
1.0048
1.01843
1.0326
1.04605
1.06005
1.07333
1.08714
1.10026
1.11387
1.12687
1.14026
1.15313
1.16631
1.17898
1.19194
1.20436
1.21714
1.2294
1.24205
1.2542
1.26668
1.27869
1.29099
1.30286
1.31496
1.32661
1.33837
1.34957
1.36059
1.37051
1.37887
1.38438
1.14491
1.24956
1.34504
1.43257
1.51212
1.58367
1.64655
1.69971
1.74099
1.76778
1.77799
1.77807
1.77555
1.76844
1.75863
1.75011
1.74353
1.73809
1.73046
1.71486
1.68191
1.61188
1.46295
1.2202
1.04309
0.959828
0.898344
0.844895
0.795089
0.737737
0.678399
0.620305
0.569379
0.544433
0.550554
0.578248
0.615358
0.651125
0.679762
0.69888
0.711743
0.721998
0.732798
0.743672
0.755965
0.76796
0.781026
0.793624
0.807175
0.819503
0.832219
0.844823
0.859405
0.873693
0.888148
0.901588
0.915637
0.929109
0.943277
0.956815
0.970833
0.984169
0.997958
1.01118
1.02495
1.03819
1.05198
1.06512
1.07873
1.09165
1.10504
1.11784
1.13112
1.14392
1.15715
1.16991
1.18301
1.19559
1.2085
1.22086
1.23361
1.24586
1.25854
1.27079
1.28336
1.29553
1.30789
1.31991
1.33205
1.34384
1.35581
1.36735
1.37916
1.39046
1.40205
1.41301
1.42399
1.43397
1.44252
1.44828
1.14208
1.24181
1.33352
1.41783
1.49531
1.56606
1.62973
1.68591
1.73354
1.77256
1.80235
1.82151
1.82901
1.82918
1.82724
1.82166
1.81315
1.80437
1.79587
1.78513
1.76447
1.72114
1.62768
1.44873
1.21493
1.09067
1.03466
0.984634
0.934025
0.881529
0.824845
0.757665
0.700611
0.678939
0.688088
0.717955
0.759086
0.798162
0.827697
0.847527
0.85646
0.859248
0.861336
0.864851
0.870501
0.877241
0.8854
0.8938
0.903413
0.912237
0.921441
0.930516
0.941727
0.953778
0.966534
0.978473
0.990717
1.00242
1.01492
1.02714
1.04021
1.05275
1.06584
1.07821
1.09105
1.10334
1.11623
1.12873
1.14181
1.15441
1.16743
1.17983
1.19264
1.20486
1.21762
1.22986
1.2427
1.25498
1.26777
1.27997
1.29265
1.30472
1.31716
1.32909
1.34136
1.3532
1.36536
1.37708
1.38911
1.40066
1.41255
1.42392
1.4356
1.44681
1.45818
1.46906
1.47983
1.48975
1.49835
1.50403
1.13793
1.23082
1.31827
1.39942
1.47473
1.54418
1.60801
1.66595
1.71796
1.76363
1.80223
1.83359
1.85614
1.86913
1.8734
1.87309
1.87093
1.86552
1.85797
1.84854
1.83369
1.80489
1.74702
1.62333
1.42204
1.23453
1.14024
1.09003
1.046
0.991364
0.921983
0.844469
0.786587
0.770206
0.783088
0.815102
0.861185
0.906297
0.937236
0.957071
0.968794
0.970517
0.966393
0.962904
0.961835
0.963193
0.966622
0.971197
0.977325
0.983739
0.99084
0.99784
1.00662
1.0165
1.02799
1.03903
1.05056
1.06157
1.07322
1.08457
1.09673
1.10866
1.12132
1.13358
1.14634
1.15851
1.17111
1.18317
1.19578
1.20796
1.22073
1.23305
1.24582
1.25806
1.27059
1.28261
1.29491
1.30686
1.31921
1.3312
1.34356
1.35544
1.36772
1.3794
1.39148
1.40296
1.4148
1.42616
1.43782
1.44908
1.46058
1.47168
1.48301
1.49384
1.50494
1.51541
1.52602
1.53566
1.54434
1.54993
1.13504
1.22024
1.30236
1.38001
1.4526
1.52043
1.58322
1.64139
1.69435
1.74254
1.78498
1.8219
1.85235
1.87677
1.89372
1.90342
1.90641
1.90587
1.90335
1.89744
1.88696
1.86863
1.83259
1.76023
1.61255
1.3969
1.25295
1.17964
1.12476
1.06369
0.979317
0.888846
0.833229
0.824615
0.841132
0.879862
0.932321
0.982001
1.01633
1.036
1.0473
1.05267
1.05049
1.04352
1.03709
1.03375
1.03281
1.03442
1.03812
1.04312
1.04936
1.05532
1.06268
1.07118
1.08177
1.09248
1.10384
1.11465
1.12609
1.13711
1.14897
1.16048
1.17281
1.1847
1.19724
1.20921
1.22171
1.23359
1.24595
1.25775
1.27007
1.28192
1.2943
1.30624
1.31862
1.33053
1.34279
1.35455
1.36652
1.37806
1.38985
1.40128
1.41301
1.42438
1.43608
1.44731
1.45884
1.46983
1.48109
1.4918
1.5028
1.51333
1.5242
1.5346
1.5454
1.55557
1.56605
1.57543
1.58418
1.58956
1.13484
1.21183
1.28814
1.36141
1.43102
1.49649
1.55788
1.61517
1.66828
1.71727
1.76187
1.8022
1.83769
1.86843
1.89354
1.91338
1.92646
1.93311
1.9342
1.93298
1.92888
1.91928
1.89828
1.85434
1.76365
1.59172
1.3781
1.26022
1.18791
1.1057
0.994427
0.894064
0.852424
0.85299
0.87494
0.921791
0.979414
1.02931
1.06532
1.08851
1.10064
1.10677
1.10979
1.10724
1.10085
1.0944
1.09068
1.08912
1.09093
1.09484
1.10065
1.10671
1.11388
1.1216
1.13146
1.14196
1.15335
1.16426
1.17574
1.18668
1.1983
1.2095
1.22146
1.23299
1.24521
1.2569
1.26916
1.28084
1.293
1.30453
1.31652
1.32787
1.33973
1.35101
1.36288
1.37429
1.38615
1.39755
1.40932
1.42059
1.43214
1.44315
1.45443
1.46516
1.47623
1.48677
1.49774
1.50817
1.51904
1.52935
1.54003
1.55015
1.56055
1.57047
1.58055
1.59027
1.59997
1.60911
1.61739
1.62282
1.13722
1.20639
1.27635
1.34509
1.41094
1.47398
1.53321
1.58937
1.64159
1.69074
1.73589
1.77782
1.81565
1.8498
1.87972
1.90495
1.92582
1.9414
1.95196
1.95541
1.95466
1.95095
1.94081
1.91683
1.8644
1.75072
1.56154
1.35393
1.22888
1.11304
0.968467
0.873053
0.849678
0.858909
0.893209
0.947592
1.00448
1.05145
1.08761
1.11422
1.13173
1.14246
1.14842
1.15315
1.1543
1.15126
1.14692
1.14394
1.14418
1.14705
1.15237
1.1588
1.16613
1.17333
1.18224
1.19193
1.20293
1.21357
1.22484
1.23552
1.24677
1.25745
1.26875
1.27954
1.29097
1.30192
1.31345
1.3245
1.33607
1.34712
1.35867
1.36966
1.38109
1.39201
1.40327
1.41396
1.425
1.43556
1.44652
1.45705
1.46798
1.47845
1.4893
1.49965
1.51033
1.52049
1.53099
1.54096
1.55129
1.56109
1.57129
1.58095
1.59105
1.60061
1.61059
1.61999
1.62971
1.63854
1.6469
1.65212
1.14247
1.20427
1.26793
1.33151
1.39354
1.45327
1.51043
1.56457
1.61594
1.6641
1.70954
1.75159
1.79101
1.82674
1.85979
1.88869
1.91463
1.93589
1.95325
1.96613
1.97177
1.97129
1.96741
1.95562
1.9266
1.86165
1.72022
1.49986
1.28389
1.08611
0.905226
0.833627
0.829913
0.847646
0.893517
0.952792
1.0057
1.05057
1.0884
1.11966
1.14555
1.16527
1.17972
1.19043
1.199
1.20529
1.20634
1.20487
1.20393
1.20503
1.20841
1.21351
1.22033
1.22666
1.23398
1.24187
1.25158
1.26122
1.27166
1.28152
1.29196
1.30177
1.31219
1.3221
1.33263
1.3427
1.35332
1.36351
1.37421
1.3845
1.39527
1.40565
1.41649
1.42682
1.43751
1.44771
1.45825
1.4683
1.4787
1.48863
1.49893
1.50878
1.519
1.52881
1.53898
1.54873
1.55886
1.56852
1.57857
1.58811
1.59805
1.60747
1.61727
1.62654
1.63617
1.64526
1.65462
1.66317
1.67133
1.67637
1.15056
1.20545
1.26306
1.32137
1.37914
1.43549
1.48988
1.5421
1.59184
1.6392
1.6839
1.72619
1.76569
1.80283
1.83689
1.86862
1.8968
1.92239
1.94409
1.96205
1.976
1.982
1.98112
1.97585
1.95984
1.92053
1.83265
1.65672
1.36268
1.03741
0.824544
0.777641
0.786842
0.82119
0.876385
0.93463
0.988606
1.03747
1.08178
1.12168
1.15727
1.18798
1.21282
1.23169
1.24599
1.25735
1.2655
1.26955
1.26959
1.26872
1.26854
1.27044
1.27423
1.27892
1.28451
1.28996
1.29729
1.30519
1.31427
1.32297
1.33238
1.34124
1.35074
1.35973
1.36942
1.37865
1.38851
1.39795
1.40795
1.41757
1.4277
1.43745
1.44755
1.45721
1.46724
1.47687
1.48689
1.49653
1.50657
1.51622
1.52624
1.53584
1.5458
1.55531
1.56517
1.57455
1.58433
1.5936
1.6033
1.61249
1.62211
1.63124
1.64075
1.64978
1.65917
1.66804
1.67719
1.68555
1.69361
1.69855
1.16081
1.20958
1.26115
1.31448
1.36782
1.42065
1.47208
1.52202
1.56989
1.61603
1.65972
1.70171
1.74094
1.77864
1.81323
1.84642
1.87616
1.90439
1.92877
1.95124
1.96903
1.98255
1.98587
1.98277
1.97157
1.94195
1.87305
1.72617
1.43011
1.02405
0.759753
0.711631
0.732432
0.785654
0.858337
0.9278
0.991295
1.04774
1.09864
1.14458
1.18656
1.22343
1.25431
1.27814
1.29598
1.30974
1.31978
1.32702
1.33067
1.33049
1.32808
1.32633
1.32583
1.32763
1.331
1.33479
1.33967
1.34515
1.35261
1.36026
1.36887
1.37706
1.38582
1.39413
1.40304
1.41158
1.42076
1.42957
1.43899
1.44806
1.45767
1.46684
1.47644
1.48566
1.49527
1.50452
1.51413
1.52337
1.53295
1.54215
1.55172
1.56089
1.57047
1.57961
1.5892
1.59827
1.60785
1.61686
1.62638
1.63533
1.64478
1.65366
1.663
1.6718
1.681
1.68967
1.69864
1.70685
1.71482
1.71972
1.1727
1.21592
1.26215
1.31035
1.35974
1.40886
1.45746
1.50491
1.55095
1.59533
1.63809
1.67893
1.71805
1.75523
1.79033
1.82381
1.85463
1.88416
1.91036
1.93524
1.9557
1.97319
1.97961
1.97706
1.9675
1.94147
1.88004
1.74961
1.49284
1.13724
0.830088
0.761314
0.790105
0.845084
0.91815
0.98578
1.04633
1.1002
1.14674
1.18816
1.22563
1.26006
1.28964
1.31518
1.3353
1.35097
1.36305
1.37192
1.37756
1.38086
1.38131
1.37922
1.37677
1.37517
1.37555
1.3776
1.38087
1.38425
1.3892
1.39519
1.40292
1.41044
1.41864
1.42634
1.43465
1.44257
1.45113
1.45933
1.46819
1.47669
1.48574
1.49439
1.50357
1.51236
1.52163
1.53053
1.53982
1.54874
1.55803
1.56694
1.57625
1.58515
1.59451
1.60339
1.61277
1.6216
1.63095
1.63971
1.649
1.6577
1.66691
1.67555
1.68467
1.69325
1.70228
1.71074
1.71958
1.7276
1.73549
1.7403
1.18542
1.22396
1.26553
1.30938
1.35441
1.40044
1.44578
1.49086
1.53491
1.57746
1.61911
1.65865
1.69715
1.73373
1.76865
1.80219
1.83337
1.86353
1.89076
1.91678
1.93874
1.95705
1.96299
1.95948
1.94798
1.918
1.85055
1.71449
1.5104
1.27762
1.03083
0.897639
0.892487
0.919865
0.966378
1.02496
1.07987
1.1293
1.17222
1.21061
1.24615
1.27936
1.30966
1.33631
1.35972
1.37897
1.39455
1.40662
1.41665
1.42261
1.42591
1.4269
1.42554
1.42261
1.42069
1.41964
1.4208
1.42295
1.42594
1.42956
1.43522
1.44176
1.44943
1.4568
1.46481
1.47238
1.48057
1.48842
1.49693
1.50505
1.51371
1.52201
1.5308
1.53924
1.54813
1.55663
1.5656
1.57413
1.58315
1.5917
1.60075
1.60931
1.61837
1.62693
1.63598
1.64453
1.65354
1.66206
1.67104
1.67951
1.68847
1.6969
1.70582
1.7142
1.72303
1.73132
1.73997
1.74784
1.7556
1.76035
1.19972
1.23428
1.27175
1.3115
1.35281
1.39495
1.43801
1.47969
1.52214
1.56245
1.60267
1.64119
1.67834
1.71461
1.74859
1.78223
1.81299
1.84363
1.87096
1.89734
1.91945
1.93477
1.93612
1.92951
1.91064
1.86449
1.76339
1.60889
1.46918
1.36662
1.23244
1.07063
0.987185
0.980699
1.00162
1.03802
1.0873
1.13721
1.18219
1.22194
1.2586
1.29207
1.32321
1.35119
1.3768
1.399
1.41824
1.43349
1.44612
1.45626
1.4631
1.46692
1.46882
1.4687
1.46667
1.46399
1.4624
1.46234
1.46393
1.46623
1.46954
1.47385
1.48027
1.48711
1.49486
1.50221
1.51003
1.51757
1.52555
1.53319
1.54133
1.54915
1.55752
1.56553
1.5741
1.58225
1.59092
1.59915
1.60785
1.61613
1.62485
1.63313
1.64187
1.65016
1.65893
1.66721
1.67599
1.68423
1.69298
1.70119
1.70988
1.71807
1.72669
1.73485
1.74339
1.75149
1.7599
1.76764
1.77524
1.78
1.2147
1.24761
1.28098
1.31693
1.35469
1.39307
1.43301
1.47255
1.51176
1.55111
1.58857
1.6265
1.66197
1.6976
1.73089
1.76372
1.79474
1.82418
1.85239
1.87686
1.89788
1.905
1.90056
1.88699
1.85271
1.77334
1.63571
1.5082
1.44349
1.40347
1.35222
1.2621
1.14889
1.07475
1.05854
1.07272
1.09759
1.13742
1.18278
1.22532
1.26423
1.29938
1.33163
1.36138
1.3887
1.41334
1.43514
1.45426
1.46998
1.48342
1.49409
1.50247
1.50681
1.50939
1.51009
1.50896
1.50641
1.50464
1.50347
1.50439
1.50638
1.50874
1.51245
1.51758
1.52464
1.5316
1.53923
1.5464
1.55404
1.56129
1.56902
1.57648
1.58442
1.59212
1.60027
1.60812
1.61641
1.6243
1.63267
1.64057
1.64898
1.65692
1.66538
1.67337
1.68187
1.68988
1.6984
1.70637
1.71487
1.72281
1.73123
1.73916
1.74752
1.75547
1.76378
1.7717
1.7799
1.78746
1.79491
1.79954
1.23087
1.26086
1.29264
1.32456
1.35941
1.39462
1.43091
1.46811
1.50495
1.54168
1.57818
1.61339
1.64876
1.68203
1.71565
1.74672
1.77786
1.80633
1.83323
1.85637
1.86879
1.86779
1.85721
1.82965
1.7648
1.63845
1.51225
1.44795
1.42916
1.42305
1.41055
1.37982
1.32004
1.23514
1.15723
1.12608
1.13126
1.14835
1.17972
1.22096
1.26228
1.3009
1.33605
1.36829
1.39738
1.42442
1.4483
1.47034
1.4893
1.50596
1.5196
1.53131
1.54046
1.54611
1.54903
1.55051
1.55048
1.54883
1.54639
1.54494
1.54486
1.54616
1.54822
1.55091
1.55536
1.56113
1.56826
1.57513
1.58255
1.58944
1.59688
1.60387
1.61146
1.61868
1.62646
1.63391
1.64182
1.64945
1.65744
1.66516
1.67321
1.68096
1.6891
1.69683
1.70506
1.71275
1.72102
1.7287
1.73694
1.74462
1.7528
1.76047
1.76858
1.77623
1.7843
1.79191
1.79988
1.80718
1.81447
1.81899
1.24486
1.27547
1.30506
1.33518
1.36602
1.39899
1.43222
1.46634
1.50103
1.53559
1.56985
1.60394
1.63705
1.66997
1.70133
1.73269
1.76161
1.78984
1.81374
1.83086
1.83248
1.8237
1.80017
1.74713
1.63331
1.50377
1.43461
1.41819
1.42318
1.4339
1.44071
1.43888
1.42171
1.37983
1.31197
1.23495
1.19344
1.18803
1.20113
1.22379
1.25853
1.29748
1.33583
1.37107
1.40322
1.4324
1.45906
1.48314
1.50514
1.52438
1.54134
1.5554
1.56786
1.57773
1.58494
1.58843
1.59053
1.59112
1.59025
1.58794
1.5864
1.58511
1.58578
1.5873
1.58929
1.59237
1.59756
1.60375
1.61079
1.6175
1.62466
1.63139
1.63862
1.64546
1.65287
1.65991
1.66752
1.67472
1.68245
1.68976
1.69756
1.70491
1.71277
1.72018
1.7281
1.73558
1.74353
1.75103
1.75896
1.76644
1.77429
1.78173
1.78951
1.79692
1.80466
1.81201
1.8197
1.82673
1.83379
1.83812
1.26342
1.28934
1.31787
1.34582
1.37486
1.40451
1.43584
1.4674
1.49943
1.53203
1.56451
1.59653
1.62856
1.65955
1.69032
1.71931
1.74786
1.77246
1.79212
1.79648
1.78894
1.76895
1.72249
1.62168
1.48926
1.41271
1.39643
1.40483
1.41992
1.44205
1.4618
1.47072
1.47117
1.46126
1.43311
1.3811
1.31578
1.26638
1.24872
1.25582
1.2706
1.29706
1.3327
1.36919
1.40473
1.43692
1.46619
1.49284
1.51742
1.53919
1.55889
1.57608
1.59097
1.60381
1.61475
1.62283
1.62749
1.62993
1.63091
1.63083
1.62927
1.62666
1.62543
1.62468
1.62568
1.62704
1.62932
1.63316
1.63908
1.64532
1.65225
1.6588
1.66576
1.67231
1.67933
1.68601
1.69322
1.70007
1.70741
1.71436
1.72181
1.72884
1.73641
1.7435
1.75117
1.75829
1.76598
1.7731
1.78075
1.7879
1.79546
1.80265
1.81014
1.81736
1.82483
1.83198
1.83942
1.84623
1.85306
1.85725
1.28154
1.30249
1.33051
1.35786
1.38461
1.41252
1.44075
1.47065
1.50037
1.53072
1.5612
1.59185
1.62185
1.65175
1.68065
1.70845
1.73333
1.75452
1.76073
1.75404
1.7365
1.69442
1.60757
1.47289
1.38866
1.37029
1.37893
1.39617
1.42158
1.45004
1.47526
1.4913
1.49966
1.50205
1.4983
1.48177
1.44686
1.39602
1.34292
1.31501
1.31098
1.3215
1.33938
1.36829
1.40214
1.43588
1.46846
1.49856
1.52558
1.55027
1.57262
1.59278
1.61046
1.62594
1.63917
1.65076
1.65958
1.66559
1.66849
1.66993
1.67031
1.66935
1.66717
1.66494
1.6636
1.66359
1.66454
1.66614
1.66916
1.67373
1.67992
1.68613
1.69287
1.69918
1.70591
1.71226
1.71907
1.72554
1.73249
1.73907
1.74614
1.75282
1.76004
1.76681
1.77413
1.78096
1.78831
1.79522
1.80256
1.80953
1.81684
1.8238
1.83109
1.83796
1.84524
1.85199
1.8592
1.86564
1.87222
1.8762
1.30614
1.31956
1.34267
1.36996
1.39597
1.4216
1.44818
1.47517
1.50345
1.53167
1.56029
1.58885
1.61758
1.64537
1.67275
1.69739
1.71851
1.72656
1.72092
1.70478
1.66645
1.58769
1.45076
1.35963
1.33989
1.34926
1.36775
1.39509
1.42714
1.4559
1.48125
1.50261
1.51873
1.5285
1.53462
1.5355
1.52827
1.50753
1.4699
1.42498
1.38728
1.37092
1.37456
1.38592
1.40571
1.43488
1.46702
1.499
1.52914
1.55694
1.58222
1.60516
1.6258
1.64403
1.66005
1.6738
1.6858
1.69555
1.70263
1.70651
1.70844
1.70903
1.70868
1.70692
1.70406
1.70246
1.70135
1.70192
1.70293
1.70488
1.70875
1.71392
1.72013
1.72609
1.73256
1.73857
1.74502
1.75106
1.75759
1.7638
1.7705
1.77688
1.78374
1.79024
1.79722
1.8038
1.81085
1.81746
1.82452
1.83113
1.8382
1.84479
1.85183
1.85838
1.86539
1.87184
1.87874
1.88481
1.891
1.89466
1.33151
1.33787
1.35653
1.38162
1.40682
1.43151
1.45619
1.48175
1.50754
1.53442
1.56107
1.58809
1.61454
1.64065
1.66461
1.6854
1.69426
1.68951
1.67376
1.63714
1.56169
1.43039
1.33518
1.31312
1.32164
1.33981
1.36838
1.40144
1.43185
1.45915
1.48413
1.50747
1.52849
1.54631
1.5592
1.56848
1.5732
1.57282
1.56287
1.53967
1.5038
1.46484
1.43924
1.42999
1.43656
1.44823
1.46934
1.49776
1.52843
1.55881
1.5871
1.61297
1.63656
1.65785
1.67672
1.69333
1.7076
1.72025
1.73073
1.73877
1.74378
1.74633
1.74709
1.74716
1.74587
1.74353
1.74056
1.7392
1.73849
1.73914
1.74049
1.74316
1.74777
1.75298
1.75911
1.76482
1.77101
1.77673
1.78291
1.78875
1.79504
1.80105
1.80753
1.81367
1.82032
1.82655
1.83332
1.83961
1.84643
1.85273
1.85953
1.86581
1.87256
1.87876
1.88544
1.89143
1.8979
1.9034
1.90896
1.91213
1.36887
1.36352
1.37248
1.39236
1.41772
1.442
1.46562
1.48928
1.51359
1.53818
1.56333
1.58839
1.613
1.63577
1.65549
1.66438
1.65987
1.64398
1.60796
1.53395
1.40745
1.30797
1.28501
1.29352
1.31156
1.34085
1.375
1.40666
1.43466
1.46123
1.48597
1.51051
1.53382
1.55583
1.57552
1.59091
1.60312
1.6124
1.61539
1.61369
1.60214
1.57824
1.54556
1.51218
1.49353
1.48919
1.49656
1.50891
1.53042
1.55864
1.58724
1.61607
1.64268
1.66705
1.68885
1.70862
1.72581
1.74087
1.75383
1.76498
1.77389
1.77997
1.78355
1.78473
1.78495
1.78423
1.78168
1.7788
1.77644
1.77527
1.77544
1.7761
1.77777
1.78102
1.78613
1.79126
1.7971
1.8026
1.80852
1.81405
1.82001
1.82561
1.83172
1.83744
1.84372
1.84956
1.85594
1.86189
1.86832
1.87431
1.88075
1.88665
1.89307
1.89874
1.90503
1.91033
1.91616
1.92076
1.92521
1.92769
1.41418
1.39036
1.39186
1.40562
1.42733
1.45182
1.47501
1.49753
1.52019
1.54322
1.56635
1.58933
1.61093
1.62934
1.63744
1.63247
1.61593
1.57941
1.50518
1.38145
1.2789
1.25528
1.26444
1.28298
1.31355
1.34888
1.38123
1.41032
1.43721
1.46292
1.48832
1.5131
1.53804
1.56183
1.58499
1.60585
1.62349
1.63825
1.64991
1.65856
1.66061
1.65772
1.64525
1.62145
1.59193