/*--------------------------------*- C++ -*----------------------------------*\
  =========                 |
  \\      /  F ield         | OpenFOAM: The Open Source CFD Toolbox
   \\    /   O peration     | Website:  https://openfoam.org
    \\  /    A nd           | Version:  10
     \\/     M anipulation  |
\*---------------------------------------------------------------------------*/
FoamFile
{
    format      ascii;
    class       volScalarField;
    location    "0.58";
    object      Exp1;
}
// * * * * * * * * * * * * * * * * * * * * * * * * * * * * * * * * * * * * * //

dimensions      [0 0 0 0 0 0 0];

internalField   uniform 0;

boundaryField
{
    frontAndBack
    {
        type            empty;
    }
    inlet
    {
        type            calculated;
        value           uniform 0;
    }
    outlet
    {
        type            calculated;
        value           uniform 0;
    }
    substrate
    {
        type            calculated;
        value           nonuniform List<scalar> 
400
(
5.08879e-11
1.52393e-10
2.53268e-10
3.53234e-10
4.5205e-10
5.49505e-10
6.45412e-10
7.39609e-10
8.31952e-10
9.22319e-10
1.0106e-09
1.09672e-09
1.18059e-09
1.26216e-09
1.34138e-09
1.41823e-09
1.49268e-09
1.56472e-09
1.63435e-09
1.70159e-09
1.76644e-09
1.82894e-09
1.8891e-09
1.94696e-09
2.00255e-09
2.05593e-09
2.10713e-09
2.1562e-09
2.20318e-09
2.24813e-09
2.2911e-09
2.33213e-09
2.37129e-09
2.40861e-09
2.44416e-09
2.47798e-09
2.51012e-09
2.54063e-09
2.56956e-09
2.59696e-09
2.62288e-09
2.64735e-09
2.67042e-09
2.69214e-09
2.71255e-09
2.73169e-09
2.74959e-09
2.76629e-09
2.78183e-09
2.79625e-09
2.80957e-09
2.82184e-09
2.83308e-09
2.84332e-09
2.85259e-09
2.86093e-09
2.86835e-09
2.87488e-09
2.88055e-09
2.88539e-09
2.8894e-09
2.89263e-09
2.89509e-09
2.8968e-09
2.89778e-09
2.89805e-09
2.89762e-09
2.89653e-09
2.89478e-09
2.89239e-09
2.88938e-09
2.88577e-09
2.88157e-09
2.87679e-09
2.87145e-09
2.86556e-09
2.85914e-09
2.8522e-09
2.84476e-09
2.83682e-09
2.8284e-09
2.81952e-09
2.81017e-09
2.80038e-09
2.79016e-09
2.77951e-09
2.76846e-09
2.757e-09
2.74515e-09
2.73292e-09
2.72032e-09
2.70736e-09
2.69405e-09
2.6804e-09
2.66641e-09
2.65211e-09
2.63749e-09
2.62257e-09
2.60736e-09
2.59186e-09
2.57608e-09
2.56004e-09
2.54373e-09
2.52718e-09
2.51038e-09
2.49335e-09
2.4761e-09
2.45862e-09
2.44094e-09
2.42306e-09
2.40498e-09
2.38672e-09
2.36827e-09
2.34966e-09
2.33089e-09
2.31196e-09
2.29288e-09
2.27366e-09
2.25431e-09
2.23483e-09
2.21524e-09
2.19553e-09
2.17572e-09
2.15581e-09
2.1358e-09
2.11572e-09
2.09556e-09
2.07532e-09
2.05502e-09
2.03466e-09
2.01426e-09
1.9938e-09
1.97331e-09
1.95278e-09
1.93223e-09
1.91165e-09
1.89106e-09
1.87046e-09
1.84985e-09
1.82925e-09
1.80865e-09
1.78807e-09
1.7675e-09
1.74696e-09
1.72644e-09
1.70596e-09
1.68551e-09
1.66511e-09
1.64476e-09
1.62445e-09
1.60421e-09
1.58402e-09
1.56391e-09
1.54386e-09
1.52388e-09
1.50398e-09
1.48417e-09
1.46444e-09
1.4448e-09
1.42525e-09
1.4058e-09
1.38645e-09
1.36721e-09
1.34807e-09
1.32905e-09
1.31013e-09
1.29133e-09
1.27266e-09
1.2541e-09
1.23567e-09
1.21737e-09
1.1992e-09
1.18116e-09
1.16325e-09
1.14549e-09
1.12786e-09
1.11037e-09
1.09303e-09
1.07583e-09
1.05878e-09
1.04188e-09
1.02513e-09
1.00853e-09
9.92088e-10
9.75799e-10
9.59666e-10
9.43691e-10
9.27874e-10
9.12218e-10
8.96722e-10
8.81388e-10
8.66216e-10
8.51208e-10
8.36364e-10
8.21684e-10
8.0717e-10
7.92821e-10
7.78638e-10
7.64621e-10
7.50771e-10
7.37088e-10
7.23572e-10
7.10222e-10
6.9704e-10
6.84024e-10
6.71175e-10
6.58493e-10
6.45977e-10
6.33627e-10
6.21443e-10
6.09424e-10
5.9757e-10
5.8588e-10
5.74355e-10
5.62992e-10
5.51792e-10
5.40754e-10
5.29877e-10
5.19161e-10
5.08604e-10
4.98205e-10
4.87965e-10
4.77882e-10
4.67954e-10
4.58181e-10
4.48563e-10
4.39097e-10
4.29783e-10
4.20619e-10
4.11605e-10
4.02739e-10
3.94021e-10
3.85448e-10
3.7702e-10
3.68735e-10
3.60592e-10
3.5259e-10
3.44727e-10
3.37002e-10
3.29413e-10
3.2196e-10
3.14641e-10
3.07454e-10
3.00398e-10
2.93472e-10
2.86674e-10
2.80002e-10
2.73456e-10
2.67033e-10
2.60732e-10
2.54552e-10
2.48492e-10
2.42548e-10
2.36722e-10
2.31009e-10
2.2541e-10
2.19923e-10
2.14545e-10
2.09276e-10
2.04115e-10
1.99059e-10
1.94107e-10
1.89257e-10
1.84509e-10
1.7986e-10
1.75309e-10
1.70855e-10
1.66496e-10
1.6223e-10
1.58057e-10
1.53974e-10
1.49981e-10
1.46075e-10
1.42256e-10
1.38521e-10
1.3487e-10
1.31301e-10
1.27813e-10
1.24404e-10
1.21073e-10
1.17818e-10
1.14639e-10
1.11533e-10
1.085e-10
1.05538e-10
1.02646e-10
9.98229e-11
9.70668e-11
9.43767e-11
9.17514e-11
8.91897e-11
8.66903e-11
8.4252e-11
8.18736e-11
7.9554e-11
7.72919e-11
7.50862e-11
7.29358e-11
7.08396e-11
6.87964e-11
6.68052e-11
6.48648e-11
6.29742e-11
6.11324e-11
5.93384e-11
5.7591e-11
5.58894e-11
5.42325e-11
5.26193e-11
5.10489e-11
4.95204e-11
4.80328e-11
4.65852e-11
4.51767e-11
4.38065e-11
4.24737e-11
4.11773e-11
3.99167e-11
3.86909e-11
3.74991e-11
3.63406e-11
3.52146e-11
3.41204e-11
3.3057e-11
3.2024e-11
3.10204e-11
3.00456e-11
2.90989e-11
2.81797e-11
2.72872e-11
2.64208e-11
2.55799e-11
2.47639e-11
2.39721e-11
2.32039e-11
2.24587e-11
2.1736e-11
2.10352e-11
2.03558e-11
1.96972e-11
1.90588e-11
1.84403e-11
1.7841e-11
1.72605e-11
1.66983e-11
1.6154e-11
1.5627e-11
1.5117e-11
1.46235e-11
1.41461e-11
1.36844e-11
1.32379e-11
1.28063e-11
1.23893e-11
1.19863e-11
1.15972e-11
1.12214e-11
1.08588e-11
1.05089e-11
1.01714e-11
9.84604e-12
9.53252e-12
9.23052e-12
8.93977e-12
8.65998e-12
8.3909e-12
8.13227e-12
7.88384e-12
7.64536e-12
7.41662e-12
7.19737e-12
6.98742e-12
6.78655e-12
6.59456e-12
6.41127e-12
6.23648e-12
6.07003e-12
5.91175e-12
5.76147e-12
5.61905e-12
5.48434e-12
5.3572e-12
5.2375e-12
5.12512e-12
5.01995e-12
4.92187e-12
4.83078e-12
4.74658e-12
4.6692e-12
4.59855e-12
4.53455e-12
4.47714e-12
4.42626e-12
4.38185e-12
4.34387e-12
4.31228e-12
4.28705e-12
4.26815e-12
4.25556e-12
4.24927e-12
)
;
    }
    Wall
    {
        type            calculated;
        value           nonuniform List<scalar> 
400
(
5.08881e-11
1.52394e-10
2.53271e-10
3.53238e-10
4.52055e-10
5.49511e-10
6.45418e-10
7.39614e-10
8.31956e-10
9.22321e-10
1.0106e-09
1.09672e-09
1.18058e-09
1.26215e-09
1.34137e-09
1.41822e-09
1.49267e-09
1.56471e-09
1.63434e-09
1.70157e-09
1.76642e-09
1.82892e-09
1.88907e-09
1.94693e-09
2.00253e-09
2.0559e-09
2.1071e-09
2.15616e-09
2.20315e-09
2.24809e-09
2.29106e-09
2.33209e-09
2.37125e-09
2.40857e-09
2.44411e-09
2.47793e-09
2.51007e-09
2.54058e-09
2.56951e-09
2.59691e-09
2.62282e-09
2.64729e-09
2.67037e-09
2.69209e-09
2.71249e-09
2.73163e-09
2.74953e-09
2.76623e-09
2.78177e-09
2.79619e-09
2.80951e-09
2.82178e-09
2.83301e-09
2.84326e-09
2.85253e-09
2.86086e-09
2.86828e-09
2.87481e-09
2.88048e-09
2.88532e-09
2.88933e-09
2.89256e-09
2.89502e-09
2.89673e-09
2.8977e-09
2.89797e-09
2.89755e-09
2.89646e-09
2.89471e-09
2.89232e-09
2.88931e-09
2.8857e-09
2.88149e-09
2.87671e-09
2.87137e-09
2.86549e-09
2.85907e-09
2.85213e-09
2.84468e-09
2.83675e-09
2.82833e-09
2.81944e-09
2.8101e-09
2.80031e-09
2.79009e-09
2.77944e-09
2.76838e-09
2.75692e-09
2.74507e-09
2.73284e-09
2.72024e-09
2.70728e-09
2.69397e-09
2.68032e-09
2.66634e-09
2.65204e-09
2.63742e-09
2.6225e-09
2.60729e-09
2.59179e-09
2.57601e-09
2.55997e-09
2.54366e-09
2.52711e-09
2.51031e-09
2.49328e-09
2.47603e-09
2.45856e-09
2.44087e-09
2.42299e-09
2.40491e-09
2.38665e-09
2.36821e-09
2.3496e-09
2.33082e-09
2.31189e-09
2.29281e-09
2.2736e-09
2.25425e-09
2.23477e-09
2.21517e-09
2.19547e-09
2.17565e-09
2.15574e-09
2.13574e-09
2.11566e-09
2.0955e-09
2.07526e-09
2.05496e-09
2.03461e-09
2.0142e-09
1.99374e-09
1.97325e-09
1.95272e-09
1.93217e-09
1.9116e-09
1.891e-09
1.8704e-09
1.8498e-09
1.8292e-09
1.8086e-09
1.78802e-09
1.76745e-09
1.74691e-09
1.72639e-09
1.70591e-09
1.68547e-09
1.66506e-09
1.64471e-09
1.62441e-09
1.60416e-09
1.58398e-09
1.56386e-09
1.54381e-09
1.52384e-09
1.50394e-09
1.48412e-09
1.4644e-09
1.44476e-09
1.42521e-09
1.40576e-09
1.38641e-09
1.36717e-09
1.34803e-09
1.32901e-09
1.31009e-09
1.2913e-09
1.27262e-09
1.25406e-09
1.23564e-09
1.21733e-09
1.19916e-09
1.18112e-09
1.16322e-09
1.14545e-09
1.12782e-09
1.11034e-09
1.093e-09
1.0758e-09
1.05875e-09
1.04185e-09
1.0251e-09
1.0085e-09
9.92058e-10
9.75769e-10
9.59637e-10
9.43662e-10
9.27847e-10
9.1219e-10
8.96695e-10
8.81362e-10
8.6619e-10
8.51183e-10
8.36339e-10
8.2166e-10
8.07146e-10
7.92797e-10
7.78615e-10
7.64599e-10
7.50749e-10
7.37066e-10
7.2355e-10
7.10201e-10
6.97019e-10
6.84004e-10
6.71155e-10
6.58473e-10
6.45958e-10
6.33608e-10
6.21424e-10
6.09406e-10
5.97552e-10
5.85863e-10
5.74337e-10
5.62975e-10
5.51776e-10
5.40738e-10
5.29861e-10
5.19145e-10
5.08589e-10
4.98191e-10
4.87951e-10
4.77867e-10
4.6794e-10
4.58168e-10
4.48549e-10
4.39084e-10
4.2977e-10
4.20607e-10
4.11593e-10
4.02727e-10
3.94009e-10
3.85436e-10
3.77008e-10
3.68724e-10
3.60581e-10
3.52579e-10
3.44716e-10
3.36992e-10
3.29404e-10
3.21951e-10
3.14632e-10
3.07445e-10
3.0039e-10
2.93463e-10
2.86665e-10
2.79994e-10
2.73448e-10
2.67025e-10
2.60725e-10
2.54545e-10
2.48484e-10
2.42541e-10
2.36715e-10
2.31002e-10
2.25403e-10
2.19916e-10
2.14539e-10
2.0927e-10
2.04109e-10
1.99053e-10
1.94101e-10
1.89252e-10
1.84503e-10
1.79855e-10
1.75304e-10
1.7085e-10
1.66491e-10
1.62226e-10
1.58052e-10
1.5397e-10
1.49976e-10
1.46071e-10
1.42251e-10
1.38517e-10
1.34866e-10
1.31297e-10
1.27809e-10
1.244e-10
1.21069e-10
1.17815e-10
1.14635e-10
1.1153e-10
1.08497e-10
1.05535e-10
1.02643e-10
9.982e-11
9.7064e-11
9.4374e-11
9.17488e-11
8.91872e-11
8.66878e-11
8.42496e-11
8.18713e-11
7.95517e-11
7.72897e-11
7.50841e-11
7.29338e-11
7.08376e-11
6.87945e-11
6.68033e-11
6.4863e-11
6.29725e-11
6.11307e-11
5.93367e-11
5.75894e-11
5.58878e-11
5.42309e-11
5.26178e-11
5.10475e-11
4.9519e-11
4.80315e-11
4.65839e-11
4.51755e-11
4.38053e-11
4.24725e-11
4.11762e-11
3.99156e-11
3.86898e-11
3.74981e-11
3.63397e-11
3.52137e-11
3.41194e-11
3.30561e-11
3.20231e-11
3.10195e-11
3.00448e-11
2.90981e-11
2.81789e-11
2.72865e-11
2.64201e-11
2.55793e-11
2.47632e-11
2.39714e-11
2.32032e-11
2.24581e-11
2.17354e-11
2.10347e-11
2.03552e-11
1.96966e-11
1.90583e-11
1.84398e-11
1.78405e-11
1.72601e-11
1.66979e-11
1.61536e-11
1.56266e-11
1.51167e-11
1.46232e-11
1.41458e-11
1.3684e-11
1.32376e-11
1.2806e-11
1.2389e-11
1.1986e-11
1.15969e-11
1.12211e-11
1.08585e-11
1.05086e-11
1.01711e-11
9.8458e-12
9.53229e-12
9.2303e-12
8.93955e-12
8.65978e-12
8.3907e-12
8.13208e-12
7.88365e-12
7.64519e-12
7.41644e-12
7.19721e-12
6.98726e-12
6.78639e-12
6.59441e-12
6.41112e-12
6.23634e-12
6.0699e-12
5.91162e-12
5.76135e-12
5.61893e-12
5.48423e-12
5.35709e-12
5.2374e-12
5.12502e-12
5.01985e-12
4.92177e-12
4.83068e-12
4.74649e-12
4.66911e-12
4.59846e-12
4.53446e-12
4.47705e-12
4.42617e-12
4.38176e-12
4.34378e-12
4.31218e-12
4.28695e-12
4.26805e-12
4.25549e-12
4.24922e-12
)
;
    }
}


// ************************************************************************* //
