/*--------------------------------*- C++ -*----------------------------------*\
  =========                 |
  \\      /  F ield         | OpenFOAM: The Open Source CFD Toolbox
   \\    /   O peration     | Website:  https://openfoam.org
    \\  /    A nd           | Version:  10
     \\/     M anipulation  |
\*---------------------------------------------------------------------------*/
FoamFile
{
    format      ascii;
    class       volScalarField;
    location    "0.58";
    object      growth;
}
// * * * * * * * * * * * * * * * * * * * * * * * * * * * * * * * * * * * * * //

dimensions      [0 0 0 0 0 0 0];

internalField   uniform 0;

boundaryField
{
    frontAndBack
    {
        type            empty;
    }
    inlet
    {
        type            calculated;
        value           uniform 0;
    }
    outlet
    {
        type            calculated;
        value           uniform 0;
    }
    substrate
    {
        type            calculated;
        value           nonuniform List<scalar> 
400
(
0.734673
0.712425
0.691347
0.670899
0.650825
0.631001
0.611366
0.591896
0.572588
0.553452
0.534506
0.515774
0.497281
0.479053
0.461116
0.443497
0.426218
0.409302
0.392768
0.376634
0.360915
0.345622
0.330766
0.316355
0.302393
0.288885
0.27583
0.26323
0.251081
0.239379
0.22812
0.217296
0.206902
0.196927
0.187364
0.178201
0.16943
0.161039
0.153017
0.145352
0.138033
0.131048
0.124386
0.118035
0.111983
0.106218
0.100731
0.0955081
0.09054
0.0858156
0.0813246
0.0770566
0.0730021
0.0691513
0.065495
0.0620244
0.0587308
0.055606
0.0526418
0.0498307
0.0471653
0.0446385
0.0422434
0.0399737
0.0378231
0.0357856
0.0338556
0.0320276
0.0302965
0.0286574
0.0271054
0.0256362
0.0242454
0.0229291
0.0216833
0.0205043
0.0193887
0.0183331
0.0173344
0.0163895
0.0154957
0.0146502
0.0138504
0.013094
0.0123786
0.0117019
0.0110621
0.010457
0.00988477
0.00934371
0.00883211
0.00834838
0.00789102
0.00745861
0.00704979
0.0066633
0.00629791
0.00595249
0.00562595
0.00531727
0.00502548
0.00474965
0.00448892
0.00424247
0.00400952
0.00378933
0.00358121
0.00338449
0.00319857
0.00302283
0.00285674
0.00269976
0.00255139
0.00241116
0.00227863
0.00215338
0.002035
0.00192313
0.00181739
0.00171747
0.00162303
0.00153378
0.00144944
0.00136973
0.0012944
0.00122321
0.00115593
0.00109235
0.00103227
0.000975488
0.000921828
0.000871119
0.000823198
0.000777912
0.000735116
0.000694674
0.000656456
0.000620339
0.00058621
0.000553957
0.000523478
0.000494676
0.000467458
0.000441737
0.000417431
0.000394462
0.000372757
0.000352246
0.000332863
0.000314547
0.000297239
0.000280882
0.000265426
0.00025082
0.000237018
0.000223975
0.000211649
0.000200002
0.000188996
0.000178596
0.000168767
0.00015948
0.000150703
0.00014241
0.000134573
0.000127167
0.000120169
0.000113555
0.000107306
0.000101401
9.58203e-05
9.05469e-05
8.55638e-05
8.08549e-05
7.64051e-05
7.22002e-05
6.82267e-05
6.44718e-05
6.09236e-05
5.75707e-05
5.44023e-05
5.14082e-05
4.8579e-05
4.59054e-05
4.33789e-05
4.09915e-05
3.87355e-05
3.66037e-05
3.45891e-05
3.26855e-05
3.08865e-05
2.91866e-05
2.75803e-05
2.60623e-05
2.46279e-05
2.32725e-05
2.19916e-05
2.07812e-05
1.96375e-05
1.85567e-05
1.75353e-05
1.65702e-05
1.56582e-05
1.47964e-05
1.3982e-05
1.32124e-05
1.24852e-05
1.1798e-05
1.11487e-05
1.0535e-05
9.95517e-06
9.40722e-06
8.88943e-06
8.40014e-06
7.93778e-06
7.50087e-06
7.088e-06
6.69785e-06
6.32918e-06
5.9808e-06
5.65159e-06
5.3405e-06
5.04653e-06
4.76875e-06
4.50625e-06
4.2582e-06
4.0238e-06
3.8023e-06
3.59299e-06
3.39521e-06
3.20831e-06
3.03169e-06
2.8648e-06
2.70709e-06
2.55807e-06
2.41724e-06
2.28417e-06
2.15842e-06
2.03959e-06
1.92731e-06
1.8212e-06
1.72094e-06
1.62619e-06
1.53666e-06
1.45205e-06
1.37211e-06
1.29656e-06
1.22517e-06
1.15772e-06
1.09397e-06
1.03374e-06
9.76815e-07
9.23028e-07
8.72202e-07
8.24174e-07
7.7879e-07
7.35904e-07
6.95379e-07
6.57085e-07
6.20899e-07
5.86705e-07
5.54393e-07
5.2386e-07
4.95009e-07
4.67745e-07
4.41983e-07
4.17639e-07
3.94635e-07
3.72898e-07
3.52357e-07
3.32948e-07
3.14607e-07
2.97276e-07
2.80899e-07
2.65424e-07
2.50801e-07
2.36983e-07
2.23926e-07
2.11588e-07
1.9993e-07
1.88913e-07
1.78504e-07
1.68667e-07
1.59372e-07
1.50589e-07
1.4229e-07
1.34448e-07
1.27037e-07
1.20035e-07
1.13419e-07
1.07167e-07
1.01259e-07
9.56769e-08
9.04022e-08
8.5418e-08
8.07084e-08
7.62582e-08
7.20532e-08
6.80799e-08
6.43255e-08
6.07779e-08
5.74258e-08
5.42584e-08
5.12656e-08
4.84377e-08
4.57656e-08
4.32408e-08
4.08551e-08
3.86009e-08
3.64709e-08
3.44584e-08
3.25568e-08
3.076e-08
2.90623e-08
2.74582e-08
2.59425e-08
2.45104e-08
2.31572e-08
2.18787e-08
2.06707e-08
1.95293e-08
1.84509e-08
1.7432e-08
1.64692e-08
1.55596e-08
1.47002e-08
1.38882e-08
1.31211e-08
1.23962e-08
1.17114e-08
1.10644e-08
1.04531e-08
9.8756e-09
9.32997e-09
8.81449e-09
8.3275e-09
7.86742e-09
7.43277e-09
7.02215e-09
6.63425e-09
6.2678e-09
5.92164e-09
5.59464e-09
5.28575e-09
4.99397e-09
4.71836e-09
4.45804e-09
4.21217e-09
3.97994e-09
3.76062e-09
3.55349e-09
3.35789e-09
3.17319e-09
2.99878e-09
2.83411e-09
2.67864e-09
2.53187e-09
2.39333e-09
2.26257e-09
2.13917e-09
2.02272e-09
1.91285e-09
1.80922e-09
1.71147e-09
1.6193e-09
1.5324e-09
1.4505e-09
1.37333e-09
1.30064e-09
1.23219e-09
1.16777e-09
1.10717e-09
1.05018e-09
9.96623e-10
9.46329e-10
8.99132e-10
8.54879e-10
8.13427e-10
7.74641e-10
7.38396e-10
7.04573e-10
6.73064e-10
6.43765e-10
6.16582e-10
5.91426e-10
5.68217e-10
5.46877e-10
5.27339e-10
5.09538e-10
4.93417e-10
4.78924e-10
4.66011e-10
4.54636e-10
4.44763e-10
4.36359e-10
4.29397e-10
4.23854e-10
4.19713e-10
4.1696e-10
4.15585e-10
)
;
    }
    Wall
    {
        type            calculated;
        value           nonuniform List<scalar> 
400
(
0.734673
0.712424
0.691347
0.670899
0.650826
0.631001
0.611366
0.591895
0.572587
0.553451
0.534506
0.515774
0.497281
0.479053
0.461117
0.443498
0.42622
0.409304
0.392771
0.376637
0.360918
0.345625
0.33077
0.316359
0.302397
0.288889
0.275835
0.263234
0.251085
0.239384
0.228124
0.217301
0.206907
0.196932
0.187369
0.178207
0.169435
0.161044
0.153022
0.145357
0.138038
0.131053
0.124391
0.118039
0.111987
0.106223
0.100735
0.0955123
0.0905441
0.0858196
0.0813284
0.0770603
0.0730056
0.0691547
0.0654983
0.0620276
0.0587339
0.0556089
0.0526446
0.0498334
0.0471679
0.0446409
0.0422458
0.039976
0.0378252
0.0357877
0.0338576
0.0320295
0.0302983
0.028659
0.027107
0.0256377
0.0242469
0.0229304
0.0216845
0.0205055
0.0193898
0.0183342
0.0173354
0.0163905
0.0154966
0.014651
0.0138512
0.0130947
0.0123793
0.0117026
0.0110627
0.0104576
0.00988532
0.00934422
0.00883259
0.00834883
0.00789144
0.007459
0.00705016
0.00666364
0.00629823
0.00595279
0.00562623
0.00531753
0.00502572
0.00474988
0.00448914
0.00424267
0.0040097
0.0037895
0.00358137
0.00338464
0.0031987
0.00302296
0.00285686
0.00269987
0.00255149
0.00241126
0.00227872
0.00215346
0.00203508
0.00192319
0.00181746
0.00171753
0.00162309
0.00153383
0.00144949
0.00136977
0.00129444
0.00122325
0.00115597
0.00109238
0.0010323
0.000975514
0.000921852
0.000871141
0.000823218
0.000777931
0.000735133
0.00069469
0.00065647
0.000620353
0.000586222
0.000553968
0.000523488
0.000494685
0.000467466
0.000441745
0.000417438
0.000394469
0.000372763
0.000352251
0.000332868
0.000314552
0.000297243
0.000280886
0.000265429
0.000250823
0.00023702
0.000223977
0.000211652
0.000200004
0.000188998
0.000178597
0.000168769
0.000159481
0.000150705
0.000142411
0.000134574
0.000127168
0.000120169
0.000113556
0.000107307
0.000101401
9.58208e-05
9.05474e-05
8.55642e-05
8.08553e-05
7.64054e-05
7.22005e-05
6.8227e-05
6.44721e-05
6.09239e-05
5.75709e-05
5.44025e-05
5.14084e-05
4.85791e-05
4.59055e-05
4.3379e-05
4.09916e-05
3.87356e-05
3.66037e-05
3.45892e-05
3.26855e-05
3.08866e-05
2.91867e-05
2.75803e-05
2.60624e-05
2.4628e-05
2.32725e-05
2.19916e-05
2.07813e-05
1.96375e-05
1.85567e-05
1.75353e-05
1.65702e-05
1.56582e-05
1.47964e-05
1.3982e-05
1.32124e-05
1.24852e-05
1.1798e-05
1.11487e-05
1.0535e-05
9.95517e-06
9.40722e-06
8.88943e-06
8.40014e-06
7.93778e-06
7.50087e-06
7.088e-06
6.69785e-06
6.32918e-06
5.9808e-06
5.65159e-06
5.3405e-06
5.04653e-06
4.76875e-06
4.50625e-06
4.2582e-06
4.0238e-06
3.8023e-06
3.59299e-06
3.39521e-06
3.20831e-06
3.03169e-06
2.8648e-06
2.70709e-06
2.55807e-06
2.41724e-06
2.28417e-06
2.15842e-06
2.03959e-06
1.92731e-06
1.8212e-06
1.72094e-06
1.62619e-06
1.53666e-06
1.45205e-06
1.37211e-06
1.29656e-06
1.22517e-06
1.15772e-06
1.09397e-06
1.03373e-06
9.76815e-07
9.23028e-07
8.72202e-07
8.24174e-07
7.7879e-07
7.35904e-07
6.95379e-07
6.57085e-07
6.20898e-07
5.86705e-07
5.54393e-07
5.2386e-07
4.95009e-07
4.67745e-07
4.41983e-07
4.17639e-07
3.94635e-07
3.72898e-07
3.52357e-07
3.32948e-07
3.14607e-07
2.97276e-07
2.80899e-07
2.65424e-07
2.50801e-07
2.36983e-07
2.23926e-07
2.11588e-07
1.9993e-07
1.88913e-07
1.78504e-07
1.68667e-07
1.59372e-07
1.50589e-07
1.4229e-07
1.34448e-07
1.27037e-07
1.20035e-07
1.13419e-07
1.07167e-07
1.01259e-07
9.56769e-08
9.04022e-08
8.5418e-08
8.07084e-08
7.62582e-08
7.20532e-08
6.80799e-08
6.43255e-08
6.07779e-08
5.74258e-08
5.42585e-08
5.12656e-08
4.84377e-08
4.57656e-08
4.32408e-08
4.08551e-08
3.86009e-08
3.64709e-08
3.44584e-08
3.25568e-08
3.076e-08
2.90623e-08
2.74582e-08
2.59425e-08
2.45104e-08
2.31572e-08
2.18787e-08
2.06707e-08
1.95293e-08
1.84509e-08
1.7432e-08
1.64693e-08
1.55596e-08
1.47002e-08
1.38882e-08
1.31211e-08
1.23962e-08
1.17114e-08
1.10644e-08
1.04531e-08
9.8756e-09
9.32998e-09
8.8145e-09
8.3275e-09
7.86742e-09
7.43277e-09
7.02216e-09
6.63425e-09
6.26781e-09
5.92164e-09
5.59464e-09
5.28575e-09
4.99397e-09
4.71836e-09
4.45804e-09
4.21217e-09
3.97995e-09
3.76062e-09
3.5535e-09
3.3579e-09
3.17319e-09
2.99878e-09
2.83411e-09
2.67864e-09
2.53187e-09
2.39333e-09
2.26257e-09
2.13917e-09
2.02272e-09
1.91286e-09
1.80922e-09
1.71147e-09
1.6193e-09
1.5324e-09
1.4505e-09
1.37333e-09
1.30064e-09
1.23219e-09
1.16777e-09
1.10717e-09
1.05018e-09
9.96624e-10
9.4633e-10
8.99133e-10
8.5488e-10
8.13428e-10
7.74642e-10
7.38397e-10
7.04574e-10
6.73064e-10
6.43766e-10
6.16583e-10
5.91427e-10
5.68217e-10
5.46878e-10
5.27339e-10
5.09539e-10
4.93418e-10
4.78925e-10
4.66011e-10
4.54637e-10
4.44763e-10
4.3636e-10
4.29398e-10
4.23855e-10
4.19714e-10
4.1696e-10
4.15586e-10
)
;
    }
}


// ************************************************************************* //
