/*--------------------------------*- C++ -*----------------------------------*\
  =========                 |
  \\      /  F ield         | OpenFOAM: The Open Source CFD Toolbox
   \\    /   O peration     | Website:  https://openfoam.org
    \\  /    A nd           | Version:  10
     \\/     M anipulation  |
\*---------------------------------------------------------------------------*/
FoamFile
{
    format      ascii;
    class       volScalarField;
    location    "0.58";
    object      N1;
}
// * * * * * * * * * * * * * * * * * * * * * * * * * * * * * * * * * * * * * //

dimensions      [0 0 0 0 0 0 0];

internalField   nonuniform List<scalar> 
8000
(
3.86287e-10
1.15727e-09
1.92403e-09
2.68444e-09
3.43664e-09
4.17901e-09
4.91011e-09
5.62869e-09
6.33364e-09
7.024e-09
7.69894e-09
8.35776e-09
8.99988e-09
9.62483e-09
1.02322e-08
1.08218e-08
1.13934e-08
1.19469e-08
1.24823e-08
1.29995e-08
1.34988e-08
1.39801e-08
1.44438e-08
1.489e-08
1.5319e-08
1.57311e-08
1.61266e-08
1.65058e-08
1.68691e-08
1.72169e-08
1.75494e-08
1.78672e-08
1.81705e-08
1.84598e-08
1.87354e-08
1.89977e-08
1.92471e-08
1.9484e-08
1.97086e-08
1.99215e-08
2.01229e-08
2.03132e-08
2.04927e-08
2.06617e-08
2.08205e-08
2.09695e-08
2.1109e-08
2.12392e-08
2.13604e-08
2.14729e-08
2.15769e-08
2.16728e-08
2.17607e-08
2.18408e-08
2.19135e-08
2.19788e-08
2.20371e-08
2.20885e-08
2.21333e-08
2.21715e-08
2.22034e-08
2.22292e-08
2.22491e-08
2.22631e-08
2.22715e-08
2.22743e-08
2.22718e-08
2.22642e-08
2.22514e-08
2.22337e-08
2.22112e-08
2.2184e-08
2.21522e-08
2.2116e-08
2.20754e-08
2.20306e-08
2.19817e-08
2.19288e-08
2.18719e-08
2.18112e-08
2.17469e-08
2.16789e-08
2.16073e-08
2.15323e-08
2.1454e-08
2.13724e-08
2.12876e-08
2.11997e-08
2.11088e-08
2.1015e-08
2.09183e-08
2.08188e-08
2.07166e-08
2.06118e-08
2.05044e-08
2.03946e-08
2.02823e-08
2.01677e-08
2.00508e-08
1.99317e-08
1.98105e-08
1.96872e-08
1.95619e-08
1.94347e-08
1.93056e-08
1.91747e-08
1.90421e-08
1.89078e-08
1.87718e-08
1.86344e-08
1.84954e-08
1.8355e-08
1.82132e-08
1.80701e-08
1.79258e-08
1.77802e-08
1.76336e-08
1.74858e-08
1.7337e-08
1.71872e-08
1.70366e-08
1.6885e-08
1.67327e-08
1.65796e-08
1.64258e-08
1.62713e-08
1.61163e-08
1.59607e-08
1.58046e-08
1.5648e-08
1.54911e-08
1.53338e-08
1.51762e-08
1.50183e-08
1.48603e-08
1.4702e-08
1.45437e-08
1.43853e-08
1.42268e-08
1.40683e-08
1.39099e-08
1.37516e-08
1.35935e-08
1.34355e-08
1.32777e-08
1.31202e-08
1.2963e-08
1.2806e-08
1.26495e-08
1.24934e-08
1.23377e-08
1.21824e-08
1.20277e-08
1.18735e-08
1.17199e-08
1.15669e-08
1.14145e-08
1.12627e-08
1.11117e-08
1.09614e-08
1.08118e-08
1.0663e-08
1.0515e-08
1.03678e-08
1.02215e-08
1.0076e-08
9.93144e-09
9.78779e-09
9.64509e-09
9.50335e-09
9.36259e-09
9.22283e-09
9.08409e-09
8.94639e-09
8.80974e-09
8.67417e-09
8.53968e-09
8.40631e-09
8.27404e-09
8.14292e-09
8.01294e-09
7.88411e-09
7.75646e-09
7.62999e-09
7.50471e-09
7.38064e-09
7.25778e-09
7.13613e-09
7.01572e-09
6.89655e-09
6.77862e-09
6.66193e-09
6.54651e-09
6.43235e-09
6.31945e-09
6.20782e-09
6.09746e-09
5.98838e-09
5.88059e-09
5.77407e-09
5.66883e-09
5.56488e-09
5.46221e-09
5.36082e-09
5.26072e-09
5.1619e-09
5.06437e-09
4.96811e-09
4.87313e-09
4.77942e-09
4.68699e-09
4.59582e-09
4.50592e-09
4.41727e-09
4.32989e-09
4.24375e-09
4.15886e-09
4.0752e-09
3.99279e-09
3.91159e-09
3.83162e-09
3.75287e-09
3.67531e-09
3.59896e-09
3.5238e-09
3.44983e-09
3.37703e-09
3.30539e-09
3.23492e-09
3.16559e-09
3.09741e-09
3.03035e-09
2.96442e-09
2.8996e-09
2.83588e-09
2.77326e-09
2.71171e-09
2.65124e-09
2.59183e-09
2.53347e-09
2.47615e-09
2.41986e-09
2.36458e-09
2.31032e-09
2.25705e-09
2.20477e-09
2.15345e-09
2.10311e-09
2.05371e-09
2.00525e-09
1.95772e-09
1.91111e-09
1.8654e-09
1.82059e-09
1.77666e-09
1.7336e-09
1.69139e-09
1.65004e-09
1.60951e-09
1.56982e-09
1.53093e-09
1.49285e-09
1.45555e-09
1.41903e-09
1.38328e-09
1.34828e-09
1.31402e-09
1.28049e-09
1.24769e-09
1.21559e-09
1.18419e-09
1.15348e-09
1.12344e-09
1.09407e-09
1.06534e-09
1.03727e-09
1.00982e-09
9.82989e-10
9.56771e-10
9.31152e-10
9.06122e-10
8.81669e-10
8.57785e-10
8.34458e-10
8.11679e-10
7.89437e-10
7.67723e-10
7.46526e-10
7.25837e-10
7.05646e-10
6.85945e-10
6.66722e-10
6.47969e-10
6.29678e-10
6.11838e-10
5.9444e-10
5.77477e-10
5.60939e-10
5.44817e-10
5.29103e-10
5.13788e-10
4.98865e-10
4.84325e-10
4.7016e-10
4.56362e-10
4.42924e-10
4.29837e-10
4.17094e-10
4.04687e-10
3.92609e-10
3.80854e-10
3.69413e-10
3.5828e-10
3.47448e-10
3.36909e-10
3.26659e-10
3.16689e-10
3.06993e-10
2.97566e-10
2.884e-10
2.7949e-10
2.7083e-10
2.62415e-10
2.54237e-10
2.46291e-10
2.38573e-10
2.31076e-10
2.23795e-10
2.16726e-10
2.09862e-10
2.03199e-10
1.96731e-10
1.90455e-10
1.84365e-10
1.78457e-10
1.72726e-10
1.67168e-10
1.61779e-10
1.56553e-10
1.51488e-10
1.46579e-10
1.41821e-10
1.37212e-10
1.32748e-10
1.28424e-10
1.24238e-10
1.20185e-10
1.16263e-10
1.12467e-10
1.08796e-10
1.05245e-10
1.01811e-10
9.84917e-11
9.5284e-11
9.2185e-11
8.9192e-11
8.63022e-11
8.35131e-11
8.0822e-11
7.82266e-11
7.57244e-11
7.33131e-11
7.09905e-11
6.87544e-11
6.66026e-11
6.45332e-11
6.25441e-11
6.06334e-11
5.87993e-11
5.70401e-11
5.53539e-11
5.37392e-11
5.21943e-11
5.07178e-11
4.93081e-11
4.79638e-11
4.66837e-11
4.54664e-11
4.43106e-11
4.32153e-11
4.21792e-11
4.12014e-11
4.02808e-11
3.94166e-11
3.86077e-11
3.78533e-11
3.71528e-11
3.65052e-11
3.59101e-11
3.53667e-11
3.48745e-11
3.4433e-11
3.40417e-11
3.37001e-11
3.3408e-11
3.31651e-11
3.2971e-11
3.28257e-11
3.27288e-11
3.26805e-11
3.9024e-10
1.16947e-09
1.94514e-09
2.71518e-09
3.47776e-09
4.23127e-09
4.97423e-09
5.70535e-09
6.4235e-09
7.12765e-09
7.81693e-09
8.49059e-09
9.148e-09
9.78861e-09
1.0412e-08
1.10179e-08
1.16059e-08
1.2176e-08
1.27281e-08
1.3262e-08
1.3778e-08
1.4276e-08
1.47562e-08
1.52188e-08
1.5664e-08
1.60921e-08
1.65033e-08
1.6898e-08
1.72764e-08
1.76389e-08
1.79859e-08
1.83177e-08
1.86346e-08
1.89371e-08
1.92256e-08
1.95003e-08
1.97617e-08
2.00101e-08
2.02458e-08
2.04694e-08
2.0681e-08
2.08811e-08
2.10699e-08
2.12479e-08
2.14153e-08
2.15724e-08
2.17196e-08
2.18571e-08
2.19852e-08
2.21043e-08
2.22145e-08
2.23161e-08
2.24094e-08
2.24947e-08
2.25721e-08
2.26418e-08
2.27042e-08
2.27594e-08
2.28076e-08
2.2849e-08
2.28838e-08
2.29122e-08
2.29343e-08
2.29504e-08
2.29606e-08
2.2965e-08
2.29638e-08
2.29572e-08
2.29453e-08
2.29282e-08
2.29061e-08
2.28791e-08
2.28473e-08
2.28109e-08
2.27699e-08
2.27245e-08
2.26749e-08
2.2621e-08
2.25631e-08
2.25012e-08
2.24354e-08
2.23658e-08
2.22926e-08
2.22157e-08
2.21354e-08
2.20517e-08
2.19646e-08
2.18744e-08
2.1781e-08
2.16845e-08
2.15851e-08
2.14827e-08
2.13776e-08
2.12697e-08
2.11592e-08
2.10461e-08
2.09304e-08
2.08124e-08
2.0692e-08
2.05693e-08
2.04444e-08
2.03173e-08
2.01882e-08
2.00571e-08
1.9924e-08
1.9789e-08
1.96523e-08
1.95138e-08
1.93736e-08
1.92318e-08
1.90885e-08
1.89437e-08
1.87974e-08
1.86498e-08
1.85009e-08
1.83508e-08
1.81995e-08
1.8047e-08
1.78935e-08
1.7739e-08
1.75836e-08
1.74272e-08
1.727e-08
1.7112e-08
1.69533e-08
1.6794e-08
1.6634e-08
1.64734e-08
1.63123e-08
1.61508e-08
1.59888e-08
1.58265e-08
1.56638e-08
1.55009e-08
1.53378e-08
1.51745e-08
1.50111e-08
1.48476e-08
1.46841e-08
1.45205e-08
1.43571e-08
1.41937e-08
1.40304e-08
1.38674e-08
1.37045e-08
1.3542e-08
1.33797e-08
1.32177e-08
1.30562e-08
1.2895e-08
1.27343e-08
1.25741e-08
1.24144e-08
1.22553e-08
1.20967e-08
1.19388e-08
1.17815e-08
1.16249e-08
1.1469e-08
1.13138e-08
1.11594e-08
1.10058e-08
1.08531e-08
1.07012e-08
1.05501e-08
1.04e-08
1.02508e-08
1.01025e-08
9.95524e-09
9.80894e-09
9.66365e-09
9.5194e-09
9.3762e-09
9.23408e-09
9.09304e-09
8.95311e-09
8.8143e-09
8.67663e-09
8.54012e-09
8.40478e-09
8.27062e-09
8.13765e-09
8.00589e-09
7.87536e-09
7.74605e-09
7.61799e-09
7.49117e-09
7.36562e-09
7.24134e-09
7.11833e-09
6.99661e-09
6.87617e-09
6.75704e-09
6.6392e-09
6.52267e-09
6.40746e-09
6.29355e-09
6.18097e-09
6.0697e-09
5.95976e-09
5.85114e-09
5.74384e-09
5.63787e-09
5.53322e-09
5.4299e-09
5.32791e-09
5.22723e-09
5.12788e-09
5.02984e-09
4.93312e-09
4.83772e-09
4.74362e-09
4.65082e-09
4.55933e-09
4.46913e-09
4.38023e-09
4.2926e-09
4.20626e-09
4.12119e-09
4.03739e-09
3.95485e-09
3.87356e-09
3.79351e-09
3.7147e-09
3.63713e-09
3.56077e-09
3.48563e-09
3.41169e-09
3.33895e-09
3.2674e-09
3.19702e-09
3.12781e-09
3.05976e-09
2.99285e-09
2.92708e-09
2.86244e-09
2.79892e-09
2.7365e-09
2.67518e-09
2.61494e-09
2.55578e-09
2.49768e-09
2.44063e-09
2.38462e-09
2.32964e-09
2.27567e-09
2.22271e-09
2.17074e-09
2.11976e-09
2.06974e-09
2.02068e-09
1.97257e-09
1.92539e-09
1.87914e-09
1.83379e-09
1.78935e-09
1.74579e-09
1.7031e-09
1.66127e-09
1.6203e-09
1.58016e-09
1.54085e-09
1.50236e-09
1.46466e-09
1.42776e-09
1.39164e-09
1.35628e-09
1.32167e-09
1.28781e-09
1.25468e-09
1.22228e-09
1.19057e-09
1.15957e-09
1.12925e-09
1.09961e-09
1.07062e-09
1.04229e-09
1.0146e-09
9.8754e-10
9.61097e-10
9.35262e-10
9.10023e-10
8.85371e-10
8.61294e-10
8.37782e-10
8.14825e-10
7.92412e-10
7.70534e-10
7.4918e-10
7.2834e-10
7.08004e-10
6.88163e-10
6.68808e-10
6.49928e-10
6.31514e-10
6.13557e-10
5.96048e-10
5.78978e-10
5.62338e-10
5.46118e-10
5.30312e-10
5.14909e-10
4.99901e-10
4.8528e-10
4.71039e-10
4.57168e-10
4.4366e-10
4.30507e-10
4.17701e-10
4.05236e-10
3.93102e-10
3.81293e-10
3.69802e-10
3.58621e-10
3.47744e-10
3.37164e-10
3.26873e-10
3.16866e-10
3.07135e-10
2.97675e-10
2.88479e-10
2.7954e-10
2.70854e-10
2.62413e-10
2.54212e-10
2.46245e-10
2.38507e-10
2.30993e-10
2.23695e-10
2.16611e-10
2.09733e-10
2.03058e-10
1.9658e-10
1.90294e-10
1.84196e-10
1.78281e-10
1.72544e-10
1.66981e-10
1.61588e-10
1.5636e-10
1.51292e-10
1.46382e-10
1.41625e-10
1.37017e-10
1.32554e-10
1.28233e-10
1.2405e-10
1.20002e-10
1.16084e-10
1.12295e-10
1.08629e-10
1.05085e-10
1.01659e-10
9.83483e-11
9.51496e-11
9.20604e-11
8.90777e-11
8.61988e-11
8.34212e-11
8.07423e-11
7.81597e-11
7.56708e-11
7.32735e-11
7.09655e-11
6.87445e-11
6.66085e-11
6.45554e-11
6.25833e-11
6.06903e-11
5.88744e-11
5.7134e-11
5.54674e-11
5.38728e-11
5.23488e-11
5.08938e-11
4.95063e-11
4.8185e-11
4.69285e-11
4.57356e-11
4.4605e-11
4.35357e-11
4.25264e-11
4.15762e-11
4.06842e-11
3.98492e-11
3.90707e-11
3.83476e-11
3.76792e-11
3.70649e-11
3.65041e-11
3.59961e-11
3.55403e-11
3.51364e-11
3.47839e-11
3.44824e-11
3.42316e-11
3.40313e-11
3.38813e-11
3.37814e-11
3.37314e-11
3.94112e-10
1.18126e-09
1.96526e-09
2.74415e-09
3.51617e-09
4.27971e-09
5.0333e-09
5.77564e-09
6.50555e-09
7.22198e-09
7.92403e-09
8.61089e-09
9.28187e-09
9.9364e-09
1.0574e-08
1.11943e-08
1.1797e-08
1.23818e-08
1.29487e-08
1.34976e-08
1.40284e-08
1.45413e-08
1.50363e-08
1.55135e-08
1.59731e-08
1.64155e-08
1.68407e-08
1.72491e-08
1.7641e-08
1.80168e-08
1.83766e-08
1.8721e-08
1.90501e-08
1.93645e-08
1.96644e-08
1.99502e-08
2.02223e-08
2.04811e-08
2.07268e-08
2.09599e-08
2.11808e-08
2.13896e-08
2.15869e-08
2.17729e-08
2.1948e-08
2.21124e-08
2.22665e-08
2.24106e-08
2.2545e-08
2.26699e-08
2.27857e-08
2.28925e-08
2.29907e-08
2.30806e-08
2.31622e-08
2.3236e-08
2.3302e-08
2.33606e-08
2.3412e-08
2.34562e-08
2.34936e-08
2.35244e-08
2.35486e-08
2.35666e-08
2.35783e-08
2.35842e-08
2.35842e-08
2.35785e-08
2.35674e-08
2.35509e-08
2.35291e-08
2.35023e-08
2.34706e-08
2.3434e-08
2.33927e-08
2.33468e-08
2.32965e-08
2.32418e-08
2.31829e-08
2.31199e-08
2.30528e-08
2.29819e-08
2.29071e-08
2.28286e-08
2.27465e-08
2.26609e-08
2.25718e-08
2.24794e-08
2.23838e-08
2.22849e-08
2.21831e-08
2.20782e-08
2.19704e-08
2.18598e-08
2.17464e-08
2.16304e-08
2.15118e-08
2.13906e-08
2.12671e-08
2.11412e-08
2.10129e-08
2.08825e-08
2.07499e-08
2.06153e-08
2.04786e-08
2.034e-08
2.01996e-08
2.00573e-08
1.99134e-08
1.97677e-08
1.96205e-08
1.94717e-08
1.93215e-08
1.91698e-08
1.90169e-08
1.88626e-08
1.87071e-08
1.85505e-08
1.83927e-08
1.8234e-08
1.80742e-08
1.79135e-08
1.7752e-08
1.75897e-08
1.74266e-08
1.72628e-08
1.70983e-08
1.69333e-08
1.67678e-08
1.66017e-08
1.64353e-08
1.62684e-08
1.61013e-08
1.59338e-08
1.57662e-08
1.55983e-08
1.54304e-08
1.52623e-08
1.50942e-08
1.49261e-08
1.47581e-08
1.45902e-08
1.44224e-08
1.42548e-08
1.40874e-08
1.39203e-08
1.37535e-08
1.3587e-08
1.3421e-08
1.32553e-08
1.30901e-08
1.29254e-08
1.27613e-08
1.25977e-08
1.24347e-08
1.22724e-08
1.21107e-08
1.19497e-08
1.17895e-08
1.163e-08
1.14713e-08
1.13134e-08
1.11564e-08
1.10002e-08
1.0845e-08
1.06906e-08
1.05373e-08
1.03849e-08
1.02335e-08
1.00831e-08
9.93372e-09
9.78544e-09
9.63824e-09
9.49214e-09
9.34716e-09
9.20332e-09
9.06064e-09
8.91912e-09
8.77879e-09
8.63967e-09
8.50176e-09
8.36508e-09
8.22964e-09
8.09546e-09
7.96254e-09
7.8309e-09
7.70054e-09
7.57148e-09
7.44372e-09
7.31728e-09
7.19215e-09
7.06835e-09
6.94589e-09
6.82476e-09
6.70497e-09
6.58653e-09
6.46945e-09
6.35372e-09
6.23934e-09
6.12632e-09
6.01467e-09
5.90437e-09
5.79544e-09
5.68787e-09
5.58166e-09
5.47682e-09
5.37333e-09
5.2712e-09
5.17042e-09
5.071e-09
4.97293e-09
4.8762e-09
4.78081e-09
4.68676e-09
4.59404e-09
4.50265e-09
4.41258e-09
4.32382e-09
4.23637e-09
4.15023e-09
4.06538e-09
3.98182e-09
3.89954e-09
3.81853e-09
3.73878e-09
3.66029e-09
3.58305e-09
3.50705e-09
3.43227e-09
3.35872e-09
3.28637e-09
3.21523e-09
3.14527e-09
3.0765e-09
3.00889e-09
2.94245e-09
2.87715e-09
2.81299e-09
2.74995e-09
2.68803e-09
2.62721e-09
2.56749e-09
2.50884e-09
2.45127e-09
2.39475e-09
2.33927e-09
2.28483e-09
2.23141e-09
2.179e-09
2.12759e-09
2.07716e-09
2.0277e-09
1.97921e-09
1.93166e-09
1.88505e-09
1.83936e-09
1.79458e-09
1.7507e-09
1.70771e-09
1.66559e-09
1.62433e-09
1.58392e-09
1.54435e-09
1.5056e-09
1.46767e-09
1.43053e-09
1.39419e-09
1.35861e-09
1.32381e-09
1.28975e-09
1.25644e-09
1.22385e-09
1.19198e-09
1.16081e-09
1.13034e-09
1.10055e-09
1.07142e-09
1.04296e-09
1.01514e-09
9.8796e-10
9.61402e-10
9.35458e-10
9.10117e-10
8.85367e-10
8.61198e-10
8.37599e-10
8.1456e-10
7.9207e-10
7.70119e-10
7.48697e-10
7.27793e-10
7.07397e-10
6.87501e-10
6.68093e-10
6.49165e-10
6.30706e-10
6.12708e-10
5.9516e-10
5.78055e-10
5.61382e-10
5.45134e-10
5.293e-10
5.13873e-10
4.98844e-10
4.84204e-10
4.69946e-10
4.5606e-10
4.4254e-10
4.29376e-10
4.16562e-10
4.04089e-10
3.9195e-10
3.80138e-10
3.68645e-10
3.57463e-10
3.46587e-10
3.36009e-10
3.25722e-10
3.1572e-10
3.05995e-10
2.96542e-10
2.87353e-10
2.78424e-10
2.69747e-10
2.61317e-10
2.53128e-10
2.45174e-10
2.37449e-10
2.29948e-10
2.22665e-10
2.15595e-10
2.08734e-10
2.02075e-10
1.95613e-10
1.89345e-10
1.83264e-10
1.77367e-10
1.71648e-10
1.66104e-10
1.6073e-10
1.55521e-10
1.50474e-10
1.45584e-10
1.40847e-10
1.36259e-10
1.31817e-10
1.27518e-10
1.23356e-10
1.19329e-10
1.15433e-10
1.11665e-10
1.08022e-10
1.045e-10
1.01097e-10
9.78091e-11
9.46335e-11
9.15674e-11
8.86081e-11
8.57528e-11
8.29991e-11
8.03442e-11
7.77858e-11
7.53215e-11
7.2949e-11
7.06659e-11
6.84702e-11
6.63598e-11
6.43325e-11
6.23866e-11
6.052e-11
5.87309e-11
5.70177e-11
5.53786e-11
5.3812e-11
5.23163e-11
5.089e-11
4.95318e-11
4.82402e-11
4.70139e-11
4.58518e-11
4.47525e-11
4.3715e-11
4.27383e-11
4.18213e-11
4.0963e-11
4.01627e-11
3.94194e-11
3.87324e-11
3.81009e-11
3.75244e-11
3.70021e-11
3.65337e-11
3.61185e-11
3.57561e-11
3.54462e-11
3.51884e-11
3.49825e-11
3.48282e-11
3.47256e-11
3.46743e-11
3.97738e-10
1.19224e-09
1.98385e-09
2.77073e-09
3.55119e-09
4.32364e-09
5.08663e-09
5.83884e-09
6.57909e-09
7.3063e-09
8.01954e-09
8.71795e-09
9.40083e-09
1.00675e-08
1.07176e-08
1.13505e-08
1.1966e-08
1.25638e-08
1.31437e-08
1.37056e-08
1.42495e-08
1.47753e-08
1.52832e-08
1.57733e-08
1.62456e-08
1.67005e-08
1.7138e-08
1.75585e-08
1.79623e-08
1.83497e-08
1.87209e-08
1.90762e-08
1.94162e-08
1.9741e-08
2.0051e-08
2.03466e-08
2.06282e-08
2.0896e-08
2.11506e-08
2.13921e-08
2.16211e-08
2.18377e-08
2.20424e-08
2.22355e-08
2.24174e-08
2.25883e-08
2.27485e-08
2.28984e-08
2.30383e-08
2.31684e-08
2.32891e-08
2.34006e-08
2.35031e-08
2.3597e-08
2.36825e-08
2.37598e-08
2.38291e-08
2.38907e-08
2.39448e-08
2.39916e-08
2.40313e-08
2.40642e-08
2.40903e-08
2.41099e-08
2.41231e-08
2.41302e-08
2.41313e-08
2.41265e-08
2.41161e-08
2.41001e-08
2.40787e-08
2.4052e-08
2.40203e-08
2.39835e-08
2.3942e-08
2.38957e-08
2.38448e-08
2.37894e-08
2.37296e-08
2.36656e-08
2.35975e-08
2.35253e-08
2.34492e-08
2.33692e-08
2.32856e-08
2.31983e-08
2.31074e-08
2.30132e-08
2.29155e-08
2.28147e-08
2.27106e-08
2.26035e-08
2.24934e-08
2.23804e-08
2.22645e-08
2.21459e-08
2.20247e-08
2.19008e-08
2.17745e-08
2.16457e-08
2.15145e-08
2.13811e-08
2.12455e-08
2.11078e-08
2.0968e-08
2.08262e-08
2.06825e-08
2.05369e-08
2.03896e-08
2.02405e-08
2.00899e-08
1.99376e-08
1.97838e-08
1.96286e-08
1.9472e-08
1.93141e-08
1.9155e-08
1.89947e-08
1.88332e-08
1.86707e-08
1.85071e-08
1.83426e-08
1.81773e-08
1.80111e-08
1.78441e-08
1.76764e-08
1.7508e-08
1.73391e-08
1.71696e-08
1.69996e-08
1.68292e-08
1.66584e-08
1.64872e-08
1.63158e-08
1.61441e-08
1.59723e-08
1.58003e-08
1.56282e-08
1.54561e-08
1.5284e-08
1.5112e-08
1.494e-08
1.47682e-08
1.45966e-08
1.44252e-08
1.42541e-08
1.40833e-08
1.39129e-08
1.37428e-08
1.35732e-08
1.34041e-08
1.32354e-08
1.30673e-08
1.28998e-08
1.27329e-08
1.25667e-08
1.24012e-08
1.22363e-08
1.20722e-08
1.19089e-08
1.17464e-08
1.15848e-08
1.1424e-08
1.12641e-08
1.11051e-08
1.09471e-08
1.079e-08
1.0634e-08
1.04789e-08
1.03249e-08
1.0172e-08
1.00202e-08
9.86943e-09
9.71983e-09
9.57138e-09
9.42409e-09
9.27798e-09
9.13307e-09
8.98938e-09
8.84692e-09
8.7057e-09
8.56574e-09
8.42705e-09
8.28965e-09
8.15355e-09
8.01875e-09
7.88526e-09
7.75311e-09
7.62228e-09
7.49281e-09
7.36468e-09
7.23791e-09
7.11251e-09
6.98847e-09
6.86582e-09
6.74454e-09
6.62464e-09
6.50613e-09
6.38901e-09
6.27329e-09
6.15895e-09
6.04601e-09
5.93447e-09
5.82432e-09
5.71556e-09
5.6082e-09
5.50223e-09
5.39765e-09
5.29446e-09
5.19265e-09
5.09222e-09
4.99317e-09
4.8955e-09
4.79919e-09
4.70425e-09
4.61066e-09
4.51843e-09
4.42755e-09
4.338e-09
4.24979e-09
4.1629e-09
4.07734e-09
3.99308e-09
3.91013e-09
3.82847e-09
3.7481e-09
3.66901e-09
3.59118e-09
3.51461e-09
3.43929e-09
3.36521e-09
3.29236e-09
3.22073e-09
3.1503e-09
3.08107e-09
3.01303e-09
2.94617e-09
2.88047e-09
2.81592e-09
2.75251e-09
2.69024e-09
2.62908e-09
2.56903e-09
2.51007e-09
2.45219e-09
2.39539e-09
2.33964e-09
2.28494e-09
2.23127e-09
2.17863e-09
2.12699e-09
2.07635e-09
2.02669e-09
1.978e-09
1.93027e-09
1.88348e-09
1.83763e-09
1.7927e-09
1.74867e-09
1.70554e-09
1.66329e-09
1.62192e-09
1.5814e-09
1.54172e-09
1.50287e-09
1.46485e-09
1.42763e-09
1.39121e-09
1.35556e-09
1.32069e-09
1.28658e-09
1.25321e-09
1.22057e-09
1.18866e-09
1.15745e-09
1.12695e-09
1.09713e-09
1.06798e-09
1.03949e-09
1.01166e-09
9.84465e-10
9.57899e-10
9.31949e-10
9.06606e-10
8.81857e-10
8.57692e-10
8.341e-10
8.11071e-10
7.88593e-10
7.66657e-10
7.45251e-10
7.24367e-10
7.03993e-10
6.8412e-10
6.64737e-10
6.45836e-10
6.27405e-10
6.09437e-10
5.91921e-10
5.74849e-10
5.58211e-10
5.41997e-10
5.262e-10
5.1081e-10
4.9582e-10
4.81219e-10
4.67e-10
4.53155e-10
4.39676e-10
4.26554e-10
4.13782e-10
4.01352e-10
3.89257e-10
3.77488e-10
3.66038e-10
3.54901e-10
3.44069e-10
3.33536e-10
3.23293e-10
3.13335e-10
3.03655e-10
2.94246e-10
2.85103e-10
2.76218e-10
2.67586e-10
2.592e-10
2.51055e-10
2.43145e-10
2.35464e-10
2.28006e-10
2.20767e-10
2.13741e-10
2.06922e-10
2.00306e-10
1.93887e-10
1.8766e-10
1.81622e-10
1.75766e-10
1.70089e-10
1.64585e-10
1.59252e-10
1.54083e-10
1.49076e-10
1.44225e-10
1.39528e-10
1.3498e-10
1.30576e-10
1.26315e-10
1.22191e-10
1.18202e-10
1.14344e-10
1.10613e-10
1.07007e-10
1.03522e-10
1.00155e-10
9.69035e-11
9.37639e-11
9.07336e-11
8.78099e-11
8.49901e-11
8.22715e-11
7.96518e-11
7.71283e-11
7.46989e-11
7.2361e-11
7.01127e-11
6.79516e-11
6.58757e-11
6.38831e-11
6.19717e-11
6.01398e-11
5.83854e-11
5.6707e-11
5.51028e-11
5.35712e-11
5.21108e-11
5.07199e-11
4.93974e-11
4.81417e-11
4.69516e-11
4.5826e-11
4.47637e-11
4.37635e-11
4.28245e-11
4.19457e-11
4.11261e-11
4.0365e-11
3.96615e-11
3.90149e-11
3.84245e-11
3.78897e-11
3.741e-11
3.69849e-11
3.66138e-11
3.62964e-11
3.60324e-11
3.58216e-11
3.56636e-11
3.55585e-11
3.5506e-11
4.00994e-10
1.20207e-09
2.00044e-09
2.79436e-09
3.58219e-09
4.36238e-09
5.1335e-09
5.89423e-09
6.64338e-09
7.37986e-09
8.1027e-09
8.81103e-09
9.50411e-09
1.01813e-08
1.0842e-08
1.14857e-08
1.21122e-08
1.27211e-08
1.33122e-08
1.38853e-08
1.44403e-08
1.49773e-08
1.54963e-08
1.59974e-08
1.64806e-08
1.69462e-08
1.73944e-08
1.78253e-08
1.82393e-08
1.86366e-08
1.90176e-08
1.93825e-08
1.97317e-08
2.00655e-08
2.03842e-08
2.06883e-08
2.0978e-08
2.12537e-08
2.15159e-08
2.17647e-08
2.20007e-08
2.2224e-08
2.24352e-08
2.26344e-08
2.28221e-08
2.29986e-08
2.31641e-08
2.33191e-08
2.34637e-08
2.35984e-08
2.37233e-08
2.38388e-08
2.39451e-08
2.40425e-08
2.41313e-08
2.42116e-08
2.42838e-08
2.4348e-08
2.44045e-08
2.44535e-08
2.44952e-08
2.45299e-08
2.45576e-08
2.45787e-08
2.45932e-08
2.46013e-08
2.46033e-08
2.45993e-08
2.45895e-08
2.45739e-08
2.45529e-08
2.45264e-08
2.44947e-08
2.44578e-08
2.4416e-08
2.43693e-08
2.43179e-08
2.42619e-08
2.42015e-08
2.41366e-08
2.40675e-08
2.39943e-08
2.3917e-08
2.38358e-08
2.37508e-08
2.36621e-08
2.35697e-08
2.34738e-08
2.33745e-08
2.32719e-08
2.3166e-08
2.30569e-08
2.29448e-08
2.28297e-08
2.27117e-08
2.25909e-08
2.24673e-08
2.23411e-08
2.22124e-08
2.20812e-08
2.19475e-08
2.18115e-08
2.16733e-08
2.15329e-08
2.13903e-08
2.12458e-08
2.10993e-08
2.09509e-08
2.08006e-08
2.06487e-08
2.0495e-08
2.03397e-08
2.01829e-08
2.00246e-08
1.9865e-08
1.97039e-08
1.95416e-08
1.93781e-08
1.92134e-08
1.90476e-08
1.88808e-08
1.8713e-08
1.85443e-08
1.83748e-08
1.82045e-08
1.80334e-08
1.78617e-08
1.76894e-08
1.75165e-08
1.73431e-08
1.71692e-08
1.6995e-08
1.68204e-08
1.66455e-08
1.64704e-08
1.62951e-08
1.61196e-08
1.59441e-08
1.57685e-08
1.55929e-08
1.54174e-08
1.5242e-08
1.50667e-08
1.48917e-08
1.47168e-08
1.45423e-08
1.4368e-08
1.41941e-08
1.40206e-08
1.38476e-08
1.36751e-08
1.3503e-08
1.33315e-08
1.31606e-08
1.29904e-08
1.28208e-08
1.26519e-08
1.24837e-08
1.23163e-08
1.21497e-08
1.19839e-08
1.1819e-08
1.1655e-08
1.14918e-08
1.13296e-08
1.11684e-08
1.10082e-08
1.0849e-08
1.06908e-08
1.05337e-08
1.03777e-08
1.02228e-08
1.0069e-08
9.91638e-09
9.76492e-09
9.61465e-09
9.46559e-09
9.31775e-09
9.17116e-09
9.02581e-09
8.88174e-09
8.73895e-09
8.59746e-09
8.45728e-09
8.31842e-09
8.1809e-09
8.04472e-09
7.90989e-09
7.77642e-09
7.64432e-09
7.51361e-09
7.38428e-09
7.25634e-09
7.12979e-09
7.00466e-09
6.88092e-09
6.7586e-09
6.6377e-09
6.51821e-09
6.40014e-09
6.2835e-09
6.16827e-09
6.05447e-09
5.9421e-09
5.83114e-09
5.72161e-09
5.6135e-09
5.5068e-09
5.40152e-09
5.29765e-09
5.1952e-09
5.09414e-09
4.99449e-09
4.89624e-09
4.79938e-09
4.7039e-09
4.6098e-09
4.51708e-09
4.42572e-09
4.33573e-09
4.24709e-09
4.15979e-09
4.07383e-09
3.9892e-09
3.90589e-09
3.82389e-09
3.7432e-09
3.6638e-09
3.58568e-09
3.50884e-09
3.43326e-09
3.35894e-09
3.28586e-09
3.21401e-09
3.14338e-09
3.07396e-09
3.00574e-09
2.93872e-09
2.87286e-09
2.80817e-09
2.74464e-09
2.68224e-09
2.62098e-09
2.56083e-09
2.50178e-09
2.44383e-09
2.38695e-09
2.33115e-09
2.27639e-09
2.22268e-09
2.17e-09
2.11833e-09
2.06767e-09
2.018e-09
1.9693e-09
1.92157e-09
1.87479e-09
1.82895e-09
1.78403e-09
1.74003e-09
1.69693e-09
1.65471e-09
1.61337e-09
1.5729e-09
1.53326e-09
1.49447e-09
1.4565e-09
1.41934e-09
1.38298e-09
1.3474e-09
1.31259e-09
1.27855e-09
1.24526e-09
1.2127e-09
1.18086e-09
1.14974e-09
1.11931e-09
1.08957e-09
1.06051e-09
1.03212e-09
1.00437e-09
9.77269e-10
9.50795e-10
9.24939e-10
8.99689e-10
8.75036e-10
8.50967e-10
8.27472e-10
8.0454e-10
7.8216e-10
7.60322e-10
7.39015e-10
7.18229e-10
6.97954e-10
6.78179e-10
6.58895e-10
6.40093e-10
6.21761e-10
6.03891e-10
5.86473e-10
5.69498e-10
5.52957e-10
5.36841e-10
5.2114e-10
5.05846e-10
4.9095e-10
4.76444e-10
4.62319e-10
4.48567e-10
4.3518e-10
4.2215e-10
4.09468e-10
3.97128e-10
3.85121e-10
3.7344e-10
3.62078e-10
3.51027e-10
3.4028e-10
3.29831e-10
3.19671e-10
3.09795e-10
3.00196e-10
2.90868e-10
2.81803e-10
2.72997e-10
2.64441e-10
2.56132e-10
2.48061e-10
2.40225e-10
2.32617e-10
2.25231e-10
2.18063e-10
2.11106e-10
2.04356e-10
1.97807e-10
1.91455e-10
1.85294e-10
1.7932e-10
1.73528e-10
1.67914e-10
1.62472e-10
1.57199e-10
1.5209e-10
1.47142e-10
1.42349e-10
1.37709e-10
1.33217e-10
1.28869e-10
1.24662e-10
1.20592e-10
1.16656e-10
1.1285e-10
1.09171e-10
1.05616e-10
1.02181e-10
9.8863e-11
9.56599e-11
9.25683e-11
8.95855e-11
8.67086e-11
8.39351e-11
8.12624e-11
7.8688e-11
7.62093e-11
7.38243e-11
7.15304e-11
6.93256e-11
6.72078e-11
6.51749e-11
6.32249e-11
6.13559e-11
5.95661e-11
5.78537e-11
5.6217e-11
5.46545e-11
5.31645e-11
5.17455e-11
5.03962e-11
4.91152e-11
4.79011e-11
4.67527e-11
4.56688e-11
4.46484e-11
4.36904e-11
4.27938e-11
4.19577e-11
4.11812e-11
4.04635e-11
3.98038e-11
3.92015e-11
3.86559e-11
3.81665e-11
3.77327e-11
3.73541e-11
3.70303e-11
3.6761e-11
3.65459e-11
3.63847e-11
3.62775e-11
3.62239e-11
4.03802e-10
1.21054e-09
2.0147e-09
2.81462e-09
3.60869e-09
4.39541e-09
5.17336e-09
5.94123e-09
6.69783e-09
7.44205e-09
8.1729e-09
8.88951e-09
9.59109e-09
1.0277e-08
1.09466e-08
1.15994e-08
1.2235e-08
1.28531e-08
1.34535e-08
1.40359e-08
1.46003e-08
1.51466e-08
1.56749e-08
1.61851e-08
1.66775e-08
1.71521e-08
1.76091e-08
1.80487e-08
1.84713e-08
1.88769e-08
1.92661e-08
1.96389e-08
1.99958e-08
2.03372e-08
2.06632e-08
2.09743e-08
2.12709e-08
2.15533e-08
2.18217e-08
2.20767e-08
2.23185e-08
2.25475e-08
2.27641e-08
2.29685e-08
2.31611e-08
2.33422e-08
2.35122e-08
2.36714e-08
2.38201e-08
2.39585e-08
2.4087e-08
2.42059e-08
2.43153e-08
2.44157e-08
2.45072e-08
2.45901e-08
2.46647e-08
2.47311e-08
2.47896e-08
2.48405e-08
2.48839e-08
2.49201e-08
2.49492e-08
2.49714e-08
2.4987e-08
2.49961e-08
2.49989e-08
2.49955e-08
2.49862e-08
2.49711e-08
2.49502e-08
2.49239e-08
2.48922e-08
2.48553e-08
2.48133e-08
2.47663e-08
2.47145e-08
2.4658e-08
2.45969e-08
2.45314e-08
2.44615e-08
2.43874e-08
2.43091e-08
2.42269e-08
2.41408e-08
2.40508e-08
2.39572e-08
2.386e-08
2.37592e-08
2.36551e-08
2.35476e-08
2.34369e-08
2.33231e-08
2.32063e-08
2.30865e-08
2.29638e-08
2.28384e-08
2.27102e-08
2.25795e-08
2.24462e-08
2.23104e-08
2.21723e-08
2.20319e-08
2.18892e-08
2.17444e-08
2.15975e-08
2.14486e-08
2.12978e-08
2.11452e-08
2.09908e-08
2.08346e-08
2.06768e-08
2.05175e-08
2.03566e-08
2.01943e-08
2.00306e-08
1.98657e-08
1.96994e-08
1.95321e-08
1.93636e-08
1.9194e-08
1.90235e-08
1.8852e-08
1.86797e-08
1.85066e-08
1.83327e-08
1.81582e-08
1.7983e-08
1.78072e-08
1.7631e-08
1.74543e-08
1.72771e-08
1.70996e-08
1.69219e-08
1.67439e-08
1.65656e-08
1.63873e-08
1.62088e-08
1.60304e-08
1.58519e-08
1.56735e-08
1.54951e-08
1.5317e-08
1.5139e-08
1.49613e-08
1.47838e-08
1.46067e-08
1.44299e-08
1.42535e-08
1.40776e-08
1.39022e-08
1.37273e-08
1.3553e-08
1.33793e-08
1.32062e-08
1.30338e-08
1.28621e-08
1.26911e-08
1.25209e-08
1.23516e-08
1.2183e-08
1.20154e-08
1.18486e-08
1.16828e-08
1.15179e-08
1.1354e-08
1.11911e-08
1.10292e-08
1.08684e-08
1.07087e-08
1.05501e-08
1.03926e-08
1.02363e-08
1.00811e-08
9.92716e-09
9.7744e-09
9.62286e-09
9.47257e-09
9.32353e-09
9.17578e-09
9.02931e-09
8.88415e-09
8.74031e-09
8.5978e-09
8.45664e-09
8.31682e-09
8.17838e-09
8.04131e-09
7.90563e-09
7.77134e-09
7.63845e-09
7.50697e-09
7.3769e-09
7.24826e-09
7.12104e-09
6.99525e-09
6.8709e-09
6.74799e-09
6.62651e-09
6.50649e-09
6.3879e-09
6.27076e-09
6.15507e-09
6.04083e-09
5.92803e-09
5.81668e-09
5.70677e-09
5.5983e-09
5.49127e-09
5.38568e-09
5.28152e-09
5.17879e-09
5.07748e-09
4.97759e-09
4.87912e-09
4.78206e-09
4.6864e-09
4.59213e-09
4.49926e-09
4.40777e-09
4.31765e-09
4.22891e-09
4.14152e-09
4.05548e-09
3.97079e-09
3.88743e-09
3.8054e-09
3.72468e-09
3.64526e-09
3.56714e-09
3.49031e-09
3.41475e-09
3.34045e-09
3.26741e-09
3.19561e-09
3.12504e-09
3.05569e-09
2.98754e-09
2.9206e-09
2.85483e-09
2.79024e-09
2.72681e-09
2.66453e-09
2.60338e-09
2.54335e-09
2.48443e-09
2.42661e-09
2.36988e-09
2.31422e-09
2.25961e-09
2.20606e-09
2.15353e-09
2.10202e-09
2.05153e-09
2.00202e-09
1.9535e-09
1.90594e-09
1.85934e-09
1.81368e-09
1.76894e-09
1.72512e-09
1.68221e-09
1.64018e-09
1.59903e-09
1.55874e-09
1.5193e-09
1.4807e-09
1.44292e-09
1.40595e-09
1.36979e-09
1.3344e-09
1.29979e-09
1.26595e-09
1.23285e-09
1.20048e-09
1.16884e-09
1.13791e-09
1.10768e-09
1.07813e-09
1.04927e-09
1.02106e-09
9.93506e-10
9.66592e-10
9.40307e-10
9.14638e-10
8.89575e-10
8.65106e-10
8.4122e-10
8.17907e-10
7.95155e-10
7.72954e-10
7.51293e-10
7.30162e-10
7.0955e-10
6.89447e-10
6.69843e-10
6.50728e-10
6.32092e-10
6.13925e-10
5.96218e-10
5.78961e-10
5.62145e-10
5.4576e-10
5.29799e-10
5.1425e-10
4.99107e-10
4.8436e-10
4.7e-10
4.5602e-10
4.4241e-10
4.29164e-10
4.16272e-10
4.03726e-10
3.9152e-10
3.79645e-10
3.68094e-10
3.56859e-10
3.45934e-10
3.35311e-10
3.24983e-10
3.14943e-10
3.05184e-10
2.95701e-10
2.86486e-10
2.77532e-10
2.68835e-10
2.60387e-10
2.52183e-10
2.44216e-10
2.36482e-10
2.28974e-10
2.21686e-10
2.14614e-10
2.07751e-10
2.01094e-10
1.94636e-10
1.88373e-10
1.82299e-10
1.76411e-10
1.70703e-10
1.65171e-10
1.59811e-10
1.54617e-10
1.49586e-10
1.44714e-10
1.39997e-10
1.3543e-10
1.3101e-10
1.26733e-10
1.22596e-10
1.18594e-10
1.14725e-10
1.10985e-10
1.0737e-10
1.03878e-10
1.00506e-10
9.72493e-11
9.41063e-11
9.10739e-11
8.81493e-11
8.53297e-11
8.26126e-11
7.99953e-11
7.74755e-11
7.50508e-11
7.27189e-11
7.04775e-11
6.83244e-11
6.62577e-11
6.42753e-11
6.23753e-11
6.05557e-11
5.88149e-11
5.71511e-11
5.55626e-11
5.40478e-11
5.26053e-11
5.12335e-11
4.99312e-11
4.86969e-11
4.75295e-11
4.64276e-11
4.53903e-11
4.44163e-11
4.35048e-11
4.26548e-11
4.18654e-11
4.11358e-11
4.04651e-11
3.98528e-11
3.92982e-11
3.88006e-11
3.83596e-11
3.79747e-11
3.76456e-11
3.73718e-11
3.7153e-11
3.69892e-11
3.68802e-11
3.68257e-11
4.06106e-10
1.21748e-09
2.02638e-09
2.83117e-09
3.63031e-09
4.4223e-09
5.20576e-09
5.97938e-09
6.74195e-09
7.49238e-09
8.22966e-09
8.95289e-09
9.66128e-09
1.03541e-08
1.10308e-08
1.16909e-08
1.23338e-08
1.29593e-08
1.35671e-08
1.41571e-08
1.47289e-08
1.52827e-08
1.58184e-08
1.6336e-08
1.68356e-08
1.73174e-08
1.77815e-08
1.82282e-08
1.86575e-08
1.90699e-08
1.94656e-08
1.98448e-08
2.0208e-08
2.05554e-08
2.08873e-08
2.12041e-08
2.15061e-08
2.17938e-08
2.20674e-08
2.23273e-08
2.25738e-08
2.28073e-08
2.30282e-08
2.32368e-08
2.34333e-08
2.36183e-08
2.37919e-08
2.39544e-08
2.41063e-08
2.42478e-08
2.43792e-08
2.45007e-08
2.46128e-08
2.47155e-08
2.48092e-08
2.48942e-08
2.49707e-08
2.50389e-08
2.50991e-08
2.51515e-08
2.51962e-08
2.52336e-08
2.52638e-08
2.52871e-08
2.53035e-08
2.53134e-08
2.53168e-08
2.5314e-08
2.5305e-08
2.52902e-08