/*--------------------------------*- C++ -*----------------------------------*\
  =========                 |
  \\      /  F ield         | OpenFOAM: The Open Source CFD Toolbox
   \\    /   O peration     | Website:  https://openfoam.org
    \\  /    A nd           | Version:  10
     \\/     M anipulation  |
\*---------------------------------------------------------------------------*/
FoamFile
{
    format      ascii;
    class       volScalarField;
    location    "0.44";
    object      Exp1;
}
// * * * * * * * * * * * * * * * * * * * * * * * * * * * * * * * * * * * * * //

dimensions      [0 0 0 0 0 0 0];

internalField   uniform 0;

boundaryField
{
    frontAndBack
    {
        type            empty;
    }
    inlet
    {
        type            calculated;
        value           uniform 0;
    }
    outlet
    {
        type            calculated;
        value           uniform 0;
    }
    substrate
    {
        type            calculated;
        value           nonuniform List<scalar> 
400
(
6.09395e-09
1.82489e-08
3.0327e-08
4.22938e-08
5.41195e-08
6.5778e-08
7.72459e-08
8.8503e-08
9.95313e-08
1.10315e-07
1.20841e-07
1.31098e-07
1.41077e-07
1.5077e-07
1.60171e-07
1.69275e-07
1.78081e-07
1.86585e-07
1.94788e-07
2.02691e-07
2.10294e-07
2.17601e-07
2.24613e-07
2.31336e-07
2.37772e-07
2.43927e-07
2.49806e-07
2.55414e-07
2.60757e-07
2.65841e-07
2.70671e-07
2.75253e-07
2.79595e-07
2.83701e-07
2.87578e-07
2.91232e-07
2.94669e-07
2.97895e-07
3.00916e-07
3.03738e-07
3.06366e-07
3.08806e-07
3.11063e-07
3.13143e-07
3.1505e-07
3.16791e-07
3.18368e-07
3.19789e-07
3.21056e-07
3.22174e-07
3.23148e-07
3.23982e-07
3.2468e-07
3.25247e-07
3.25685e-07
3.25998e-07
3.26191e-07
3.26266e-07
3.26227e-07
3.26078e-07
3.25821e-07
3.2546e-07
3.24997e-07
3.24437e-07
3.2378e-07
3.23032e-07
3.22193e-07
3.21267e-07
3.20256e-07
3.19163e-07
3.17991e-07
3.16741e-07
3.15417e-07
3.1402e-07
3.12552e-07
3.11017e-07
3.09416e-07
3.07751e-07
3.06024e-07
3.04238e-07
3.02394e-07
3.00495e-07
2.98542e-07
2.96537e-07
2.94483e-07
2.92381e-07
2.90232e-07
2.8804e-07
2.85805e-07
2.83529e-07
2.81214e-07
2.78862e-07
2.76475e-07
2.74053e-07
2.71599e-07
2.69115e-07
2.66601e-07
2.6406e-07
2.61493e-07
2.58901e-07
2.56287e-07
2.53651e-07
2.50994e-07
2.4832e-07
2.45628e-07
2.4292e-07
2.40198e-07
2.37463e-07
2.34716e-07
2.31958e-07
2.29192e-07
2.26417e-07
2.23636e-07
2.2085e-07
2.18059e-07
2.15265e-07
2.12469e-07
2.09673e-07
2.06876e-07
2.04081e-07
2.01289e-07
1.985e-07
1.95715e-07
1.92936e-07
1.90164e-07
1.87399e-07
1.84642e-07
1.81894e-07
1.79157e-07
1.7643e-07
1.73715e-07
1.71013e-07
1.68324e-07
1.6565e-07
1.6299e-07
1.60345e-07
1.57717e-07
1.55106e-07
1.52513e-07
1.49937e-07
1.4738e-07
1.44843e-07
1.42326e-07
1.39829e-07
1.37353e-07
1.34898e-07
1.32465e-07
1.30055e-07
1.27667e-07
1.25302e-07
1.22961e-07
1.20644e-07
1.18351e-07
1.16083e-07
1.13839e-07
1.11621e-07
1.09427e-07
1.0726e-07
1.05118e-07
1.03002e-07
1.00913e-07
9.88493e-08
9.68126e-08
9.48024e-08
9.2819e-08
9.08624e-08
8.89328e-08
8.70301e-08
8.51544e-08
8.33057e-08
8.14842e-08
7.96897e-08
7.79222e-08
7.61818e-08
7.44684e-08
7.27819e-08
7.11223e-08
6.94895e-08
6.78834e-08
6.63039e-08
6.47508e-08
6.32242e-08
6.17238e-08
6.02495e-08
5.88012e-08
5.73786e-08
5.59817e-08
5.46102e-08
5.32639e-08
5.19427e-08
5.06463e-08
4.93746e-08
4.81272e-08
4.69041e-08
4.57049e-08
4.45295e-08
4.33775e-08
4.22488e-08
4.11431e-08
4.00601e-08
3.89996e-08
3.79613e-08
3.69449e-08
3.59502e-08
3.49769e-08
3.40247e-08
3.30934e-08
3.21825e-08
3.1292e-08
3.04214e-08
2.95706e-08
2.87391e-08
2.79268e-08
2.71333e-08
2.63583e-08
2.56015e-08
2.48627e-08
2.41416e-08
2.34378e-08
2.27511e-08
2.20811e-08
2.14277e-08
2.07904e-08
2.01691e-08
1.95633e-08
1.8973e-08
1.83976e-08
1.7837e-08
1.7291e-08
1.67591e-08
1.62411e-08
1.57368e-08
1.52459e-08
1.47681e-08
1.43032e-08
1.38508e-08
1.34107e-08
1.29827e-08
1.25665e-08
1.21618e-08
1.17684e-08
1.1386e-08
1.10145e-08
1.06535e-08
1.03028e-08
9.96219e-09
9.63142e-09
9.31027e-09
8.9985e-09
8.6959e-09
8.40225e-09
8.11732e-09
7.84091e-09
7.57281e-09
7.31281e-09
7.0607e-09
6.8163e-09
6.5794e-09
6.34981e-09
6.12735e-09
5.91182e-09
5.70305e-09
5.50086e-09
5.30507e-09
5.11551e-09
4.93202e-09
4.75442e-09
4.58256e-09
4.41628e-09
4.25543e-09
4.09984e-09
3.94938e-09
3.8039e-09
3.66325e-09
3.5273e-09
3.39592e-09
3.26896e-09
3.1463e-09
3.02782e-09
2.91338e-09
2.80288e-09
2.69618e-09
2.59318e-09
2.49376e-09
2.39782e-09
2.30525e-09
2.21593e-09
2.12978e-09
2.04669e-09
1.96657e-09
1.88932e-09
1.81485e-09
1.74308e-09
1.67391e-09
1.60726e-09
1.54305e-09
1.4812e-09
1.42163e-09
1.36427e-09
1.30904e-09
1.25588e-09
1.20471e-09
1.15546e-09
1.10808e-09
1.06249e-09
1.01864e-09
9.76468e-10
9.35913e-10
8.96919e-10
8.59433e-10
8.23403e-10
7.88775e-10
7.55502e-10
7.23535e-10
6.92827e-10
6.63333e-10
6.3501e-10
6.07815e-10
5.81706e-10
5.56645e-10
5.32594e-10
5.09513e-10
4.87369e-10
4.66126e-10
4.4575e-10
4.2621e-10
4.07473e-10
3.89509e-10
3.7229e-10
3.55786e-10
3.3997e-10
3.24817e-10
3.103e-10
2.96394e-10
2.83077e-10
2.70325e-10
2.58117e-10
2.4643e-10
2.35244e-10
2.2454e-10
2.14299e-10
2.04502e-10
1.95131e-10
1.86169e-10
1.776e-10
1.69409e-10
1.61579e-10
1.54096e-10
1.46947e-10
1.40117e-10
1.33594e-10
1.27365e-10
1.21419e-10
1.15742e-10
1.10325e-10
1.05157e-10
1.00227e-10
9.5526e-11
9.10442e-11
8.67725e-11
8.27024e-11
7.88256e-11
7.5134e-11
7.16201e-11
6.82766e-11
6.50965e-11
6.2073e-11
5.92e-11
5.64712e-11
5.38808e-11
5.14234e-11
4.90935e-11
4.68862e-11
4.47967e-11
4.28204e-11
4.0953e-11
3.91903e-11
3.75285e-11
3.59639e-11
3.4493e-11
3.31124e-11
3.18192e-11
3.06103e-11
2.94831e-11
2.8435e-11
2.74636e-11
2.65667e-11
2.57422e-11
2.49882e-11
2.43031e-11
2.36852e-11
2.31331e-11
2.26455e-11
2.22213e-11
2.18595e-11
2.15593e-11
2.132e-11
2.1141e-11
2.10219e-11
2.09624e-11
)
;
    }
    Wall
    {
        type            calculated;
        value           nonuniform List<scalar> 
400
(
6.09397e-09
1.82491e-08
3.03273e-08
4.22943e-08
5.41202e-08
6.57786e-08
7.72466e-08
8.85036e-08
9.95317e-08
1.10315e-07
1.20841e-07
1.31098e-07
1.41077e-07
1.50769e-07
1.6017e-07
1.69274e-07
1.78079e-07
1.86584e-07
1.94787e-07
2.02689e-07
2.10292e-07
2.17598e-07
2.2461e-07
2.31333e-07
2.37769e-07
2.43924e-07
2.49802e-07
2.5541e-07
2.60753e-07
2.65836e-07
2.70666e-07
2.75248e-07
2.7959e-07
2.83695e-07
2.87572e-07
2.91226e-07
2.94663e-07
2.97889e-07
3.0091e-07
3.03731e-07
3.06359e-07
3.08799e-07
3.11056e-07
3.13136e-07
3.15043e-07
3.16783e-07
3.18361e-07
3.19781e-07
3.21048e-07
3.22166e-07
3.2314e-07
3.23975e-07
3.24673e-07
3.25239e-07
3.25676e-07
3.2599e-07
3.26182e-07
3.26257e-07
3.26219e-07
3.26069e-07
3.25812e-07
3.25451e-07
3.24989e-07
3.24428e-07
3.23772e-07
3.23023e-07
3.22184e-07
3.21258e-07
3.20248e-07
3.19155e-07
3.17982e-07
3.16733e-07
3.15408e-07
3.14011e-07
3.12544e-07
3.11008e-07
3.09407e-07
3.07742e-07
3.06015e-07
3.04229e-07
3.02385e-07
3.00486e-07
2.98533e-07
2.96529e-07
2.94475e-07
2.92372e-07
2.90224e-07
2.88032e-07
2.85797e-07
2.83521e-07
2.81206e-07
2.78854e-07
2.76467e-07
2.74045e-07
2.71591e-07
2.69107e-07
2.66593e-07
2.64052e-07
2.61485e-07
2.58894e-07
2.56279e-07
2.53643e-07
2.50987e-07
2.48312e-07
2.45621e-07
2.42913e-07
2.40191e-07
2.37456e-07
2.34709e-07
2.31951e-07
2.29185e-07
2.26411e-07
2.2363e-07
2.20843e-07
2.18052e-07
2.15259e-07
2.12463e-07
2.09666e-07
2.0687e-07
2.04075e-07
2.01283e-07
1.98494e-07
1.9571e-07
1.92931e-07
1.90158e-07
1.87393e-07
1.84636e-07
1.81889e-07
1.79151e-07
1.76425e-07
1.7371e-07
1.71008e-07
1.68319e-07
1.65645e-07
1.62985e-07
1.60341e-07
1.57713e-07
1.55101e-07
1.52508e-07
1.49933e-07
1.47376e-07
1.44839e-07
1.42321e-07
1.39824e-07
1.37348e-07
1.34894e-07
1.32461e-07
1.30051e-07
1.27663e-07
1.25299e-07
1.22958e-07
1.20641e-07
1.18348e-07
1.16079e-07
1.13836e-07
1.11617e-07
1.09424e-07
1.07257e-07
1.05115e-07
1.02999e-07
1.0091e-07
9.88463e-08
9.68096e-08
9.47995e-08
9.28162e-08
9.08597e-08
8.893e-08
8.70274e-08
8.51518e-08
8.33032e-08
8.14817e-08
7.96872e-08
7.79198e-08
7.61795e-08
7.44661e-08
7.27797e-08
7.11201e-08
6.94873e-08
6.78813e-08
6.63018e-08
6.47489e-08
6.32223e-08
6.1722e-08
6.02477e-08
5.87994e-08
5.73769e-08
5.598e-08
5.46085e-08
5.32623e-08
5.19411e-08
5.06448e-08
4.93731e-08
4.81258e-08
4.69027e-08
4.57036e-08
4.45282e-08
4.33762e-08
4.22476e-08
4.11419e-08
4.00589e-08
3.89984e-08
3.79602e-08
3.69438e-08
3.59492e-08
3.49759e-08
3.40237e-08
3.30924e-08
3.21816e-08
3.12911e-08
3.04206e-08
2.95697e-08
2.87383e-08
2.7926e-08
2.71325e-08
2.63575e-08
2.56008e-08
2.4862e-08
2.41409e-08
2.34371e-08
2.27504e-08
2.20805e-08
2.1427e-08
2.07898e-08
2.01685e-08
1.95628e-08
1.89724e-08
1.83971e-08
1.78365e-08
1.72905e-08
1.67586e-08
1.62407e-08
1.57364e-08
1.52455e-08
1.47677e-08
1.43028e-08
1.38504e-08
1.34103e-08
1.29823e-08
1.25661e-08
1.21615e-08
1.17681e-08
1.13857e-08
1.10142e-08
1.06532e-08
1.03025e-08
9.96192e-09
9.63116e-09
9.31002e-09
8.99826e-09
8.69567e-09
8.40202e-09
8.1171e-09
7.8407e-09
7.57261e-09
7.31261e-09
7.06052e-09
6.81612e-09
6.57923e-09
6.34965e-09
6.12719e-09
5.91167e-09
5.70291e-09
5.50072e-09
5.30494e-09
5.11538e-09
4.93189e-09
4.7543e-09
4.58245e-09
4.41617e-09
4.25532e-09
4.09974e-09
3.94928e-09
3.8038e-09
3.66316e-09
3.52722e-09
3.39583e-09
3.26888e-09
3.14622e-09
3.02774e-09
2.91331e-09
2.80281e-09
2.69612e-09
2.59312e-09
2.4937e-09
2.39776e-09
2.30519e-09
2.21588e-09
2.12973e-09
2.04664e-09
1.96652e-09
1.88928e-09
1.81481e-09
1.74304e-09
1.67387e-09
1.60722e-09
1.54301e-09
1.48116e-09
1.4216e-09
1.36424e-09
1.30901e-09
1.25585e-09
1.20468e-09
1.15544e-09
1.10806e-09
1.06247e-09
1.01862e-09
9.76447e-10
9.35893e-10
8.969e-10
8.59415e-10
8.23385e-10
7.88759e-10
7.55487e-10
7.2352e-10
6.92813e-10
6.6332e-10
6.34997e-10
6.07802e-10
5.81695e-10
5.56634e-10
5.32583e-10
5.09503e-10
4.8736e-10
4.66117e-10
4.45742e-10
4.26202e-10
4.07465e-10
3.89502e-10
3.72283e-10
3.55779e-10
3.39964e-10
3.24811e-10
3.10294e-10
2.96389e-10
2.83072e-10
2.70321e-10
2.58112e-10
2.46426e-10
2.3524e-10
2.24537e-10
2.14295e-10
2.04498e-10
1.95127e-10
1.86166e-10
1.77597e-10
1.69406e-10
1.61576e-10
1.54094e-10
1.46945e-10
1.40115e-10
1.33592e-10
1.27363e-10
1.21417e-10
1.1574e-10
1.10324e-10
1.05155e-10
1.00226e-10
9.55247e-11
9.10429e-11
8.67713e-11
8.27013e-11
7.88245e-11
7.5133e-11
7.16192e-11
6.82757e-11
6.50956e-11
6.20723e-11
5.91993e-11
5.64705e-11
5.38802e-11
5.14228e-11
4.9093e-11
4.68857e-11
4.47962e-11
4.28199e-11
4.09525e-11
3.91899e-11
3.75281e-11
3.59635e-11
3.44926e-11
3.31121e-11
3.18189e-11
3.06101e-11
2.94829e-11
2.84348e-11
2.74634e-11
2.65665e-11
2.5742e-11
2.4988e-11
2.43029e-11
2.3685e-11
2.31329e-11
2.26454e-11
2.22212e-11
2.18594e-11
2.15592e-11
2.13199e-11
2.11409e-11
2.10218e-11
2.09623e-11
)
;
    }
}


// ************************************************************************* //
