/*--------------------------------*- C++ -*----------------------------------*\
  =========                 |
  \\      /  F ield         | OpenFOAM: The Open Source CFD Toolbox
   \\    /   O peration     | Website:  https://openfoam.org
    \\  /    A nd           | Version:  10
     \\/     M anipulation  |
\*---------------------------------------------------------------------------*/
FoamFile
{
    format      ascii;
    class       volScalarField;
    location    "0.74";
    object      Exp1;
}
// * * * * * * * * * * * * * * * * * * * * * * * * * * * * * * * * * * * * * //

dimensions      [0 0 0 0 0 0 0];

internalField   uniform 0;

boundaryField
{
    frontAndBack
    {
        type            empty;
    }
    inlet
    {
        type            calculated;
        value           uniform 0;
    }
    outlet
    {
        type            calculated;
        value           uniform 0;
    }
    substrate
    {
        type            calculated;
        value           nonuniform List<scalar> 
400
(
2.36278e-13
7.07591e-13
1.17601e-12
1.64027e-12
2.09926e-12
2.55202e-12
2.99771e-12
3.43559e-12
3.86501e-12
4.28542e-12
4.69636e-12
5.09741e-12
5.48827e-12
5.86868e-12
6.23844e-12
6.59742e-12
6.94555e-12
7.28278e-12
7.60913e-12
7.92465e-12
8.22941e-12
8.52353e-12
8.80715e-12
9.08043e-12
9.34355e-12
9.59671e-12
9.84011e-12
1.0074e-11
1.02985e-11
1.0514e-11
1.07207e-11
1.09187e-11
1.11084e-11
1.129e-11
1.14637e-11
1.16298e-11
1.17885e-11
1.194e-11
1.20846e-11
1.22224e-11
1.23537e-11
1.24788e-11
1.25977e-11
1.27107e-11
1.2818e-11
1.29198e-11
1.30162e-11
1.31075e-11
1.31937e-11
1.32751e-11
1.33518e-11
1.34239e-11
1.34916e-11
1.35551e-11
1.36144e-11
1.36696e-11
1.3721e-11
1.37686e-11
1.38126e-11
1.38529e-11
1.38899e-11
1.39234e-11
1.39537e-11
1.39808e-11
1.40048e-11
1.40258e-11
1.40438e-11
1.4059e-11
1.40714e-11
1.40811e-11
1.40882e-11
1.40927e-11
1.40947e-11
1.40942e-11
1.40913e-11
1.40861e-11
1.40786e-11
1.40688e-11
1.40569e-11
1.40429e-11
1.40267e-11
1.40086e-11
1.39884e-11
1.39662e-11
1.39422e-11
1.39163e-11
1.38886e-11
1.3859e-11
1.38278e-11
1.37948e-11
1.37601e-11
1.37238e-11
1.36858e-11
1.36463e-11
1.36053e-11
1.35627e-11
1.35187e-11
1.34732e-11
1.34263e-11
1.3378e-11
1.33283e-11
1.32773e-11
1.32251e-11
1.31715e-11
1.31167e-11
1.30607e-11
1.30035e-11
1.29452e-11
1.28857e-11
1.28251e-11
1.27635e-11
1.27007e-11
1.2637e-11
1.25723e-11
1.25065e-11
1.24399e-11
1.23723e-11
1.23038e-11
1.22344e-11
1.21642e-11
1.20932e-11
1.20213e-11
1.19487e-11
1.18754e-11
1.18013e-11
1.17265e-11
1.1651e-11
1.15748e-11
1.1498e-11
1.14206e-11
1.13426e-11
1.12641e-11
1.1185e-11
1.11053e-11
1.10252e-11
1.09446e-11
1.08635e-11
1.0782e-11
1.07001e-11
1.06178e-11
1.05351e-11
1.04521e-11
1.03687e-11
1.02851e-11
1.02011e-11
1.01169e-11
1.00324e-11
9.94767e-12
9.86275e-12
9.77764e-12
9.69235e-12
9.60691e-12
9.52134e-12
9.43566e-12
9.34987e-12
9.26401e-12
9.17809e-12
9.09213e-12
9.00614e-12
8.92014e-12
8.83416e-12
8.74819e-12
8.66228e-12
8.57642e-12
8.49063e-12
8.40494e-12
8.31935e-12
8.23389e-12
8.14856e-12
8.06339e-12
7.97838e-12
7.89356e-12
7.80893e-12
7.72451e-12
7.64032e-12
7.55636e-12
7.47266e-12
7.38921e-12
7.30605e-12
7.22317e-12
7.14059e-12
7.05833e-12
6.97639e-12
6.89479e-12
6.81353e-12
6.73263e-12
6.65211e-12
6.57196e-12
6.4922e-12
6.41284e-12
6.33389e-12
6.25535e-12
6.17725e-12
6.09958e-12
6.02236e-12
5.94559e-12
5.86928e-12
5.79345e-12
5.71809e-12
5.64321e-12
5.56883e-12
5.49494e-12
5.42157e-12
5.3487e-12
5.27635e-12
5.20453e-12
5.13323e-12
5.06247e-12
4.99226e-12
4.92258e-12
4.85346e-12
4.78489e-12
4.71689e-12
4.64944e-12
4.58256e-12
4.51626e-12
4.45053e-12
4.38537e-12
4.3208e-12
4.25681e-12
4.1934e-12
4.13059e-12
4.06836e-12
4.00673e-12
3.94569e-12
3.88525e-12
3.8254e-12
3.76616e-12
3.70751e-12
3.64947e-12
3.59202e-12
3.53518e-12
3.47894e-12
3.4233e-12
3.36827e-12
3.31384e-12
3.26001e-12
3.20678e-12
3.15415e-12
3.10212e-12
3.0507e-12
2.99987e-12
2.94963e-12
2.89999e-12
2.85095e-12
2.8025e-12
2.75464e-12
2.70737e-12
2.66068e-12
2.61458e-12
2.56907e-12
2.52413e-12
2.47977e-12
2.43598e-12
2.39277e-12
2.35013e-12
2.30805e-12
2.26654e-12
2.22559e-12
2.1852e-12
2.14536e-12
2.10607e-12
2.06733e-12
2.02913e-12
1.99148e-12
1.95436e-12
1.91778e-12
1.88172e-12
1.84619e-12
1.81118e-12
1.77669e-12
1.74271e-12
1.70925e-12
1.67628e-12
1.64382e-12
1.61186e-12
1.58039e-12
1.54941e-12
1.51891e-12
1.4889e-12
1.45935e-12
1.43028e-12
1.40168e-12
1.37354e-12
1.34586e-12
1.31863e-12
1.29184e-12
1.26551e-12
1.23961e-12
1.21414e-12
1.18911e-12
1.1645e-12
1.14032e-12
1.11655e-12
1.09319e-12
1.07024e-12
1.04769e-12
1.02554e-12
1.00378e-12
9.82416e-13
9.61432e-13
9.40827e-13
9.20597e-13
9.00737e-13
8.81243e-13
8.6211e-13
8.43334e-13
8.2491e-13
8.06833e-13
7.891e-13
7.71705e-13
7.54645e-13
7.37914e-13
7.21509e-13
7.05425e-13
6.89658e-13
6.74203e-13
6.59057e-13
6.44214e-13
6.29671e-13
6.15424e-13
6.01469e-13
5.87801e-13
5.74416e-13
5.6131e-13
5.4848e-13
5.35921e-13
5.2363e-13
5.11603e-13
4.99835e-13
4.88323e-13
4.77064e-13
4.66053e-13
4.55287e-13
4.44763e-13
4.34476e-13
4.24423e-13
4.14602e-13
4.05008e-13
3.95638e-13
3.86488e-13
3.77556e-13
3.68838e-13
3.60331e-13
3.52032e-13
3.43938e-13
3.36046e-13
3.28353e-13
3.20855e-13
3.13551e-13
3.06436e-13
2.99509e-13
2.92767e-13
2.86207e-13
2.79826e-13
2.73623e-13
2.67593e-13
2.61736e-13
2.56048e-13
2.50527e-13
2.45171e-13
2.39978e-13
2.34946e-13
2.30071e-13
2.25353e-13
2.2079e-13
2.16378e-13
2.12118e-13
2.08005e-13
2.0404e-13
2.00219e-13
1.96542e-13
1.93007e-13
1.89612e-13
1.86355e-13
1.83236e-13
1.80252e-13
1.77403e-13
1.74687e-13
1.72103e-13
1.6965e-13
1.67326e-13
1.65131e-13
1.63063e-13
1.61122e-13
1.59307e-13
1.57616e-13
1.56049e-13
1.54606e-13
1.53286e-13
1.52087e-13
1.5101e-13
1.50054e-13
1.49218e-13
1.48502e-13
1.47907e-13
1.4743e-13
1.47073e-13
1.46835e-13
1.46716e-13
)
;
    }
    Wall
    {
        type            calculated;
        value           nonuniform List<scalar> 
400
(
2.36279e-13
7.07592e-13
1.17601e-12
1.64027e-12
2.09926e-12
2.55202e-12
2.99771e-12
3.43559e-12
3.86501e-12
4.28543e-12
4.69636e-12
5.09741e-12
5.48827e-12
5.86868e-12
6.23844e-12
6.59742e-12
6.94555e-12
7.28278e-12
7.60913e-12
7.92465e-12
8.22941e-12
8.52353e-12
8.80715e-12
9.08043e-12
9.34355e-12
9.59671e-12
9.84011e-12
1.0074e-11
1.02985e-11
1.0514e-11
1.07207e-11
1.09187e-11
1.11084e-11
1.129e-11
1.14637e-11
1.16298e-11
1.17885e-11
1.194e-11
1.20846e-11
1.22224e-11
1.23537e-11
1.24787e-11
1.25977e-11
1.27107e-11
1.2818e-11
1.29198e-11
1.30162e-11
1.31074e-11
1.31937e-11
1.32751e-11
1.33517e-11
1.34239e-11
1.34916e-11
1.3555e-11
1.36143e-11
1.36696e-11
1.3721e-11
1.37686e-11
1.38125e-11
1.38529e-11
1.38898e-11
1.39234e-11
1.39536e-11
1.39807e-11
1.40047e-11
1.40257e-11
1.40438e-11
1.4059e-11
1.40714e-11
1.40811e-11
1.40882e-11
1.40927e-11
1.40946e-11
1.40941e-11
1.40913e-11
1.4086e-11
1.40785e-11
1.40688e-11
1.40569e-11
1.40428e-11
1.40267e-11
1.40085e-11
1.39883e-11
1.39662e-11
1.39422e-11
1.39163e-11
1.38885e-11
1.3859e-11
1.38277e-11
1.37947e-11
1.376e-11
1.37237e-11
1.36858e-11
1.36463e-11
1.36052e-11
1.35627e-11
1.35186e-11
1.34731e-11
1.34262e-11
1.33779e-11
1.33283e-11
1.32773e-11
1.3225e-11
1.31715e-11
1.31167e-11
1.30607e-11
1.30035e-11
1.29451e-11
1.28857e-11
1.28251e-11
1.27634e-11
1.27007e-11
1.2637e-11
1.25722e-11
1.25065e-11
1.24398e-11
1.23722e-11
1.23038e-11
1.22344e-11
1.21642e-11
1.20931e-11
1.20213e-11
1.19487e-11
1.18753e-11
1.18012e-11
1.17264e-11
1.16509e-11
1.15748e-11
1.1498e-11
1.14206e-11
1.13426e-11
1.1264e-11
1.11849e-11
1.11053e-11
1.10252e-11
1.09446e-11
1.08635e-11
1.0782e-11
1.07001e-11
1.06178e-11
1.05351e-11
1.04521e-11
1.03687e-11
1.0285e-11
1.02011e-11
1.01168e-11
1.00323e-11
9.94764e-12
9.86271e-12
9.7776e-12
9.69232e-12
9.60688e-12
9.52131e-12
9.43562e-12
9.34984e-12
9.26398e-12
9.17806e-12
9.0921e-12
9.00611e-12
8.92011e-12
8.83412e-12
8.74816e-12
8.66224e-12
8.57639e-12
8.4906e-12
8.40491e-12
8.31932e-12
8.23386e-12
8.14853e-12
8.06336e-12
7.97836e-12
7.89353e-12
7.8089e-12
7.72449e-12
7.64029e-12
7.55634e-12
7.47263e-12
7.38919e-12
7.30602e-12
7.22314e-12
7.14057e-12
7.0583e-12
6.97637e-12
6.89476e-12
6.81351e-12
6.73261e-12
6.65208e-12
6.57193e-12
6.49217e-12
6.41281e-12
6.33386e-12
6.25533e-12
6.17723e-12
6.09956e-12
6.02234e-12
5.94557e-12
5.86926e-12
5.79342e-12
5.71807e-12
5.64319e-12
5.56881e-12
5.49492e-12
5.42155e-12
5.34868e-12
5.27633e-12
5.20451e-12
5.13321e-12
5.06246e-12
4.99224e-12
4.92257e-12
4.85344e-12
4.78488e-12
4.71687e-12
4.64942e-12
4.58255e-12
4.51624e-12
4.45051e-12
4.38535e-12
4.32078e-12
4.25679e-12
4.19339e-12
4.13057e-12
4.06835e-12
4.00671e-12
3.94568e-12
3.88523e-12
3.82539e-12
3.76614e-12
3.7075e-12
3.64945e-12
3.59201e-12
3.53517e-12
3.47893e-12
3.42329e-12
3.36826e-12
3.31383e-12
3.26e-12
3.20677e-12
3.15414e-12
3.10211e-12
3.05068e-12
2.99985e-12
2.94962e-12
2.89998e-12
2.85094e-12
2.80249e-12
2.75463e-12
2.70736e-12
2.66067e-12
2.61457e-12
2.56906e-12
2.52412e-12
2.47976e-12
2.43598e-12
2.39276e-12
2.35012e-12
2.30805e-12
2.26653e-12
2.22558e-12
2.18519e-12
2.14535e-12
2.10606e-12
2.06732e-12
2.02913e-12
1.99147e-12
1.95435e-12
1.91777e-12
1.88171e-12
1.84618e-12
1.81117e-12
1.77668e-12
1.74271e-12
1.70924e-12
1.67628e-12
1.64382e-12
1.61185e-12
1.58038e-12
1.5494e-12
1.51891e-12
1.48889e-12
1.45935e-12
1.43028e-12
1.40168e-12
1.37353e-12
1.34585e-12
1.31862e-12
1.29184e-12
1.2655e-12
1.2396e-12
1.21414e-12
1.18911e-12
1.1645e-12
1.14031e-12
1.11654e-12
1.09319e-12
1.07024e-12
1.04769e-12
1.02554e-12
1.00378e-12
9.82412e-13
9.61428e-13
9.40823e-13
9.20594e-13
9.00734e-13
8.8124e-13
8.62107e-13
8.43331e-13
8.24907e-13
8.0683e-13
7.89097e-13
7.71702e-13
7.54642e-13
7.37911e-13
7.21506e-13
7.05422e-13
6.89655e-13
6.74201e-13
6.59054e-13
6.44212e-13
6.29669e-13
6.15422e-13
6.01466e-13
5.87798e-13
5.74414e-13
5.61308e-13
5.48478e-13
5.35919e-13
5.23628e-13
5.11601e-13
4.99833e-13
4.88321e-13
4.77062e-13
4.66051e-13
4.55285e-13
4.44761e-13
4.34474e-13
4.24422e-13
4.146e-13
4.05006e-13
3.95636e-13
3.86487e-13
3.77555e-13
3.68837e-13
3.6033e-13
3.52031e-13
3.43937e-13
3.36045e-13
3.28351e-13
3.20854e-13
3.13549e-13
3.06435e-13
2.99508e-13
2.92766e-13
2.86206e-13
2.79825e-13
2.73622e-13
2.67592e-13
2.61735e-13
2.56047e-13
2.50526e-13
2.4517e-13
2.39977e-13
2.34945e-13
2.30071e-13
2.25353e-13
2.20789e-13
2.16378e-13
2.12117e-13
2.08005e-13
2.04039e-13
2.00219e-13
1.96542e-13
1.93006e-13
1.89611e-13
1.86355e-13
1.83235e-13
1.80252e-13
1.77403e-13
1.74687e-13
1.72103e-13
1.69649e-13
1.67326e-13
1.6513e-13
1.63063e-13
1.61122e-13
1.59306e-13
1.57616e-13
1.56049e-13
1.54606e-13
1.53285e-13
1.52086e-13
1.51009e-13
1.50053e-13
1.49217e-13
1.48502e-13
1.47906e-13
1.4743e-13
1.47073e-13
1.46835e-13
1.46716e-13
)
;
    }
}


// ************************************************************************* //
