/*--------------------------------*- C++ -*----------------------------------*\
  =========                 |
  \\      /  F ield         | OpenFOAM: The Open Source CFD Toolbox
   \\    /   O peration     | Website:  https://openfoam.org
    \\  /    A nd           | Version:  10
     \\/     M anipulation  |
\*---------------------------------------------------------------------------*/
FoamFile
{
    format      ascii;
    class       volScalarField;
    location    "0.74";
    object      growth;
}
// * * * * * * * * * * * * * * * * * * * * * * * * * * * * * * * * * * * * * //

dimensions      [0 0 0 0 0 0 0];

internalField   uniform 0;

boundaryField
{
    frontAndBack
    {
        type            empty;
    }
    inlet
    {
        type            calculated;
        value           uniform 0;
    }
    outlet
    {
        type            calculated;
        value           uniform 0;
    }
    substrate
    {
        type            calculated;
        value           nonuniform List<scalar> 
400
(
0.734673
0.712425
0.691347
0.670899
0.650825
0.631001
0.611366
0.591896
0.572588
0.553452
0.534506
0.515774
0.497281
0.479053
0.461116
0.443497
0.426218
0.409302
0.392768
0.376634
0.360915
0.345622
0.330766
0.316355
0.302393
0.288885
0.27583
0.26323
0.251081
0.239379
0.22812
0.217296
0.206902
0.196927
0.187364
0.178202
0.16943
0.161039
0.153017
0.145352
0.138033
0.131048
0.124386
0.118035
0.111983
0.106218
0.100731
0.0955082
0.09054
0.0858157
0.0813246
0.0770567
0.0730021
0.0691513
0.065495
0.0620244
0.0587308
0.055606
0.0526418
0.0498307
0.0471653
0.0446385
0.0422434
0.0399737
0.0378231
0.0357856
0.0338556
0.0320277
0.0302966
0.0286574
0.0271054
0.0256362
0.0242455
0.0229291
0.0216833
0.0205043
0.0193887
0.0183331
0.0173344
0.0163895
0.0154957
0.0146502
0.0138504
0.013094
0.0123786
0.011702
0.0110621
0.010457
0.00988478
0.00934371
0.00883211
0.00834839
0.00789103
0.00745862
0.0070498
0.0066633
0.00629792
0.0059525
0.00562596
0.00531728
0.00502548
0.00474966
0.00448893
0.00424248
0.00400953
0.00378934
0.00358122
0.0033845
0.00319857
0.00302284
0.00285675
0.00269976
0.0025514
0.00241117
0.00227864
0.00215339
0.00203501
0.00192313
0.0018174
0.00171747
0.00162304
0.00153379
0.00144945
0.00136974
0.00129441
0.00122322
0.00115594
0.00109236
0.00103227
0.000975494
0.000921834
0.000871125
0.000823204
0.000777918
0.000735122
0.00069468
0.000656462
0.000620345
0.000586215
0.000553962
0.000523484
0.000494681
0.000467463
0.000441742
0.000417437
0.000394468
0.000372762
0.000352251
0.000332869
0.000314552
0.000297244
0.000280887
0.000265431
0.000250825
0.000237022
0.000223979
0.000211654
0.000200007
0.000189001
0.0001786
0.000168772
0.000159484
0.000150708
0.000142414
0.000134577
0.000127171
0.000120173
0.000113559
0.00010731
0.000101405
9.58241e-05
9.05507e-05
8.55675e-05
8.08586e-05
7.64087e-05
7.22038e-05
6.82302e-05
6.44753e-05
6.09271e-05
5.75741e-05
5.44056e-05
5.14115e-05
4.85822e-05
4.59086e-05
4.33821e-05
4.09946e-05
3.87386e-05
3.66067e-05
3.45921e-05
3.26884e-05
3.08894e-05
2.91895e-05
2.75831e-05
2.60651e-05
2.46306e-05
2.32751e-05
2.19942e-05
2.07838e-05
1.964e-05
1.85591e-05
1.75377e-05
1.65726e-05
1.56605e-05
1.47987e-05
1.39843e-05
1.32146e-05
1.24874e-05
1.18002e-05
1.11508e-05
1.05371e-05
9.9572e-06
9.40922e-06
8.89139e-06
8.40207e-06
7.93967e-06
7.50272e-06
7.08982e-06
6.69964e-06
6.33093e-06
5.98251e-06
5.65327e-06
5.34215e-06
5.04815e-06
4.77033e-06
4.5078e-06
4.25972e-06
4.02529e-06
3.80377e-06
3.59443e-06
3.39662e-06
3.20969e-06
3.03304e-06
2.86612e-06
2.70839e-06
2.55934e-06
2.41849e-06
2.28539e-06
2.15961e-06
2.04076e-06
1.92845e-06
1.82232e-06
1.72203e-06
1.62726e-06
1.53771e-06
1.45308e-06
1.37311e-06
1.29754e-06
1.22613e-06
1.15866e-06
1.09489e-06
1.03463e-06
9.77694e-07
9.23887e-07
8.73042e-07
8.24995e-07
7.79592e-07
7.36688e-07
6.96145e-07
6.57833e-07
6.2163e-07
5.87419e-07
5.55091e-07
5.24542e-07
4.95674e-07
4.68395e-07
4.42618e-07
4.18258e-07
3.9524e-07
3.73488e-07
3.52933e-07
3.3351e-07
3.15155e-07
2.97811e-07
2.81421e-07
2.65933e-07
2.51298e-07
2.37468e-07
2.24399e-07
2.12049e-07
2.00379e-07
1.89352e-07
1.78931e-07
1.69083e-07
1.59778e-07
1.50985e-07
1.42675e-07
1.34823e-07
1.27403e-07
1.20392e-07
1.13766e-07
1.07505e-07
1.01588e-07
9.59975e-08
9.07143e-08
8.57219e-08
8.10042e-08
7.65462e-08
7.23335e-08
6.83527e-08
6.45909e-08
6.10362e-08
5.76771e-08
5.45029e-08
5.15034e-08
4.8669e-08
4.59906e-08
4.34595e-08
4.10678e-08
3.88077e-08
3.6672e-08
3.46539e-08
3.27468e-08
3.09447e-08
2.92418e-08
2.76326e-08
2.6112e-08
2.46751e-08
2.33173e-08
2.20342e-08
2.08217e-08
1.9676e-08
1.85934e-08
1.75703e-08
1.66036e-08
1.56901e-08
1.48269e-08
1.40112e-08
1.32404e-08
1.25121e-08
1.18239e-08
1.11736e-08
1.05591e-08
9.97844e-09
9.42977e-09
8.91134e-09
8.42146e-09
7.95859e-09
7.52123e-09
7.10797e-09
6.71751e-09
6.34858e-09
6e-09
5.67065e-09
5.35948e-09
5.0655e-09
4.78775e-09
4.52535e-09
4.27746e-09
4.04328e-09
3.82206e-09
3.6131e-09
3.41572e-09
3.22929e-09
3.05322e-09
2.88693e-09
2.7299e-09
2.58162e-09
2.44162e-09
2.30945e-09
2.18468e-09
2.06691e-09
1.95578e-09
1.85091e-09
1.75198e-09
1.65866e-09
1.57067e-09
1.48771e-09
1.40952e-09
1.33585e-09
1.26647e-09
1.20114e-09
1.13967e-09
1.08185e-09
1.0275e-09
9.76449e-10
9.28527e-10
8.83583e-10
8.41472e-10
8.02061e-10
7.65222e-10
7.30837e-10
6.98796e-10
6.68997e-10
6.41344e-10
6.15747e-10
5.92126e-10
5.70405e-10
5.50513e-10
5.32387e-10
5.15969e-10
5.01206e-10
4.88051e-10
4.76462e-10
4.66402e-10
4.57838e-10
4.50742e-10
4.45093e-10
4.40872e-10
4.38066e-10
4.36665e-10
)
;
    }
    Wall
    {
        type            calculated;
        value           nonuniform List<scalar> 
400
(
0.734673
0.712424
0.691347
0.670899
0.650826
0.631001
0.611366
0.591895
0.572587
0.553451
0.534506
0.515774
0.497281
0.479053
0.461117
0.443498
0.42622
0.409304
0.392771
0.376637
0.360918
0.345625
0.33077
0.316359
0.302397
0.288889
0.275835
0.263234
0.251085
0.239384
0.228124
0.217301
0.206907
0.196932
0.187369
0.178207
0.169435
0.161044
0.153022
0.145357
0.138038
0.131053
0.124391
0.118039
0.111987
0.106223
0.100735
0.0955123
0.0905441
0.0858196
0.0813284
0.0770603
0.0730056
0.0691547
0.0654983
0.0620276
0.0587339
0.0556089
0.0526446
0.0498334
0.0471679
0.0446409
0.0422458
0.039976
0.0378252
0.0357877
0.0338576
0.0320295
0.0302983
0.0286591
0.027107
0.0256377
0.0242469
0.0229304
0.0216846
0.0205055
0.0193898
0.0183342
0.0173354
0.0163905
0.0154966
0.014651
0.0138512
0.0130947
0.0123793
0.0117026
0.0110627
0.0104576
0.00988533
0.00934423
0.0088326
0.00834884
0.00789145
0.00745901
0.00705017
0.00666365
0.00629824
0.0059528
0.00562624
0.00531754
0.00502573
0.00474989
0.00448914
0.00424268
0.00400971
0.00378951
0.00358138
0.00338465
0.00319871
0.00302297
0.00285686
0.00269987
0.0025515
0.00241126
0.00227873
0.00215347
0.00203508
0.0019232
0.00181746
0.00171753
0.00162309
0.00153384
0.00144949
0.00136978
0.00129444
0.00122325
0.00115597
0.00109239
0.0010323
0.00097552
0.000921858
0.000871147
0.000823224
0.000777937
0.000735139
0.000694696
0.000656476
0.000620358
0.000586227
0.000553973
0.000523494
0.000494691
0.000467472
0.00044175
0.000417444
0.000394474
0.000372768
0.000352257
0.000332873
0.000314557
0.000297248
0.000280891
0.000265434
0.000250828
0.000237025
0.000223982
0.000211656
0.000200009
0.000189003
0.000178602
0.000168773
0.000159486
0.000150709
0.000142415
0.000134578
0.000127172
0.000120174
0.00011356
0.000107311
0.000101405
9.58247e-05
9.05512e-05
8.5568e-05
8.0859e-05
7.64091e-05
7.22041e-05
6.82305e-05
6.44756e-05
6.09273e-05
5.75743e-05
5.44058e-05
5.14117e-05
4.85823e-05
4.59087e-05
4.33822e-05
4.09947e-05
3.87387e-05
3.66067e-05
3.45921e-05
3.26884e-05
3.08895e-05
2.91895e-05
2.75831e-05
2.60651e-05
2.46307e-05
2.32751e-05
2.19942e-05
2.07838e-05
1.964e-05
1.85591e-05
1.75378e-05
1.65726e-05
1.56605e-05
1.47987e-05
1.39843e-05
1.32147e-05
1.24874e-05
1.18002e-05
1.11508e-05
1.05371e-05
9.9572e-06
9.40922e-06
8.89139e-06
8.40207e-06
7.93967e-06
7.50272e-06
7.08981e-06
6.69964e-06
6.33093e-06
5.98251e-06
5.65327e-06
5.34215e-06
5.04815e-06
4.77033e-06
4.5078e-06
4.25972e-06
4.02529e-06
3.80377e-06
3.59443e-06
3.39661e-06
3.20969e-06
3.03304e-06
2.86612e-06
2.70839e-06
2.55934e-06
2.41849e-06
2.28539e-06
2.15961e-06
2.04076e-06
1.92845e-06
1.82232e-06
1.72203e-06
1.62726e-06
1.53771e-06
1.45308e-06
1.37311e-06
1.29754e-06
1.22613e-06
1.15866e-06
1.09489e-06
1.03463e-06
9.77694e-07
9.23887e-07
8.73042e-07
8.24995e-07
7.79592e-07
7.36688e-07
6.96145e-07
6.57833e-07
6.2163e-07
5.87419e-07
5.55091e-07
5.24542e-07
4.95674e-07
4.68395e-07
4.42617e-07
4.18258e-07
3.9524e-07
3.73488e-07
3.52933e-07
3.3351e-07
3.15155e-07
2.97811e-07
2.81421e-07
2.65933e-07
2.51298e-07
2.37468e-07
2.24399e-07
2.12049e-07
2.00379e-07
1.89351e-07
1.78931e-07
1.69083e-07
1.59778e-07
1.50985e-07
1.42675e-07
1.34823e-07
1.27403e-07
1.20392e-07
1.13766e-07
1.07505e-07
1.01588e-07
9.59975e-08
9.07143e-08
8.57219e-08
8.10042e-08
7.65462e-08
7.23335e-08
6.83527e-08
6.45909e-08
6.10362e-08
5.76771e-08
5.45029e-08
5.15034e-08
4.8669e-08
4.59906e-08
4.34595e-08
4.10678e-08
3.88077e-08
3.6672e-08
3.46539e-08
3.27468e-08
3.09447e-08
2.92418e-08
2.76326e-08
2.6112e-08
2.46751e-08
2.33173e-08
2.20342e-08
2.08217e-08
1.9676e-08
1.85934e-08
1.75703e-08
1.66036e-08
1.56901e-08
1.48269e-08
1.40112e-08
1.32404e-08
1.25121e-08
1.18239e-08
1.11736e-08
1.05591e-08
9.97844e-09
9.42977e-09
8.91134e-09
8.42146e-09
7.95859e-09
7.52123e-09
7.10798e-09
6.71751e-09
6.34858e-09
6e-09
5.67065e-09
5.35948e-09
5.0655e-09
4.78775e-09
4.52535e-09
4.27746e-09
4.04328e-09
3.82206e-09
3.6131e-09
3.41572e-09
3.22929e-09
3.05322e-09
2.88693e-09
2.7299e-09
2.58162e-09
2.44162e-09
2.30945e-09
2.18468e-09
2.06691e-09
1.95578e-09
1.85091e-09
1.75198e-09
1.65866e-09
1.57067e-09
1.48771e-09
1.40952e-09
1.33585e-09
1.26647e-09
1.20114e-09
1.13967e-09
1.08185e-09
1.0275e-09
9.76449e-10
9.28527e-10
8.83583e-10
8.41472e-10
8.02061e-10
7.65222e-10
7.30837e-10
6.98796e-10
6.68997e-10
6.41344e-10
6.15747e-10
5.92126e-10
5.70405e-10
5.50513e-10
5.32387e-10
5.15969e-10
5.01206e-10
4.88051e-10
4.76462e-10
4.66402e-10
4.57838e-10
4.50742e-10
4.45093e-10
4.40872e-10
4.38066e-10
4.36665e-10
)
;
    }
}


// ************************************************************************* //
