/*--------------------------------*- C++ -*----------------------------------*\
  =========                 |
  \\      /  F ield         | OpenFOAM: The Open Source CFD Toolbox
   \\    /   O peration     | Website:  https://openfoam.org
    \\  /    A nd           | Version:  10
     \\/     M anipulation  |
\*---------------------------------------------------------------------------*/
FoamFile
{
    format      ascii;
    class       volScalarField;
    location    "0.74";
    object      N1;
}
// * * * * * * * * * * * * * * * * * * * * * * * * * * * * * * * * * * * * * //

dimensions      [0 0 0 0 0 0 0];

internalField   nonuniform List<scalar> 
8000
(
1.79357e-12
5.37342e-12
8.93397e-12
1.24654e-11
1.59593e-11
1.94082e-11
2.28057e-11
2.6146e-11
2.94243e-11
3.2636e-11
3.57776e-11
3.88459e-11
4.18383e-11
4.47528e-11
4.75877e-11
5.03419e-11
5.30146e-11
5.56054e-11
5.81143e-11
6.05414e-11
6.28873e-11
6.51526e-11
6.73383e-11
6.94456e-11
7.14756e-11
7.34298e-11
7.53097e-11
7.71168e-11
7.88529e-11
8.05195e-11
8.21185e-11
8.36517e-11
8.51207e-11
8.65275e-11
8.78738e-11
8.91614e-11
9.0392e-11
9.15674e-11
9.26892e-11
9.37592e-11
9.47789e-11
9.57499e-11
9.66738e-11
9.75521e-11
9.83862e-11
9.91775e-11
9.99274e-11
1.00637e-10
1.01308e-10
1.01942e-10
1.02539e-10
1.031e-10
1.03628e-10
1.04122e-10
1.04585e-10
1.05016e-10
1.05417e-10
1.05788e-10
1.06132e-10
1.06447e-10
1.06736e-10
1.06998e-10
1.07235e-10
1.07448e-10
1.07636e-10
1.07802e-10
1.07944e-10
1.08065e-10
1.08163e-10
1.08241e-10
1.08298e-10
1.08336e-10
1.08353e-10
1.08352e-10
1.08333e-10
1.08295e-10
1.08239e-10
1.08166e-10
1.08077e-10
1.0797e-10
1.07848e-10
1.0771e-10
1.07556e-10
1.07387e-10
1.07204e-10
1.07006e-10
1.06794e-10
1.06568e-10
1.06329e-10
1.06076e-10
1.0581e-10
1.05532e-10
1.05241e-10
1.04938e-10
1.04623e-10
1.04296e-10
1.03958e-10
1.03609e-10
1.03249e-10
1.02878e-10
1.02497e-10
1.02105e-10
1.01704e-10
1.01292e-10
1.00872e-10
1.00441e-10
1.00002e-10
9.95534e-11
9.90964e-11
9.86307e-11
9.81568e-11
9.76748e-11
9.71849e-11
9.66872e-11
9.61821e-11
9.56696e-11
9.515e-11
9.46235e-11
9.40902e-11
9.35504e-11
9.30042e-11
9.24518e-11
9.18935e-11
9.13294e-11
9.07596e-11
9.01844e-11
8.96039e-11
8.90184e-11
8.8428e-11
8.78328e-11
8.72331e-11
8.6629e-11
8.60207e-11
8.54084e-11
8.47922e-11
8.41723e-11
8.35489e-11
8.29222e-11
8.22922e-11
8.16592e-11
8.10234e-11
8.03848e-11
7.97437e-11
7.91003e-11
7.84545e-11
7.78067e-11
7.7157e-11
7.65056e-11
7.58525e-11
7.51979e-11
7.4542e-11
7.38849e-11
7.32269e-11
7.25679e-11
7.19082e-11
7.12478e-11
7.05871e-11
6.99259e-11
6.92646e-11
6.86033e-11
6.7942e-11
6.72808e-11
6.66201e-11
6.59598e-11
6.53e-11
6.4641e-11
6.39828e-11
6.33255e-11
6.26693e-11
6.20142e-11
6.13604e-11
6.07081e-11
6.00572e-11
5.9408e-11
5.87605e-11
5.81148e-11
5.7471e-11
5.68293e-11
5.61897e-11
5.55523e-11
5.49172e-11
5.42845e-11
5.36543e-11
5.30267e-11
5.24018e-11
5.17796e-11
5.11603e-11
5.05439e-11
4.99305e-11
4.93201e-11
4.87129e-11
4.8109e-11
4.75083e-11
4.69109e-11
4.6317e-11
4.57266e-11
4.51398e-11
4.45565e-11
4.39769e-11
4.34011e-11
4.2829e-11
4.22608e-11
4.16964e-11
4.1136e-11
4.05796e-11
4.00272e-11
3.94789e-11
3.89347e-11
3.83947e-11
3.78588e-11
3.73272e-11
3.67999e-11
3.62769e-11
3.57581e-11
3.52438e-11
3.47338e-11
3.42283e-11
3.37272e-11
3.32306e-11
3.27384e-11
3.22508e-11
3.17677e-11
3.12891e-11
3.08151e-11
3.03457e-11
2.98809e-11
2.94206e-11
2.89649e-11
2.85139e-11
2.80675e-11
2.76257e-11
2.71885e-11
2.6756e-11
2.63281e-11
2.59049e-11
2.54862e-11
2.50722e-11
2.46629e-11
2.42581e-11
2.3858e-11
2.34624e-11
2.30715e-11
2.26852e-11
2.23034e-11
2.19262e-11
2.15536e-11
2.11855e-11
2.0822e-11
2.04629e-11
2.01084e-11
1.97583e-11
1.94127e-11
1.90715e-11
1.87348e-11
1.84024e-11
1.80745e-11
1.77509e-11
1.74316e-11
1.71167e-11
1.6806e-11
1.64996e-11
1.61975e-11
1.58995e-11
1.56058e-11
1.53162e-11
1.50307e-11
1.47493e-11
1.4472e-11
1.41988e-11
1.39295e-11
1.36642e-11
1.34029e-11
1.31455e-11
1.2892e-11
1.26424e-11
1.23966e-11
1.21545e-11
1.19163e-11
1.16817e-11
1.14509e-11
1.12237e-11
1.10001e-11
1.07801e-11
1.05637e-11
1.03508e-11
1.01413e-11
9.93537e-12
9.73282e-12
9.53364e-12
9.3378e-12
9.14528e-12
8.95603e-12
8.77002e-12
8.58721e-12
8.40757e-12
8.23105e-12
8.05764e-12
7.88728e-12
7.71995e-12
7.55561e-12
7.39423e-12
7.23576e-12
7.08017e-12
6.92743e-12
6.77751e-12
6.63036e-12
6.48595e-12
6.34426e-12
6.20523e-12
6.06885e-12
5.93507e-12
5.80386e-12
5.67519e-12
5.54902e-12
5.42532e-12
5.30405e-12
5.18519e-12
5.0687e-12
4.95455e-12
4.84271e-12
4.73313e-12
4.6258e-12
4.52068e-12
4.41774e-12
4.31695e-12
4.21828e-12
4.12169e-12
4.02716e-12
3.93466e-12
3.84415e-12
3.75562e-12
3.66903e-12
3.58434e-12
3.50154e-12
3.4206e-12
3.34149e-12
3.26418e-12
3.18864e-12
3.11485e-12
3.04279e-12
2.97242e-12
2.90373e-12
2.83668e-12
2.77125e-12
2.70743e-12
2.64518e-12
2.58448e-12
2.52531e-12
2.46765e-12
2.41147e-12
2.35675e-12
2.30348e-12
2.25163e-12
2.20117e-12
2.1521e-12
2.10439e-12
2.05802e-12
2.01297e-12
1.96922e-12
1.92677e-12
1.88558e-12
1.84564e-12
1.80693e-12
1.76944e-12
1.73316e-12
1.69806e-12
1.66413e-12
1.63136e-12
1.59974e-12
1.56924e-12
1.53986e-12
1.51158e-12
1.48439e-12
1.45827e-12
1.43323e-12
1.40924e-12
1.38629e-12
1.36438e-12
1.34349e-12
1.32362e-12
1.30475e-12
1.28688e-12
1.27e-12
1.25409e-12
1.23917e-12
1.2252e-12
1.2122e-12
1.20015e-12
1.18905e-12
1.1789e-12
1.16968e-12
1.16139e-12
1.15404e-12
1.14761e-12
1.14211e-12
1.13753e-12
1.13386e-12
1.13112e-12
1.12929e-12
1.12837e-12
1.81194e-12
5.4301e-12
9.03196e-12
1.26081e-11
1.61502e-11
1.96509e-11
2.31034e-11
2.65021e-11
2.98417e-11
3.31176e-11
3.63259e-11
3.94632e-11
4.25268e-11
4.55143e-11
4.84237e-11
5.12537e-11
5.40032e-11
5.66716e-11
5.92585e-11
6.17639e-11
6.4188e-11
6.65315e-11
6.87949e-11
7.09792e-11
7.30855e-11
7.5115e-11
7.7069e-11
7.8949e-11
8.07566e-11
8.24933e-11
8.41608e-11
8.57608e-11
8.7295e-11
8.87651e-11
9.01729e-11
9.15201e-11
9.28085e-11
9.40398e-11
9.52156e-11
9.63376e-11
9.74075e-11
9.84268e-11
9.93971e-11
1.0032e-10
1.01197e-10
1.02029e-10
1.02818e-10
1.03565e-10
1.04272e-10
1.04939e-10
1.05568e-10
1.06161e-10
1.06717e-10
1.07239e-10
1.07728e-10
1.08184e-10
1.08608e-10
1.09001e-10
1.09365e-10
1.097e-10
1.10006e-10
1.10285e-10
1.10538e-10
1.10765e-10
1.10967e-10
1.11144e-10
1.11298e-10
1.11428e-10
1.11536e-10
1.11622e-10
1.11687e-10
1.1173e-10
1.11753e-10
1.11757e-10
1.11741e-10
1.11706e-10
1.11652e-10
1.11581e-10
1.11492e-10
1.11385e-10
1.11262e-10
1.11123e-10
1.10967e-10
1.10796e-10
1.10609e-10
1.10407e-10
1.1019e-10
1.09959e-10
1.09714e-10
1.09455e-10
1.09183e-10
1.08897e-10
1.08599e-10
1.08287e-10
1.07964e-10
1.07628e-10
1.0728e-10
1.06921e-10
1.06551e-10
1.06169e-10
1.05776e-10
1.05373e-10
1.0496e-10
1.04536e-10
1.04102e-10
1.03659e-10
1.03206e-10
1.02744e-10
1.02273e-10
1.01793e-10
1.01304e-10
1.00807e-10
1.00302e-10
9.9789e-11
9.9268e-11
9.87395e-11
9.82036e-11
9.76605e-11
9.71104e-11
9.65536e-11
9.59902e-11
9.54204e-11
9.48443e-11
9.42623e-11
9.36745e-11
9.3081e-11
9.24821e-11
9.18779e-11
9.12687e-11
9.06546e-11
9.00358e-11
8.94124e-11
8.87847e-11
8.81528e-11
8.75169e-11
8.68773e-11
8.62339e-11
8.55871e-11
8.4937e-11
8.42838e-11
8.36276e-11
8.29686e-11
8.23069e-11
8.16428e-11
8.09764e-11
8.03079e-11
7.96373e-11
7.8965e-11
7.82909e-11
7.76154e-11
7.69384e-11
7.62603e-11
7.55811e-11
7.4901e-11
7.42201e-11
7.35385e-11
7.28565e-11
7.21742e-11
7.14916e-11
7.0809e-11
7.01265e-11
6.94441e-11
6.87621e-11
6.80806e-11
6.73997e-11
6.67194e-11
6.60401e-11
6.53617e-11
6.46844e-11
6.40083e-11
6.33335e-11
6.26602e-11
6.19884e-11
6.13183e-11
6.065e-11
5.99835e-11
5.9319e-11
5.86567e-11
5.79965e-11
5.73386e-11
5.66831e-11
5.60301e-11
5.53797e-11
5.47319e-11
5.40869e-11
5.34447e-11
5.28055e-11
5.21692e-11
5.15361e-11
5.09061e-11
5.02794e-11
4.9656e-11
4.9036e-11
4.84195e-11
4.78065e-11
4.71971e-11
4.65913e-11
4.59893e-11
4.53911e-11
4.47967e-11
4.42063e-11
4.36198e-11
4.30373e-11
4.24589e-11
4.18846e-11
4.13144e-11
4.07485e-11
4.01868e-11
3.96294e-11
3.90763e-11
3.85276e-11
3.79833e-11
3.74434e-11
3.69081e-11
3.63772e-11
3.58508e-11
3.5329e-11
3.48118e-11
3.42992e-11
3.37913e-11
3.32879e-11
3.27893e-11
3.22953e-11
3.18061e-11
3.13216e-11
3.08418e-11
3.03667e-11
2.98964e-11
2.94309e-11
2.89701e-11
2.85141e-11
2.80629e-11
2.76164e-11
2.71748e-11
2.67379e-11
2.63058e-11
2.58785e-11
2.5456e-11
2.50382e-11
2.46252e-11
2.42169e-11
2.38134e-11
2.34147e-11
2.30207e-11
2.26313e-11
2.22467e-11
2.18668e-11
2.14916e-11
2.1121e-11
2.0755e-11
2.03937e-11
2.0037e-11
1.96848e-11
1.93373e-11
1.89942e-11
1.86557e-11
1.83217e-11
1.79922e-11
1.76671e-11
1.73465e-11
1.70302e-11
1.67184e-11
1.64108e-11
1.61076e-11
1.58087e-11
1.55141e-11
1.52236e-11
1.49374e-11
1.46554e-11
1.43775e-11
1.41037e-11
1.3834e-11
1.35683e-11
1.33066e-11
1.3049e-11
1.27952e-11
1.25454e-11
1.22995e-11
1.20574e-11
1.18191e-11
1.15846e-11
1.13538e-11
1.11268e-11
1.09034e-11
1.06836e-11
1.04675e-11
1.02549e-11
1.00458e-11
9.84022e-12
9.63809e-12
9.43938e-12
9.24404e-12
9.05205e-12
8.86336e-12
8.67794e-12
8.49575e-12
8.31676e-12
8.14093e-12
7.96822e-12
7.79859e-12
7.63201e-12
7.46845e-12
7.30786e-12
7.15021e-12
6.99546e-12
6.84358e-12
6.69453e-12
6.54828e-12
6.40478e-12
6.26401e-12
6.12593e-12
5.9905e-12
5.85769e-12
5.72746e-12
5.59979e-12
5.47462e-12
5.35194e-12
5.2317e-12
5.11388e-12
4.99844e-12
4.88534e-12
4.77456e-12
4.66606e-12
4.55981e-12
4.45578e-12
4.35393e-12
4.25424e-12
4.15667e-12
4.06119e-12
3.96778e-12
3.87639e-12
3.78701e-12
3.69961e-12
3.61415e-12
3.5306e-12
3.44894e-12
3.36915e-12
3.29118e-12
3.21502e-12
3.14064e-12
3.06801e-12
2.9971e-12
2.9279e-12
2.86037e-12
2.79449e-12
2.73024e-12
2.66759e-12
2.60652e-12
2.547e-12
2.48902e-12
2.43254e-12
2.37756e-12
2.32404e-12
2.27196e-12
2.22131e-12
2.17206e-12
2.1242e-12
2.0777e-12
2.03255e-12
1.98873e-12
1.94621e-12
1.90499e-12
1.86504e-12
1.82635e-12
1.78889e-12
1.75267e-12
1.71765e-12
1.68383e-12
1.65118e-12
1.6197e-12
1.58938e-12
1.56019e-12
1.53212e-12
1.50517e-12
1.47932e-12
1.45456e-12
1.43087e-12
1.40826e-12
1.3867e-12
1.36618e-12
1.34671e-12
1.32826e-12
1.31084e-12
1.29442e-12
1.27901e-12
1.2646e-12
1.25118e-12
1.23875e-12
1.22729e-12
1.21681e-12
1.20729e-12
1.19874e-12
1.19115e-12
1.18452e-12
1.17884e-12
1.17411e-12
1.17033e-12
1.16749e-12
1.1656e-12
1.16466e-12
1.82995e-12
5.48492e-12
9.12546e-12
1.27427e-11
1.63287e-11
1.98759e-11
2.33779e-11
2.68287e-11
3.0223e-11
3.3556e-11
3.68237e-11
4.00225e-11
4.31493e-11
4.62017e-11
4.91773e-11
5.20747e-11
5.48925e-11
5.76299e-11
6.02862e-11
6.28613e-11
6.53551e-11
6.77681e-11
7.01007e-11
7.23537e-11
7.4528e-11
7.66246e-11
7.86449e-11
8.059e-11
8.24615e-11
8.42608e-11
8.59896e-11
8.76493e-11
8.92418e-11
9.07686e-11
9.22316e-11
9.36323e-11
9.49725e-11
9.62538e-11
9.74781e-11
9.86468e-11
9.97617e-11
1.00824e-10
1.01836e-10
1.02799e-10
1.03714e-10
1.04583e-10
1.05407e-10
1.06188e-10
1.06927e-10
1.07625e-10
1.08283e-10
1.08903e-10
1.09486e-10
1.10033e-10
1.10545e-10
1.11023e-10
1.11468e-10
1.11881e-10
1.12263e-10
1.12615e-10
1.12938e-10
1.13232e-10
1.13499e-10
1.13739e-10
1.13953e-10
1.14141e-10
1.14305e-10
1.14444e-10
1.14561e-10
1.14654e-10
1.14725e-10
1.14774e-10
1.14802e-10
1.1481e-10
1.14797e-10
1.14765e-10
1.14713e-10
1.14643e-10
1.14555e-10
1.14448e-10
1.14325e-10
1.14184e-10
1.14026e-10
1.13852e-10
1.13663e-10
1.13457e-10
1.13236e-10
1.13001e-10
1.12751e-10
1.12486e-10
1.12208e-10
1.11916e-10
1.1161e-10
1.11292e-10
1.1096e-10
1.10616e-10
1.1026e-10
1.09892e-10
1.09512e-10
1.09121e-10
1.08718e-10
1.08305e-10
1.0788e-10
1.07446e-10
1.07001e-10
1.06546e-10
1.06081e-10
1.05606e-10
1.05123e-10
1.0463e-10
1.04128e-10
1.03618e-10
1.03099e-10
1.02572e-10
1.02036e-10
1.01494e-10
1.00943e-10
1.00385e-10
9.98199e-11
9.92478e-11
9.86689e-11
9.80834e-11
9.74916e-11
9.68935e-11
9.62895e-11
9.56796e-11
9.50642e-11
9.44433e-11
9.38172e-11
9.31861e-11
9.25501e-11
9.19094e-11
9.12643e-11
9.06149e-11
8.99614e-11
8.93039e-11
8.86427e-11
8.79779e-11
8.73098e-11
8.66383e-11
8.59639e-11
8.52865e-11
8.46065e-11
8.39239e-11
8.32389e-11
8.25517e-11
8.18625e-11
8.11714e-11
8.04785e-11
7.97841e-11
7.90883e-11
7.83913e-11
7.76931e-11
7.6994e-11
7.62941e-11
7.55936e-11
7.48925e-11
7.41912e-11
7.34896e-11
7.27879e-11
7.20863e-11
7.13849e-11
7.06838e-11
6.99833e-11
6.92833e-11
6.85841e-11
6.78858e-11
6.71884e-11
6.64922e-11
6.57972e-11
6.51036e-11
6.44115e-11
6.37209e-11
6.30321e-11
6.23451e-11
6.166e-11
6.0977e-11
6.02961e-11
5.96175e-11
5.89412e-11
5.82674e-11
5.75961e-11
5.69275e-11
5.62617e-11
5.55986e-11
5.49385e-11
5.42814e-11
5.36274e-11
5.29766e-11
5.2329e-11
5.16847e-11
5.10439e-11
5.04066e-11
4.97728e-11
4.91427e-11
4.85163e-11
4.78936e-11
4.72748e-11
4.66598e-11
4.60489e-11
4.54419e-11
4.4839e-11
4.42402e-11
4.36456e-11
4.30553e-11
4.24692e-11
4.18874e-11
4.131e-11
4.07371e-11
4.01685e-11
3.96045e-11
3.9045e-11
3.849e-11
3.79397e-11
3.7394e-11
3.68529e-11
3.63165e-11
3.57849e-11
3.52579e-11
3.47358e-11
3.42184e-11
3.37058e-11
3.3198e-11
3.26951e-11
3.2197e-11
3.17038e-11
3.12155e-11
3.07321e-11
3.02535e-11
2.97798e-11
2.93111e-11
2.88473e-11
2.83884e-11
2.79344e-11
2.74853e-11
2.70411e-11
2.66018e-11
2.61675e-11
2.5738e-11
2.53135e-11
2.48938e-11
2.44791e-11
2.40692e-11
2.36641e-11
2.32639e-11
2.28686e-11
2.2478e-11
2.20923e-11
2.17113e-11
2.13351e-11
2.09637e-11
2.0597e-11
2.02351e-11
1.98778e-11
1.95252e-11
1.91772e-11
1.88339e-11
1.84951e-11
1.8161e-11
1.78313e-11
1.75063e-11
1.71857e-11
1.68695e-11
1.65579e-11
1.62506e-11
1.59477e-11
1.56492e-11
1.53549e-11
1.5065e-11
1.47793e-11
1.44979e-11
1.42206e-11
1.39475e-11
1.36786e-11
1.34137e-11
1.31529e-11
1.28961e-11
1.26433e-11
1.23944e-11
1.21495e-11
1.19084e-11
1.16712e-11
1.14378e-11
1.12082e-11
1.09823e-11
1.07601e-11
1.05415e-11
1.03266e-11
1.01153e-11
9.90749e-12
9.70322e-12
9.50242e-12
9.30506e-12
9.1111e-12
8.9205e-12
8.73322e-12
8.54922e-12
8.36848e-12
8.19094e-12
8.01657e-12
7.84534e-12
7.6772e-12
7.51212e-12
7.35007e-12
7.19099e-12
7.03487e-12
6.88165e-12
6.73131e-12
6.58381e-12
6.4391e-12
6.29716e-12
6.15794e-12
6.02142e-12
5.88755e-12
5.75631e-12
5.62765e-12
5.50153e-12
5.37794e-12
5.25682e-12
5.13815e-12
5.0219e-12
4.90802e-12
4.79649e-12
4.68726e-12
4.58032e-12
4.47563e-12
4.37315e-12
4.27285e-12
4.17471e-12
4.07868e-12
3.98474e-12
3.89287e-12
3.80302e-12
3.71517e-12
3.62929e-12
3.54535e-12
3.46332e-12
3.38317e-12
3.30489e-12
3.22842e-12
3.15376e-12
3.08088e-12
3.00974e-12
2.94032e-12
2.8726e-12
2.80656e-12
2.74216e-12
2.67938e-12
2.6182e-12
2.55859e-12
2.50054e-12
2.44401e-12
2.389e-12
2.33547e-12
2.2834e-12
2.23278e-12
2.18358e-12
2.13578e-12
2.08936e-12
2.04432e-12
2.00061e-12
1.95824e-12
1.91717e-12
1.8774e-12
1.8389e-12
1.80166e-12
1.76566e-12
1.73089e-12
1.69733e-12
1.66498e-12
1.6338e-12
1.6038e-12
1.57495e-12
1.54724e-12
1.52067e-12
1.49521e-12
1.47087e-12
1.44762e-12
1.42546e-12
1.40437e-12
1.38435e-12
1.36539e-12
1.34748e-12
1.3306e-12
1.31477e-12
1.29995e-12
1.28616e-12
1.27337e-12
1.2616e-12
1.25082e-12
1.24104e-12
1.23225e-12
1.22445e-12
1.21763e-12
1.21179e-12
1.20693e-12
1.20304e-12
1.20013e-12
1.19818e-12
1.19721e-12
1.84676e-12
5.53583e-12
9.2117e-12
1.28661e-11
1.64912e-11
2.00798e-11
2.36255e-11
2.71221e-11
3.05645e-11
3.39476e-11
3.72674e-11
4.052e-11
4.37022e-11
4.68112e-11
4.98449e-11
5.28012e-11
5.56788e-11
5.84765e-11
6.11937e-11
6.38298e-11
6.63847e-11
6.88587e-11
7.1252e-11
7.35652e-11
7.57991e-11
7.79547e-11
8.00331e-11
8.20355e-11
8.39631e-11
8.58175e-11
8.76001e-11
8.93125e-11
9.09563e-11
9.25331e-11
9.40445e-11
9.54924e-11
9.68782e-11
9.82038e-11
9.94707e-11
1.00681e-10
1.01835e-10
1.02936e-10
1.03985e-10
1.04983e-10
1.05932e-10
1.06834e-10
1.07689e-10
1.08499e-10
1.09266e-10
1.09991e-10
1.10675e-10
1.1132e-10
1.11926e-10
1.12495e-10
1.13028e-10
1.13525e-10
1.13989e-10
1.1442e-10
1.14818e-10
1.15186e-10
1.15523e-10
1.1583e-10
1.1611e-10
1.16361e-10
1.16585e-10
1.16784e-10
1.16956e-10
1.17104e-10
1.17227e-10
1.17327e-10
1.17404e-10
1.17458e-10
1.17491e-10
1.17502e-10
1.17492e-10
1.17463e-10
1.17413e-10
1.17344e-10
1.17256e-10
1.1715e-10
1.17025e-10
1.16883e-10
1.16724e-10
1.16548e-10
1.16356e-10
1.16147e-10
1.15923e-10
1.15684e-10
1.15429e-10
1.1516e-10
1.14876e-10
1.14578e-10
1.14267e-10
1.13942e-10
1.13603e-10
1.13252e-10
1.12889e-10
1.12513e-10
1.12125e-10
1.11725e-10
1.11313e-10
1.1089e-10
1.10457e-10
1.10012e-10
1.09557e-10
1.09092e-10
1.08616e-10
1.08131e-10
1.07636e-10
1.07132e-10
1.06619e-10
1.06096e-10
1.05565e-10
1.05026e-10
1.04478e-10
1.03923e-10
1.03359e-10
1.02788e-10
1.0221e-10
1.01624e-10
1.01032e-10
1.00433e-10
9.98267e-11
9.92145e-11
9.85961e-11
9.79718e-11
9.73418e-11
9.67062e-11
9.60652e-11
9.54191e-11
9.4768e-11
9.41121e-11
9.34516e-11
9.27867e-11
9.21176e-11
9.14445e-11
9.07675e-11
9.00869e-11
8.94028e-11
8.87153e-11
8.80247e-11
8.73312e-11
8.66349e-11
8.5936e-11
8.52346e-11
8.4531e-11
8.38253e-11
8.31177e-11
8.24083e-11
8.16972e-11
8.09848e-11
8.0271e-11
7.95562e-11
7.88403e-11
7.81237e-11
7.74064e-11
7.66885e-11
7.59703e-11
7.52519e-11
7.45335e-11
7.3815e-11
7.30969e-11
7.2379e-11
7.16617e-11
7.09449e-11
7.0229e-11
6.95139e-11
6.87998e-11
6.80869e-11
6.73753e-11
6.6665e-11
6.59563e-11
6.52492e-11
6.45438e-11
6.38404e-11
6.31389e-11
6.24395e-11
6.17423e-11
6.10474e-11
6.03549e-11
5.96649e-11
5.89776e-11
5.82929e-11
5.76111e-11
5.69321e-11
5.62562e-11
5.55833e-11
5.49136e-11
5.42472e-11
5.35841e-11
5.29244e-11
5.22682e-11
5.16156e-11
5.09666e-11
5.03214e-11
4.96799e-11
4.90423e-11
4.84087e-11
4.7779e-11
4.71534e-11
4.65318e-11
4.59145e-11
4.53014e-11
4.46925e-11
4.4088e-11
4.34878e-11
4.28921e-11
4.23009e-11
4.17142e-11
4.1132e-11
4.05544e-11
3.99815e-11
3.94132e-11
3.88497e-11
3.82909e-11
3.77368e-11
3.71876e-11
3.66432e-11
3.61036e-11
3.55689e-11
3.50391e-11
3.45143e-11
3.39943e-11
3.34793e-11
3.29693e-11
3.24643e-11
3.19642e-11
3.14692e-11
3.09792e-11
3.04941e-11
3.00142e-11
2.95392e-11
2.90693e-11
2.86044e-11
2.81445e-11
2.76897e-11
2.72399e-11
2.67951e-11
2.63554e-11
2.59207e-11
2.54909e-11
2.50662e-11
2.46465e-11
2.42317e-11
2.38219e-11
2.34171e-11
2.30172e-11
2.26222e-11
2.22321e-11
2.18469e-11
2.14666e-11
2.10911e-11
2.07204e-11
2.03546e-11
1.99935e-11
1.96372e-11
1.92856e-11
1.89387e-11
1.85966e-11
1.8259e-11
1.79262e-11
1.75979e-11
1.72742e-11
1.6955e-11
1.66404e-11
1.63302e-11
1.60245e-11
1.57232e-11
1.54264e-11
1.51338e-11
1.48456e-11
1.45617e-11
1.42821e-11
1.40067e-11
1.37354e-11
1.34684e-11
1.32054e-11
1.29465e-11
1.26917e-11
1.24409e-11
1.2194e-11
1.19511e-11
1.17121e-11
1.1477e-11
1.12457e-11
1.10181e-11
1.07944e-11
1.05743e-11
1.03579e-11
1.01451e-11
9.93596e-12
9.73035e-12
9.52825e-12
9.32964e-12
9.13447e-12
8.94269e-12
8.75429e-12
8.5692e-12
8.38741e-12
8.20886e-12
8.03352e-12
7.86135e-12
7.69231e-12
7.52636e-12
7.36348e-12
7.20361e-12
7.04672e-12
6.89277e-12
6.74172e-12
6.59355e-12
6.4482e-12
6.30565e-12
6.16585e-12
6.02877e-12
5.89438e-12
5.76263e-12
5.63349e-12
5.50693e-12
5.38291e-12
5.2614e-12
5.14235e-12
5.02574e-12
4.91153e-12
4.79969e-12
4.69019e-12
4.58298e-12
4.47804e-12
4.37534e-12
4.27484e-12
4.17651e-12
4.08032e-12
3.98624e-12
3.89424e-12
3.80428e-12
3.71634e-12
3.63039e-12
3.54639e-12
3.46432e-12
3.38416e-12
3.30586e-12
3.22941e-12
3.15478e-12
3.08193e-12
3.01085e-12
2.94151e-12
2.87387e-12
2.80793e-12
2.74364e-12
2.681e-12
2.61996e-12
2.56051e-12
2.50263e-12
2.4463e-12
2.39148e-12
2.33817e-12
2.28633e-12
2.23595e-12
2.18701e-12
2.13948e-12
2.09335e-12
2.0486e-12
2.00521e-12
1.96315e-12
1.92243e-12
1.883e-12
1.84487e-12
1.80801e-12
1.77241e-12
1.73805e-12
1.70491e-12
1.67299e-12
1.64226e-12
1.61272e-12
1.58435e-12
1.55714e-12
1.53108e-12
1.50615e-12
1.48234e-12
1.45965e-12
1.43806e-12
1.41756e-12
1.39814e-12
1.3798e-12
1.36252e-12
1.3463e-12
1.33113e-12
1.31701e-12
1.30392e-12
1.29186e-12
1.28082e-12
1.27081e-12
1.26181e-12
1.25382e-12
1.24683e-12
1.24085e-12
1.23587e-12
1.23189e-12
1.22891e-12
1.22692e-12
1.22593e-12
1.86186e-12
5.58144e-12
9.28868e-12
1.29757e-11
1.6635e-11
2.02596e-11
2.3843e-11
2.73793e-11
3.0863e-11
3.42892e-11
3.76536e-11
4.09524e-11
4.41821e-11
4.73398e-11
5.04232e-11
5.34301e-11
5.63589e-11
5.92085e-11
6.19777e-11
6.46662e-11
6.72736e-11
6.97999e-11
7.22453e-11
7.46102e-11
7.68955e-11
7.91018e-11
8.12301e-11
8.32817e-11
8.52577e-11
8.71594e-11
8.89884e-11
9.07461e-11
9.24341e-11
9.4054e-11
9.56073e-11
9.70957e-11
9.8521e-11
9.98847e-11
1.01188e-10
1.02434e-10
1.03623e-10
1.04757e-10
1.05837e-10
1.06866e-10
1.07845e-10
1.08774e-10
1.09656e-10
1.10492e-10
1.11284e-10
1.12032e-10
1.12739e-10
1.13404e-10
1.1403e-10
1.14618e-10
1.15169e-10
1.15684e-10
1.16164e-10
1.16609e-10
1.17022e-10
1.17403e-10
1.17752e-10
1.18072e-10
1.18362e-10
1.18623e-10
1.18857e-10
1.19063e-10
1.19244e-10
1.19398e-10
1.19528e-10
1.19634e-10
1.19716e-10
1.19774e-10
1.19811e-10
1.19825e-10
1.19818e-10
1.1979e-10
1.19742e-10
1.19674e-10
1.19587e-10
1.19481e-10
1.19356e-10
1.19213e-10
1.19053e-10
1.18875e-10
1.1868e-10
1.18469e-10
1.18242e-10
1.17999e-10
1.17741e-10
1.17467e-10
1.17179e-10
1.16876e-10
1.16559e-10
1.16229e-10
1.15885e-10
1.15528e-10
1.15157e-10
1.14774e-10
1.14379e-10
1.13972e-10
1.13553e-10
1.13122e-10
1.1268e-10
1.12227e-10
1.11764e-10
1.11289e-10
1.10805e-10
1.1031e-10
1.09806e-10
1.09292e-10
1.08768e-10
1.08236e-10
1.07695e-10
1.07145e-10
1.06586e-10
1.0602e-10
1.05445e-10
1.04863e-10
1.04273e-10
1.03676e-10
1.03071e-10
1.0246e-10
1.01842e-10
1.01218e-10
1.00587e-10
9.99504e-11
9.93077e-11
9.86594e-11
9.80056e-11
9.73466e-11
9.66824e-11
9.60134e-11
9.53396e-11
9.46614e-11
9.39789e-11
9.32922e-11
9.26016e-11
9.19073e-11
9.12094e-11
9.05081e-11
8.98036e-11
8.90961e-11
8.83858e-11
8.76728e-11
8.69573e-11
8.62395e-11
8.55196e-11
8.47977e-11
8.4074e-11
8.33486e-11
8.26218e-11
8.18936e-11
8.11643e-11
8.0434e-11
7.97029e-11
7.89711e-11
7.82388e-11
7.75061e-11
7.67732e-11
7.60402e-11
7.53073e-11
7.45746e-11
7.38423e-11
7.31104e-11
7.23792e-11
7.16488e-11
7.09192e-11
7.01908e-11
6.94634e-11
6.87374e-11
6.80128e-11
6.72898e-11
6.65684e-11
6.58488e-11
6.51311e-11
6.44154e-11
6.37019e-11
6.29906e-11
6.22816e-11
6.15752e-11
6.08712e-11
6.017e-11
5.94715e-11
5.87759e-11
5.80832e-11
5.73936e-11
5.67072e-11
5.60239e-11
5.5344e-11
5.46675e-11
5.39945e-11
5.3325e-11
5.26592e-11
5.19971e-11
5.13388e-11
5.06844e-11
5.00339e-11
4.93874e-11
4.8745e-11
4.81068e-11
4.74727e-11
4.68428e-11
4.62173e-11
4.55961e-11
4.49794e-11
4.43671e-11
4.37594e-11
4.31562e-11
4.25576e-11
4.19636e-11
4.13744e-11
4.07899e-11
4.02101e-11
3.96352e-11
3.90651e-11
3.84998e-11
3.79395e-11
3.73841e-11
3.68336e-11
3.62881e-11
3.57476e-11
3.52121e-11
3.46817e-11
3.41563e-11
3.36359e-11
3.31207e-11
3.26105e-11
3.21055e-11
3.16055e-11
3.11107e-11
3.0621e-11
3.01365e-11
2.9657e-11
2.91827e-11
2.87136e-11
2.82496e-11
2.77907e-11
2.73369e-11
2.68883e-11
2.64448e-11
2.60064e-11
2.5573e-11
2.51448e-11
2.47217e-11
2.43036e-11
2.38906e-11
2.34826e-11
2.30796e-11
2.26816e-11
2.22886e-11
2.19006e-11
2.15175e-11
2.11394e-11
2.07661e-11
2.03977e-11
2.00342e-11
1.96755e-11
1.93217e-11
1.89726e-11
1.86282e-11
1.82886e-11
1.79537e-11
1.76234e-11
1.72978e-11
1.69768e-11
1.66604e-11
1.63485e-11
1.60411e-11
1.57383e-11
1.54398e-11
1.51458e-11
1.48562e-11
1.45709e-11
1.42899e-11
1.40132e-11
1.37407e-11
1.34724e-11
1.32083e-11
1.29483e-11
1.26924e-11
1.24406e-11
1.21928e-11
1.19489e-11
1.17091e-11
1.14731e-11
1.12409e-11
1.10126e-11
1.07881e-11
1.05673e-11
1.03503e-11
1.01369e-11
9.92709e-12
9.72091e-12
9.51828e-12
9.31916e-12
9.12351e-12
8.93129e-12
8.74247e-12
8.55699e-12
8.37483e-12
8.19595e-12
8.0203e-12
7.84784e-12
7.67854e-12
7.51236e-12
7.34926e-12
7.1892e-12
7.03214e-12
6.87804e-12
6.72687e-12
6.57858e-12
6.43314e-12
6.29052e-12
6.15067e-12
6.01356e-12
5.87915e-12
5.7474e-12
5.61828e-12
5.49175e-12
5.36778e-12
5.24633e-12
5.12736e-12
5.01084e-12
4.89674e-12
4.78502e-12
4.67565e-12
4.56859e-12
4.46381e-12
4.36127e-12
4.26096e-12
4.16282e-12
4.06684e-12
3.97298e-12
3.8812e-12
3.79148e-12
3.70379e-12
3.6181e-12
3.53437e-12
3.45258e-12
3.3727e-12
3.29471e-12
3.21856e-12
3.14425e-12
3.07173e-12
3.00098e-12
2.93198e-12
2.8647e-12
2.79912e-12
2.7352e-12
2.67293e-12
2.61229e-12
2.55324e-12
2.49576e-12
2.43984e-12
2.38544e-12
2.33256e-12
2.28116e-12
2.23123e-12
2.18274e-12
2.13568e-12
2.09002e-12
2.04575e-12
2.00285e-12
1.9613e-12
1.92108e-12
1.88217e-12
1.84457e-12
1.80825e-12
1.77319e-12
1.73938e-12
1.70682e-12
1.67547e-12
1.64533e-12
1.61639e-12
1.58863e-12
1.56204e-12
1.5366e-12
1.51231e-12
1.48916e-12
1.46713e-12
1.44622e-12
1.42641e-12
1.4077e-12
1.39007e-12
1.37352e-12
1.35805e-12
1.34363e-12
1.33028e-12
1.31798e-12
1.30672e-12
1.2965e-12
1.28732e-12
1.27917e-12
1.27204e-12
1.26594e-12
1.26086e-12
1.2568e-12
1.25376e-12
1.25173e-12
1.25072e-12
1.87488e-12
5.62072e-12
9.35484e-12
1.30697e-11
1.6758e-11
2.04129e-11
2.4028e-11
2.75975e-11
3.11158e-11
3.4578e-11
3.79797e-11
4.1317e-11
4.45863e-11
4.77847e-11
5.09094e-11
5.39585e-11
5.69301e-11
5.98228e-11
6.26355e-11
6.53677e-11
6.80188e-11
7.05888e-11
7.30776e-11
7.54858e-11
7.78139e-11
8.00625e-11
8.22326e-11
8.43253e-11
8.63417e-11
8.82831e-11
9.01509e-11
9.19466e-11
9.36715e-11
9.53274e-11
9.69158e-11
9.84382e-11
9.98965e-11
1.01292e-10
1.02627e-10
1.03902e-10
1.0512e-10
1.06282e-10
1.07389e-10
1.08443e-10
1.09446e-10
1.10399e-10
1.11304e-10
1.12162e-10
1.12974e-10
1.13742e-10
1.14467e-10
1.1515e-10
1.15793e-10
1.16397e-10
1.16963e-10
1.17492e-10
1.17985e-10
1.18444e-10
1.18869e-10
1.19261e-10
1.19621e-10
1.1995e-10
1.20249e-10
1.20519e-10
1.2076e-10
1.20974e-10
1.21161e-10
1.21321e-10
1.21456e-10
1.21567e-10
1.21653e-10
1.21715e-10
1.21755e-10
1.21772e-10
1.21768e-10
1.21742e-10
1.21695e-10
1.21628e-10
1.21541e-10
1.21435e-10
1.21309e-10
1.21166e-10
1.21004e-10
1.20825e-10
1.20629e-10
1.20415e-10
1.20186e-10
1.1994e-10
1.19678e-10
1.19401e-10
1.19109e-10
1.18802e-10
1.18481e-10
1.18146e-10
1.17797e-10
1.17435e-10
1.17059e-10
1.1667e-10
1.16269e-10
1.15856e-10
1.1543e-10
1.14993e-10
1.14544e-10
1.14084e-10
1.13613e-10
1.13131e-10
1.12639e-10
1.12137e-10
1.11624e-10
1.11102e-10
1.1057e-10
1.10029e-10
1.09479e-10
1.08921e-10
1.08353e-10
1.07777e-10
1.07193e-10
1.06602e-10
1.06002e-10
1.05395e-10
1.04781e-10
1.0416e-10
1.03532e-10
1.02897e-10
1.02256e-10
1.01609e-10
1.00956e-10
1.00297e-10
9.96322e-11
9.89623e-11
9.82872e-11
9.76072e-11
9.69223e-11
9.62329e-11
9.55391e-11
9.48411e-11
9.41391e-11
9.34333e-11
9.27239e-11
9.2011e-11
9.12949e-11
9.05757e-11
8.98536e-11
8.91288e-11
8.84014e-11
8.76718e-11
8.69399e-11
8.6206e-11
8.54703e-11
8.47329e-11
8.3994e-11
8.32538e-11
8.25124e-11
8.177e-11
8.10268e-11
8.02829e-11
7.95384e-11
7.87935e-11
7.80485e-11
7.73033e-11
7.65582e-11
7.58134e-11
7.50689e-11
7.43249e-11
7.35815e-11
7.2839e-11
7.20973e-11
7.13568e-11
7.06174e-11
6.98793e-11
6.91427e-11
6.84076e-11
6.76742e-11
6.69427e-11
6.62131e-11
6.54855e-11
6.47601e-11
6.4037e-11
6.33163e-11
6.25981e-11
6.18825e-11
6.11696e-11
6.04595e-11
5.97523e-11
5.90482e-11
5.83471e-11
5.76492e-11
5.69547e-11
5.62634e-11
5.55757e-11
5.48915e-11
5.42109e-11
5.35341e-11
5.2861e-11
5.21917e-11
5.15265e-11
5.08652e-11
5.02079e-11
4.95549e-11
4.8906e-11
4.82614e-11
4.76211e-11
4.69851e-11
4.63537e-11
4.57267e-11
4.51042e-11
4.44864e-11
4.38731e-11
4.32646e-11
4.26608e-11
4.20618e-11
4.14676e-11
4.08782e-11
4.02937e-11
3.97141e-11
3.91395e-11
3.85698e-11
3.80052e-11
3.74455e-11
3.6891e-11
3.63415e-11
3.57971e-11
3.52578e-11
3.47237e-11
3.41947e-11
3.36709e-11
3.31523e-11
3.26389e-11
3.21306e-11
3.16276e-11
3.11297e-11
3.06371e-11
3.01497e-11
2.96676e-11
2.91906e-11
2.87189e-11
2.82524e-11
2.77911e-11
2.7335e-11
2.68841e-11
2.64384e-11
2.59979e-11
2.55626e-11
2.51324e-11
2.47074e-11
2.42875e-11
2.38727e-11
2.3463e-11
2.30584e-11
2.26589e-11
2.22644e-11
2.1875e-11
2.14906e-11
2.11111e-11
2.07366e-11
2.03671e-11
2.00024e-11
1.96427e-11
1.92878e-11
1.89377e-11
1.85924e-11
1.8252e-11
1.79162e-11
1.75852e-11
1.72589e-11
1.69372e-11
1.66201e-11
1.63077e-11
1.59997e-11
1.56963e-11
1.53974e-11
1.5103e-11
1.48129e-11
1.45273e-11
1.4246e-11
1.3969e-11
1.36962e-11
1.34277e-11
1.31634e-11
1.29033e-11
1.26473e-11
1.23954e-11
1.21475e-11
1.19036e-11
1.16637e-11
1.14277e-11
1.11956e-11
1.09673e-11
1.07429e-11
1.05222e-11
1.03053e-11
1.0092e-11
9.88241e-12
9.67641e-12
9.47398e-12
9.27508e-12
9.07967e-12
8.88771e-12
8.69916e-12
8.51397e-12
8.33211e-12
8.15354e-12
7.97822e-12
7.80611e-12
7.63717e-12
7.47136e-12
7.30863e-12
7.14896e-12
6.99231e-12
6.83862e-12
6.68787e-12
6.54002e-12
6.39503e-12
6.25286e-12
6.11347e-12
5.97682e-12
5.84288e-12
5.71162e-12
5.58299e-12
5.45696e-12
5.33349e-12
5.21254e-12
5.09409e-12
4.97809e-12
4.86452e-12
4.75333e-12
4.64449e-12
4.53797e-12
4.43373e-12
4.33175e-12
4.23198e-12
4.1344e-12
4.03898e-12
3.94568e-12
3.85447e-12
3.76532e-12
3.67821e-12
3.59309e-12
3.50994e-12
3.42874e-12
3.34944e-12
3.27204e-12
3.19648e-12
3.12276e-12
3.05084e-12
2.98069e-12
2.9123e-12
2.84562e-12
2.78064e-12
2.71734e-12
2.65569e-12
2.59565e-12
2.53722e-12
2.48037e-12
2.42508e-12
2.37131e-12
2.31906e-12
2.2683e-12
2.219e-12
2.17116e-12
2.12474e-12
2.07974e-12
2.03612e-12
1.99388e-12
1.95299e-12
1.91344e-12
1.87521e-12
1.83829e-12
1.80265e-12
1.76828e-12
1.73517e-12
1.70331e-12
1.67267e-12
1.64324e-12
1.61502e-12
1.58799e-12
1.56213e-12
1.53744e-12
1.5139e-12
1.49151e-12
1.47025e-12
1.45011e-12
1.43108e-12
1.41316e-12
1.39634e-12
1.38061e-12
1.36596e-12
1.35238e-12
1.33987e-12
1.32843e-12
1.31804e-12
1.3087e-12
1.30042e-12
1.29318e-12
1.28697e-12
1.28181e-12
1.27768e-12
1.27459e-12
1.27253e-12
1.2715e-12
1.88557e-12
5.65294e-12
9.40902e-12
1.31465e-11
1.68583e-11
2.05377e-11
2.41784e-11
2.77746e-11
3.13207e-11
3.48118e-11
3.82434e-11
4.16115e-11
4.49125e-11
4.81433e-11
5.13013e-11
5.43841e-11
5.73898e-11
6.03171e-11
6.31647e-11
6.59318e-11
6.86179e-11
7.12228e-11
7.37466e-11
7.61894e-11
7.85517e-11
8.08343e-11
8.30379e-11
8.51636e-11
8.72124e-11
8.91856e-11
9.10846e-11
9.29106e-11
9.46653e-11
9.63501e-11
9.79666e-11
9.95164e-11
1.01001e-10
1.02423e-10
1.03782e-10
1.05081e-10
1.06322e-10
1.07506e-10
1.08635e-10
1.0971e-10
1.10733e-10
1.11705e-10
1.12628e-10
1.13503e-10
1.14331e-10
1.15115e-10
1.15855e-10
1.16553e-10
1.1721e-10
1.17827e-10
1.18405e-10
1.18945e-10
1.19449e-10
1.19918e-10
1.20352e-10
1.20753e-10
1.21122e-10
1.21459e-10
1.21765e-10
1.22042e-10
1.2229e-10