/*--------------------------------*- C++ -*----------------------------------*\
  =========                 |
  \\      /  F ield         | OpenFOAM: The Open Source CFD Toolbox
   \\    /   O peration     | Website:  https://openfoam.org
    \\  /    A nd           | Version:  10
     \\/     M anipulation  |
\*---------------------------------------------------------------------------*/
FoamFile
{
    format      ascii;
    class       volScalarField;
    location    "0.18";
    object      beta;
}
// * * * * * * * * * * * * * * * * * * * * * * * * * * * * * * * * * * * * * //

dimensions      [0 0 0 0 0 0 0];

internalField   uniform 0;

boundaryField
{
    frontAndBack
    {
        type            empty;
    }
    inlet
    {
        type            calculated;
        value           uniform 0;
    }
    outlet
    {
        type            calculated;
        value           uniform 0;
    }
    substrate
    {
        type            calculated;
        value           nonuniform List<scalar> 
400
(
0.00265397
0.002878
0.00309055
0.00329698
0.00349983
0.00370036
0.00389914
0.00409641
0.00429217
0.00448632
0.00467865
0.00486892
0.00505685
0.00524217
0.00542459
0.00560385
0.00577968
0.00595186
0.00612018
0.00628443
0.00644447
0.00660015
0.00675137
0.00689804
0.0070401
0.0071775
0.00731022
0.00743828
0.00756167
0.00768045
0.00779466
0.00790436
0.00800962
0.00811053
0.00820719
0.00829968
0.00838812
0.00847262
0.00855329
0.00863025
0.00870361
0.00877351
0.00884007
0.0089034
0.00896362
0.00902086
0.00907524
0.00912687
0.00917586
0.00922233
0.0092664
0.00930815
0.00934771
0.00938517
0.00942063
0.00945417
0.0094859
0.00951591
0.00954426
0.00957106
0.00959637
0.00962026
0.00964282
0.00966411
0.0096842
0.00970315
0.00972101
0.00973785
0.00975372
0.00976868
0.00978276
0.00979603
0.00980852
0.00982028
0.00983135
0.00984176
0.00985155
0.00986077
0.00986943
0.00987757
0.00988523
0.00989242
0.00989918
0.00990553
0.0099115
0.0099171
0.00992236
0.00992729
0.00993192
0.00993627
0.00994035
0.00994418
0.00994777
0.00995113
0.00995429
0.00995724
0.00996002
0.00996262
0.00996505
0.00996733
0.00996947
0.00997147
0.00997334
0.0099751
0.00997674
0.00997828
0.00997971
0.00998106
0.00998232
0.0099835
0.0099846
0.00998563
0.00998659
0.00998749
0.00998833
0.00998912
0.00998985
0.00999054
0.00999118
0.00999178
0.00999234
0.00999286
0.00999335
0.00999381
0.00999423
0.00999463
0.009995
0.00999534
0.00999566
0.00999596
0.00999624
0.00999651
0.00999675
0.00999698
0.00999719
0.00999738
0.00999757
0.00999774
0.0099979
0.00999805
0.00999818
0.00999831
0.00999843
0.00999854
0.00999865
0.00999874
0.00999883
0.00999892
0.009999
0.00999907
0.00999914
0.0099992
0.00999926
0.00999931
0.00999936
0.00999941
0.00999945
0.00999949
0.00999953
0.00999956
0.00999959
0.00999962
0.00999965
0.00999968
0.0099997
0.00999972
0.00999974
0.00999976
0.00999978
0.0099998
0.00999981
0.00999983
0.00999984
0.00999985
0.00999986
0.00999987
0.00999988
0.00999989
0.0099999
0.00999991
0.00999991
0.00999992
0.00999993
0.00999993
0.00999994
0.00999994
0.00999995
0.00999995
0.00999996
0.00999996
0.00999996
0.00999996
0.00999997
0.00999997
0.00999997
0.00999997
0.00999998
0.00999998
0.00999998
0.00999998
0.00999998
0.00999998
0.00999999
0.00999999
0.00999999
0.00999999
0.00999999
0.00999999
0.00999999
0.00999999
0.00999999
0.00999999
0.00999999
0.00999999
0.00999999
0.01
0.01
0.01
0.01
0.01
0.01
0.01
0.01
0.01
0.01
0.01
0.01
0.01
0.01
0.01
0.01
0.01
0.01
0.01
0.01
0.01
0.01
0.01
0.01
0.01
0.01
0.01
0.01
0.01
0.01
0.01
0.01
0.01
0.01
0.01
0.01
0.01
0.01
0.01
0.01
0.01
0.01
0.01
0.01
0.01
0.01
0.01
0.01
0.01
0.01
0.01
0.01
0.01
0.01
0.01
0.01
0.01
0.01
0.01
0.01
0.01
0.01
0.01
0.01
0.01
0.01
0.01
0.01
0.01
0.01
0.01
0.01
0.01
0.01
0.01
0.01
0.01
0.01
0.01
0.01
0.01
0.01
0.01
0.01
0.01
0.01
0.01
0.01
0.01
0.01
0.01
0.01
0.01
0.01
0.01
0.01
0.01
0.01
0.01
0.01
0.01
0.01
0.01
0.01
0.01
0.01
0.01
0.01
0.01
0.01
0.01
0.01
0.01
0.01
0.01
0.01
0.01
0.01
0.01
0.01
0.01
0.01
0.01
0.01
0.01
0.01
0.01
0.01
0.01
0.01
0.01
0.01
0.01
0.01
0.01
0.01
0.01
0.01
0.01
0.01
0.01
0.01
0.01
0.01
0.01
0.01
0.01
0.01
0.01
0.01
0.01
0.01
0.01
0.01
0.01
0.01
0.01
0.01
0.01
0.01
0.01
0.01
0.01
0.01
0.01
0.01
0.01
0.01
0.01
0.01
0.01
0.01
0.01
0.01
0.01
0.01
0.01
0.01
0.01
0.01
0.01
0.01
0.01
0.01
0.01
)
;
    }
    Wall
    {
        type            calculated;
        value           nonuniform List<scalar> 
400
(
0.00265397
0.00287801
0.00309054
0.00329697
0.00349983
0.00370036
0.00389914
0.00409641
0.00429218
0.00448633
0.00467865
0.00486892
0.00505685
0.00524217
0.00542458
0.00560384
0.00577967
0.00595184
0.00612015
0.0062844
0.00644444
0.00660012
0.00675134
0.006898
0.00704005
0.00717745
0.00731018
0.00743823
0.00756163
0.0076804
0.00779461
0.00790431
0.00800957
0.00811048
0.00820713
0.00829963
0.00838807
0.00847256
0.00855323
0.00863019
0.00870356
0.00877346
0.00884002
0.00890335
0.00896357
0.00902081
0.00907519
0.00912682
0.00917582
0.00922229
0.00926636
0.00930811
0.00934767
0.00938513
0.00942059
0.00945414
0.00948587
0.00951587
0.00954423
0.00957103
0.00959634
0.00962024
0.0096428
0.00966409
0.00968418
0.00970312
0.00972099
0.00973783
0.0097537
0.00976866
0.00978275
0.00979601
0.00980851
0.00982027
0.00983133
0.00984174
0.00985154
0.00986075
0.00986942
0.00987756
0.00988522
0.00989241
0.00989917
0.00990552
0.00991149
0.00991709
0.00992235
0.00992728
0.00993192
0.00993627
0.00994034
0.00994417
0.00994776
0.00995113
0.00995428
0.00995724
0.00996001
0.00996261
0.00996505
0.00996733
0.00996946
0.00997147
0.00997334
0.00997509
0.00997674
0.00997827
0.00997971
0.00998106
0.00998232
0.00998349
0.0099846
0.00998563
0.00998659
0.00998749
0.00998833
0.00998912
0.00998985
0.00999054
0.00999118
0.00999178
0.00999234
0.00999286
0.00999335
0.0099938
0.00999423
0.00999463
0.009995
0.00999534
0.00999566
0.00999596
0.00999624
0.00999651
0.00999675
0.00999698
0.00999719
0.00999738
0.00999757
0.00999774
0.0099979
0.00999805
0.00999818
0.00999831
0.00999843
0.00999854
0.00999865
0.00999874
0.00999883
0.00999892
0.009999
0.00999907
0.00999914
0.0099992
0.00999926
0.00999931
0.00999936
0.00999941
0.00999945
0.00999949
0.00999953
0.00999956
0.00999959
0.00999962
0.00999965
0.00999968
0.0099997
0.00999972
0.00999974
0.00999976
0.00999978
0.0099998
0.00999981
0.00999983
0.00999984
0.00999985
0.00999986
0.00999987
0.00999988
0.00999989
0.0099999
0.00999991
0.00999991
0.00999992
0.00999993
0.00999993
0.00999994
0.00999994
0.00999995
0.00999995
0.00999996
0.00999996
0.00999996
0.00999996
0.00999997
0.00999997
0.00999997
0.00999997
0.00999998
0.00999998
0.00999998
0.00999998
0.00999998
0.00999998
0.00999999
0.00999999
0.00999999
0.00999999
0.00999999
0.00999999
0.00999999
0.00999999
0.00999999
0.00999999
0.00999999
0.00999999
0.00999999
0.01
0.01
0.01
0.01
0.01
0.01
0.01
0.01
0.01
0.01
0.01
0.01
0.01
0.01
0.01
0.01
0.01
0.01
0.01
0.01
0.01
0.01
0.01
0.01
0.01
0.01
0.01
0.01
0.01
0.01
0.01
0.01
0.01
0.01
0.01
0.01
0.01
0.01
0.01
0.01
0.01
0.01
0.01
0.01
0.01
0.01
0.01
0.01
0.01
0.01
0.01
0.01
0.01
0.01
0.01
0.01
0.01
0.01
0.01
0.01
0.01
0.01
0.01
0.01
0.01
0.01
0.01
0.01
0.01
0.01
0.01
0.01
0.01
0.01
0.01
0.01
0.01
0.01
0.01
0.01
0.01
0.01
0.01
0.01
0.01
0.01
0.01
0.01
0.01
0.01
0.01
0.01
0.01
0.01
0.01
0.01
0.01
0.01
0.01
0.01
0.01
0.01
0.01
0.01
0.01
0.01
0.01
0.01
0.01
0.01
0.01
0.01
0.01
0.01
0.01
0.01
0.01
0.01
0.01
0.01
0.01
0.01
0.01
0.01
0.01
0.01
0.01
0.01
0.01
0.01
0.01
0.01
0.01
0.01
0.01
0.01
0.01
0.01
0.01
0.01
0.01
0.01
0.01
0.01
0.01
0.01
0.01
0.01
0.01
0.01
0.01
0.01
0.01
0.01
0.01
0.01
0.01
0.01
0.01
0.01
0.01
0.01
0.01
0.01
0.01
0.01
0.01
0.01
0.01
0.01
0.01
0.01
0.01
0.01
0.01
0.01
0.01
0.01
0.01
0.01
0.01
0.01
0.01
0.01
0.01
)
;
    }
}


// ************************************************************************* //
