/*--------------------------------*- C++ -*----------------------------------*\
  =========                 |
  \\      /  F ield         | OpenFOAM: The Open Source CFD Toolbox
   \\    /   O peration     | Website:  https://openfoam.org
    \\  /    A nd           | Version:  10
     \\/     M anipulation  |
\*---------------------------------------------------------------------------*/
FoamFile
{
    format      ascii;
    class       volScalarField;
    location    "0.18";
    object      Exp1;
}
// * * * * * * * * * * * * * * * * * * * * * * * * * * * * * * * * * * * * * //

dimensions      [0 0 0 0 0 0 0];

internalField   uniform 0;

boundaryField
{
    frontAndBack
    {
        type            empty;
    }
    inlet
    {
        type            calculated;
        value           uniform 0;
    }
    outlet
    {
        type            calculated;
        value           uniform 0;
    }
    substrate
    {
        type            calculated;
        value           nonuniform List<scalar> 
400
(
0.000118747
0.000355401
0.000589963
0.000821382
0.00104871
0.00127107
0.00148769
0.00169784
0.00190088
0.00209625
0.00228344
0.00246201
0.0026316
0.00279191
0.00294268
0.00308374
0.00321495
0.00333623
0.00344757
0.00354897
0.0036405
0.00372227
0.0037944
0.00385707
0.00391049
0.00395488
0.0039905
0.00401761
0.00403651
0.00404751
0.00405094
0.00404711
0.00403638
0.00401909
0.00399559
0.00396625
0.0039314
0.00389143
0.00384666
0.00379746
0.00374418
0.00368714
0.00362669
0.00356315
0.00349684
0.00342806
0.00335712
0.00328429
0.00320985
0.00313408
0.00305722
0.00297951
0.00290119
0.00282246
0.00274353
0.0026646
0.00258585
0.00250744
0.00242953
0.00235226
0.00227577
0.00220019
0.00212561
0.00205215
0.00197989
0.00190892
0.0018393
0.00177111
0.00170439
0.00163919
0.00157556
0.00151352
0.0014531
0.00139432
0.00133719
0.00128172
0.00122791
0.00117575
0.00112525
0.0010764
0.00102916
0.000983543
0.000939509
0.000897042
0.000856114
0.000816697
0.000778764
0.000742281
0.000707217
0.000673538
0.000641208
0.000610194
0.000580458
0.000551964
0.000524675
0.000498556
0.000473568
0.000449675
0.000426841
0.00040503
0.000384205
0.000364332
0.000345376
0.000327302
0.000310077
0.000293669
0.000278044
0.000263172
0.000249023
0.000235566
0.000222772
0.000210614
0.000199064
0.000188096
0.000177684
0.000167804
0.000158431
0.000149542
0.000141116
0.000133131
0.000125565
0.000118401
0.000111617
0.000105197
9.91218e-05
9.33753e-05
8.79412e-05
8.28039e-05
7.79487e-05
7.33612e-05
6.90281e-05
6.49362e-05
6.10733e-05
5.74273e-05
5.39872e-05
5.0742e-05
4.76816e-05
4.47961e-05
4.20762e-05
3.95131e-05
3.70983e-05
3.48238e-05
3.26819e-05
3.06654e-05
2.87674e-05
2.69814e-05
2.53011e-05
2.37206e-05
2.22343e-05
2.0837e-05
1.95236e-05
1.82894e-05
1.71298e-05
1.60405e-05
1.50175e-05
1.4057e-05
1.31554e-05
1.23092e-05
1.15152e-05
1.07703e-05
1.00716e-05
9.41645e-06
8.8022e-06
8.22644e-06
7.68686e-06
7.18129e-06
6.70769e-06
6.26411e-06
5.84875e-06
5.45989e-06
5.0959e-06
4.75527e-06
4.43656e-06
4.13842e-06
3.85957e-06
3.59883e-06
3.35506e-06
3.1272e-06
2.91426e-06
2.7153e-06
2.52944e-06
2.35585e-06
2.19375e-06
2.04242e-06
1.90115e-06
1.76932e-06
1.64631e-06
1.53156e-06
1.42453e-06
1.32473e-06
1.23168e-06
1.14494e-06
1.0641e-06
9.88783e-07
9.18615e-07
8.5326e-07
7.924e-07
7.35737e-07
6.82992e-07
6.33903e-07
5.88228e-07
5.45736e-07
5.06213e-07
4.6946e-07
4.35289e-07
4.03526e-07
3.74006e-07
3.46576e-07
3.21094e-07
2.97427e-07
2.75448e-07
2.55043e-07
2.36102e-07
2.18523e-07
2.02213e-07
1.87082e-07
1.73049e-07
1.60035e-07
1.47971e-07
1.36788e-07
1.26424e-07
1.16822e-07
1.07927e-07
9.96888e-08
9.20606e-08
8.49987e-08
7.84624e-08
7.24138e-08
6.68176e-08
6.16413e-08
5.68541e-08
5.24279e-08
4.83362e-08
4.45546e-08
4.10603e-08
3.78322e-08
3.48505e-08
3.20972e-08
2.95552e-08
2.72088e-08
2.50434e-08
2.30455e-08
2.12025e-08
1.95028e-08
1.79356e-08
1.64908e-08
1.51592e-08
1.39321e-08
1.28017e-08
1.17605e-08
1.08017e-08
9.91892e-09
9.10636e-09
8.35858e-09
7.67057e-09
7.03768e-09
6.45562e-09
5.92044e-09
5.42845e-09
4.97629e-09
4.5608e-09
4.1791e-09
3.82852e-09
3.5066e-09
3.21105e-09
2.93977e-09
2.69083e-09
2.46244e-09
2.25294e-09
2.06082e-09
1.88467e-09
1.72321e-09
1.57523e-09
1.43965e-09
1.31545e-09
1.2017e-09
1.09755e-09
1.0022e-09
9.14942e-10
8.35094e-10
7.62048e-10
6.95239e-10
6.34147e-10
5.78297e-10
5.27249e-10
4.80601e-10
4.37984e-10
3.99058e-10
3.63511e-10
3.31058e-10
3.01435e-10
2.74402e-10
2.49737e-10
2.2724e-10
2.06723e-10
1.88017e-10
1.70965e-10
1.55426e-10
1.41267e-10
1.28369e-10
1.16623e-10
1.05929e-10
9.6193e-11
8.73327e-11
7.92707e-11
7.19368e-11
6.52668e-11
5.9202e-11
5.36887e-11
4.86779e-11
4.41248e-11
3.99886e-11
3.6232e-11
3.28208e-11
2.97242e-11
2.69136e-11
2.43632e-11
2.20496e-11
1.99511e-11
1.80483e-11
1.63233e-11
1.47598e-11
1.3343e-11
1.20595e-11
1.08969e-11
9.84423e-12
8.8912e-12
8.0286e-12
7.24804e-12
6.54188e-12
5.90317e-12
5.3256e-12
4.80344e-12
4.33149e-12
3.90501e-12
3.51972e-12
3.17172e-12
2.85747e-12
2.57376e-12
2.31769e-12
2.08662e-12
1.87815e-12
1.69012e-12
1.52057e-12
1.36771e-12
1.22993e-12
1.10578e-12
9.93927e-13
8.93184e-13
8.02467e-13
7.20797e-13
6.47289e-13
5.81143e-13
5.21636e-13
4.68114e-13
4.19987e-13
3.7672e-13
3.37833e-13
3.0289e-13
2.71499e-13
2.43306e-13
2.1799e-13
1.95264e-13
1.74868e-13
1.56567e-13
1.4015e-13
1.25427e-13
1.12227e-13
1.00395e-13
8.97924e-14
8.02938e-14
7.17867e-14
6.417e-14
5.73527e-14
5.12528e-14
4.5797e-14
4.0919e-14
3.65597e-14
3.26658e-14
2.91895e-14
2.60882e-14
2.33234e-14
2.08609e-14
1.86699e-14
1.67231e-14
1.4996e-14
1.34669e-14
1.21164e-14
1.09275e-14
9.88492e-15
8.97541e-15
8.18733e-15
7.51055e-15
6.93636e-15
6.45734e-15
6.06731e-15
5.7612e-15
5.53503e-15
5.38586e-15
5.31175e-15
)
;
    }
    Wall
    {
        type            calculated;
        value           nonuniform List<scalar> 
400
(
0.000118747
0.000355403
0.00058997
0.000821393
0.00104872
0.00127108
0.0014877
0.00169784
0.00190088
0.00209624
0.00228342
0.00246199
0.00263157
0.00279187
0.00294263
0.00308368
0.00321488
0.00333616
0.00344749
0.00354888
0.0036404
0.00372216
0.00379429
0.00385696
0.00391037
0.00395475
0.00399036
0.00401747
0.00403637
0.00404737
0.00405079
0.00404696
0.00403622
0.00401893
0.00399544
0.00396609
0.00393125
0.00389127
0.00384651
0.00379731
0.00374402
0.00368699
0.00362654
0.00356301
0.00349669
0.00342792
0.00335698
0.00328415
0.00320972
0.00313395
0.00305709
0.00297939
0.00290107
0.00282234
0.00274342
0.0026645
0.00258575
0.00250734
0.00242943
0.00235217
0.00227569
0.0022001
0.00212553
0.00205207
0.00197982
0.00190885
0.00183924
0.00177105
0.00170433
0.00163914
0.00157551
0.00151347
0.00145305
0.00139427
0.00133715
0.00128168
0.00122787
0.00117572
0.00112522
0.00107637
0.00102914
0.000983516
0.000939484
0.000897018
0.000856092
0.000816677
0.000778745
0.000742264
0.000707201
0.000673522
0.000641194
0.000610181
0.000580446
0.000551953
0.000524665
0.000498546
0.000473559
0.000449667
0.000426834
0.000405023
0.000384199
0.000364327
0.000345371
0.000327297
0.000310073
0.000293665
0.000278041
0.000263169
0.00024902
0.000235563
0.00022277
0.000210612
0.000199062
0.000188094
0.000177683
0.000167802
0.000158429
0.000149541
0.000141115
0.00013313
0.000125565
0.0001184
0.000111617
0.000105196
9.91215e-05
9.33751e-05
8.7941e-05
8.28038e-05
7.79486e-05
7.33612e-05
6.90281e-05
6.49363e-05
6.10733e-05
5.74274e-05
5.39873e-05
5.07422e-05
4.76817e-05
4.47963e-05
4.20764e-05
3.95133e-05
3.70985e-05
3.4824e-05
3.26821e-05
3.06656e-05
2.87676e-05
2.69816e-05
2.53013e-05
2.37208e-05
2.22345e-05
2.08372e-05
1.95238e-05
1.82896e-05
1.71299e-05
1.60407e-05
1.50177e-05
1.40572e-05
1.31556e-05
1.23093e-05
1.15153e-05
1.07704e-05
1.00718e-05
9.41659e-06
8.80234e-06
8.22657e-06
7.68699e-06
7.18141e-06
6.7078e-06
6.26422e-06
5.84886e-06
5.45999e-06
5.096e-06
4.75536e-06
4.43665e-06
4.1385e-06
3.85966e-06
3.59891e-06
3.35513e-06
3.12727e-06
2.91433e-06
2.71537e-06
2.5295e-06
2.35591e-06
2.19381e-06
2.04247e-06
1.9012e-06
1.76937e-06
1.64636e-06
1.5316e-06
1.42457e-06
1.32476e-06
1.23171e-06
1.14497e-06
1.06414e-06
9.88813e-07
9.18643e-07
8.53287e-07
7.92425e-07
7.35761e-07
6.83014e-07
6.33925e-07
5.88248e-07
5.45755e-07
5.06231e-07
4.69477e-07
4.35305e-07
4.03541e-07
3.7402e-07
3.4659e-07
3.21107e-07
2.97438e-07
2.75459e-07
2.55053e-07
2.36112e-07
2.18533e-07
2.02222e-07
1.8709e-07
1.73056e-07
1.60043e-07
1.47977e-07
1.36794e-07
1.2643e-07
1.16827e-07
1.07932e-07
9.96936e-08
9.20651e-08
8.50029e-08
7.84663e-08
7.24174e-08
6.68211e-08
6.16445e-08
5.68571e-08
5.24307e-08
4.83388e-08
4.45571e-08
4.10626e-08
3.78343e-08
3.48525e-08
3.2099e-08
2.95569e-08
2.72104e-08
2.50449e-08
2.30469e-08
2.12038e-08
1.9504e-08
1.79367e-08
1.64918e-08
1.51602e-08
1.39331e-08
1.28026e-08
1.17613e-08
1.08024e-08
9.9196e-09
9.10699e-09
8.35917e-09
7.67111e-09
7.03818e-09
6.45609e-09
5.92087e-09
5.42886e-09
4.97666e-09
4.56114e-09
4.17942e-09
3.82882e-09
3.50687e-09
3.2113e-09
2.94001e-09
2.69105e-09
2.46264e-09
2.25313e-09
2.06099e-09
1.88483e-09
1.72335e-09
1.57537e-09
1.43977e-09
1.31556e-09
1.20181e-09
1.09765e-09
1.00229e-09
9.15026e-10
8.35172e-10
7.6212e-10
6.95305e-10
6.34208e-10
5.78353e-10
5.27301e-10
4.80649e-10
4.38028e-10
3.99098e-10
3.63548e-10
3.31092e-10
3.01466e-10
2.7443e-10
2.49764e-10
2.27264e-10
2.06745e-10
1.88037e-10
1.70984e-10
1.55443e-10
1.41283e-10
1.28384e-10
1.16637e-10
1.05941e-10
9.62042e-11
8.73429e-11
7.92801e-11
7.19454e-11
6.52747e-11
5.92092e-11
5.36953e-11
4.86839e-11
4.41303e-11
3.99937e-11
3.62366e-11
3.28251e-11
2.9728e-11
2.69171e-11
2.43665e-11
2.20525e-11
1.99538e-11
1.80508e-11
1.63255e-11
1.47618e-11
1.33448e-11
1.20612e-11
1.08985e-11
9.84564e-12
8.89248e-12
8.02977e-12
7.24911e-12
6.54285e-12
5.90405e-12
5.3264e-12
4.80417e-12
4.33215e-12
3.90562e-12
3.52027e-12
3.17222e-12
2.85792e-12
2.57417e-12
2.31807e-12
2.08696e-12
1.87846e-12
1.6904e-12
1.52082e-12
1.36794e-12
1.23014e-12
1.10597e-12
9.94098e-13
8.93339e-13
8.02608e-13
7.20924e-13
6.47404e-13
5.81248e-13
5.21731e-13
4.682e-13
4.20064e-13
3.7679e-13
3.37896e-13
3.02947e-13
2.71551e-13
2.43352e-13
2.18032e-13
1.95302e-13
1.74902e-13
1.56598e-13
1.40178e-13
1.25453e-13
1.1225e-13
1.00416e-13
8.98108e-14
8.03104e-14
7.18017e-14
6.41835e-14
5.73648e-14
5.12637e-14
4.58067e-14
4.09278e-14
3.65676e-14
3.26729e-14
2.9196e-14
2.6094e-14
2.33286e-14
2.08655e-14
1.86741e-14
1.67268e-14
1.49994e-14
1.34699e-14
1.21192e-14
1.093e-14
9.88715e-15
8.97744e-15
8.18918e-15
7.51225e-15
6.93793e-15
6.45882e-15
6.06871e-15
5.76254e-15
5.53627e-15
5.38687e-15
5.3126e-15
)
;
    }
}


// ************************************************************************* //
