/*--------------------------------*- C++ -*----------------------------------*\
  =========                 |
  \\      /  F ield         | OpenFOAM: The Open Source CFD Toolbox
   \\    /   O peration     | Website:  https://openfoam.org
    \\  /    A nd           | Version:  10
     \\/     M anipulation  |
\*---------------------------------------------------------------------------*/
FoamFile
{
    format      ascii;
    class       volScalarField;
    location    "0.18";
    object      growth;
}
// * * * * * * * * * * * * * * * * * * * * * * * * * * * * * * * * * * * * * //

dimensions      [0 0 0 0 0 0 0];

internalField   uniform 0;

boundaryField
{
    frontAndBack
    {
        type            empty;
    }
    inlet
    {
        type            calculated;
        value           uniform 0;
    }
    outlet
    {
        type            calculated;
        value           uniform 0;
    }
    substrate
    {
        type            calculated;
        value           nonuniform List<scalar> 
400
(
0.734603
0.7122
0.690945
0.670302
0.650017
0.629964
0.610086
0.590359
0.570783
0.551368
0.532135
0.513108
0.494315
0.475783
0.457541
0.439615
0.422032
0.404814
0.387982
0.371557
0.355553
0.339985
0.324863
0.310196
0.29599
0.28225
0.268978
0.256172
0.243833
0.231955
0.220534
0.209564
0.199038
0.188947
0.179281
0.170032
0.161188
0.152738
0.144671
0.136975
0.129639
0.122649
0.115993
0.10966
0.103638
0.0979139
0.0924763
0.0873135
0.082414
0.0777666
0.0733603
0.0691845
0.0652288
0.061483
0.0579374
0.0545827
0.0514096
0.0484095
0.0455738
0.0428944
0.0403635
0.0379736
0.0357176
0.0335886
0.0315799
0.0296854
0.0278989
0.0262149
0.0246277
0.0231323
0.0217236
0.0203969
0.0191478
0.017972
0.0168654
0.0158241
0.0148446
0.0139234
0.0130571
0.0122427
0.0114772
0.0107578
0.0100818
0.00944682
0.00885041
0.00829034
0.0077645
0.00727087
0.00680758
0.00637283
0.00596493
0.00558229
0.00522341
0.00488687
0.00457132
0.00427552
0.00399826
0.00373844
0.00349498
0.0032669
0.00305326
0.00285317
0.00266581
0.00249039
0.00232618
0.00217249
0.00202866
0.00189408
0.00176817
0.0016504
0.00154025
0.00143725
0.00134094
0.00125092
0.00116676
0.00108812
0.00101463
0.000945973
0.000881835
0.000821929
0.000765984
0.000713745
0.000664975
0.000619449
0.000576958
0.000537305
0.000500306
0.000465788
0.00043359
0.00040356
0.000375556
0.000349446
0.000325104
0.000302414
0.000281268
0.000261563
0.000243203
0.000226099
0.000210167
0.00019533
0.000181514
0.000168651
0.000156676
0.00014553
0.000135158
0.000125506
0.000116526
0.000108173
0.000100404
9.31788e-05
8.64608e-05
8.02153e-05
7.44098e-05
6.90141e-05
6.40001e-05
5.93414e-05
5.50135e-05
5.09935e-05
4.72601e-05
4.37934e-05
4.05748e-05
3.7587e-05
3.48138e-05
3.22403e-05
2.98524e-05
2.76371e-05
2.55822e-05
2.36764e-05
2.19092e-05
2.02707e-05
1.87517e-05
1.73439e-05
1.60392e-05
1.48303e-05
1.37104e-05
1.2673e-05
1.17122e-05
1.08225e-05
9.99877e-06
9.23626e-06
8.53052e-06
7.87742e-06
7.27314e-06
6.71411e-06
6.19703e-06
5.71884e-06
5.27667e-06
4.86789e-06
4.49002e-06
4.1408e-06
3.81811e-06
3.51997e-06
3.24456e-06
2.99021e-06
2.75532e-06
2.53846e-06
2.33826e-06
2.15349e-06
1.98298e-06
1.82566e-06
1.68053e-06
1.54667e-06
1.42323e-06
1.30941e-06
1.20449e-06
1.10778e-06
1.01866e-06
9.3654e-07
8.60891e-07
7.91215e-07
7.27049e-07
6.67968e-07
6.1358e-07
5.6352e-07
5.17452e-07
4.75065e-07
4.36073e-07
4.00209e-07
3.67228e-07
3.36904e-07
3.09029e-07
2.83409e-07
2.59865e-07
2.38234e-07
2.18364e-07
2.00114e-07
1.83356e-07
1.6797e-07
1.53848e-07
1.40886e-07
1.28993e-07
1.18082e-07
1.08074e-07
9.88951e-08
9.04794e-08
8.27643e-08
7.5693e-08
6.92128e-08
6.32755e-08
5.78366e-08
5.28553e-08
4.82939e-08
4.41177e-08
4.02951e-08
3.67966e-08
3.35955e-08
3.06671e-08
2.79885e-08
2.5539e-08
2.32994e-08
2.12522e-08
1.93811e-08
1.76713e-08
1.61092e-08
1.46824e-08
1.33793e-08
1.21896e-08
1.11035e-08
1.01121e-08
9.20753e-09
8.3822e-09
7.62936e-09
6.94278e-09
6.31674e-09
5.74602e-09
5.22583e-09
4.7518e-09
4.31992e-09
3.92651e-09
3.56822e-09
3.24198e-09
2.94498e-09
2.67466e-09
2.42866e-09
2.20485e-09
2.00127e-09
1.81612e-09
1.64776e-09
1.49472e-09
1.35561e-09
1.22921e-09
1.11436e-09
1.01004e-09
9.15305e-10
8.29284e-10
7.51196e-10
6.80322e-10
6.16009e-10
5.57663e-10
5.0474e-10
4.56746e-10
4.13231e-10
3.73785e-10
3.38035e-10
3.05642e-10
2.76296e-10
2.49716e-10
2.25647e-10
2.03855e-10
1.8413e-10
1.66279e-10
1.50128e-10
1.35517e-10
1.22303e-10
1.10354e-10
9.95519e-11
8.97885e-11
8.09657e-11
7.29946e-11
6.57945e-11
5.92921e-11
5.34212e-11
4.81214e-11
4.33383e-11
3.90225e-11
3.5129e-11
3.16173e-11
2.84506e-11
2.55957e-11
2.30224e-11
2.07034e-11
1.8614e-11
1.6732e-11
1.5037e-11
1.35108e-11
1.2137e-11
1.09005e-11
9.78794e-12
8.78702e-12
7.88677e-12
7.07723e-12
6.34942e-12
5.69524e-12
5.10735e-12
4.57917e-12
4.10472e-12
3.67864e-12
3.29607e-12
2.95265e-12
2.64444e-12
2.36788e-12
2.11979e-12
1.89728e-12
1.69776e-12
1.51889e-12
1.35857e-12
1.2149e-12
1.08619e-12
9.70909e-13
8.6767e-13
7.75239e-13
6.92503e-13
6.18462e-13
5.52215e-13
4.92957e-13
4.39961e-13
3.92577e-13
3.50219e-13
3.12363e-13
2.78538e-13
2.48322e-13
2.21336e-13
1.97239e-13
1.75728e-13
1.56529e-13
1.39398e-13
1.24116e-13
1.10487e-13
9.83339e-14
8.75005e-14
7.78458e-14
6.92438e-14
6.15818e-14
5.47592e-14
4.86857e-14
4.3281e-14
3.84732e-14
3.41979e-14
3.0398e-14
2.70224e-14
2.40253e-14
2.13661e-14
1.90088e-14
1.69211e-14
1.50744e-14
1.34433e-14
1.20053e-14
1.07404e-14
9.63124e-15
8.66223e-15
7.81986e-15
7.09234e-15
6.46945e-15
5.94242e-15
5.50381e-15
5.14742e-15
4.8682e-15
4.66219e-15
4.52645e-15
4.45905e-15
)
;
    }
    Wall
    {
        type            calculated;
        value           nonuniform List<scalar> 
400
(
0.734603
0.712199
0.690946
0.670303
0.650017
0.629964
0.610086
0.590359
0.570782
0.551367
0.532135
0.513108
0.494315
0.475783
0.457542
0.439616
0.422033
0.404816
0.387985
0.37156
0.355556
0.339988
0.324866
0.3102
0.295995
0.282255
0.268982
0.256177
0.243837
0.23196
0.220539
0.209569
0.199043
0.188952
0.179287
0.170037
0.161193
0.152744
0.144677
0.136981
0.129644
0.122654
0.115998
0.109665
0.103643
0.0979186
0.0924809
0.087318
0.0824184
0.0777709
0.0733645
0.0691885
0.0652326
0.0614867
0.0579411
0.0545862
0.051413
0.0484127
0.0455769
0.0428973
0.0403663
0.0379764
0.0357202
0.0335911
0.0315823
0.0296876
0.0279011
0.0262169
0.0246297
0.0231341
0.0217254
0.0203986
0.0191494
0.0179735
0.0168668
0.0158255
0.0148459
0.0139246
0.0130583
0.0122438
0.0114782
0.0107587
0.0100827
0.00944769
0.00885123
0.00829112
0.00776523
0.00727156
0.00680823
0.00637344
0.0059655
0.00558283
0.00522392
0.00488734
0.00457177
0.00427594
0.00399866
0.0037388
0.00349532
0.00326722
0.00305356
0.00285345
0.00266607
0.00249064
0.00232641
0.0021727
0.00202886
0.00189426
0.00176834
0.00165056
0.0015404
0.00143739
0.00134108
0.00125104
0.00116688
0.00108823
0.00101473
0.000946065
0.000881921
0.000822009
0.000766058
0.000713814
0.000665038
0.000619508
0.000577012
0.000537355
0.000500353
0.000465832
0.000433631
0.000403598
0.000375591
0.000349478
0.000325134
0.000302442
0.000281294
0.000261586
0.000243224
0.000226119
0.000210186
0.000195347
0.00018153
0.000168665
0.000156689
0.000145543
0.000135169
0.000125516
0.000116536
0.000108182
0.000100412
9.31866e-05
8.6468e-05
8.02219e-05
7.44159e-05
6.90197e-05
6.40052e-05
5.93461e-05
5.50179e-05
5.09976e-05
4.72639e-05
4.37969e-05
4.0578e-05
3.75899e-05
3.48165e-05
3.22428e-05
2.98547e-05
2.76392e-05
2.55841e-05
2.36782e-05
2.19108e-05
2.02722e-05
1.87531e-05
1.73452e-05
1.60404e-05
1.48314e-05
1.37114e-05
1.26739e-05
1.1713e-05
1.08233e-05
9.99949e-06
9.23692e-06
8.53112e-06
7.87798e-06
7.27365e-06
6.71458e-06
6.19747e-06
5.71924e-06
5.27704e-06
4.86822e-06
4.49033e-06
4.14109e-06
3.81837e-06
3.52021e-06
3.24479e-06
2.99041e-06
2.75551e-06
2.53863e-06
2.33842e-06
2.15364e-06
1.98312e-06
1.82579e-06
1.68065e-06
1.54678e-06
1.42333e-06
1.3095e-06
1.20457e-06
1.10785e-06
1.01873e-06
9.36603e-07
8.6095e-07
7.91269e-07
7.27098e-07
6.68014e-07
6.13622e-07
5.63559e-07
5.17488e-07
4.75098e-07
4.36103e-07
4.00236e-07
3.67254e-07
3.36928e-07
3.09051e-07
2.83428e-07
2.59883e-07
2.38251e-07
2.18379e-07
2.00128e-07
1.83369e-07
1.67983e-07
1.53859e-07
1.40896e-07
1.29002e-07
1.18091e-07
1.08082e-07
9.89025e-08
9.04862e-08
8.27706e-08
7.56987e-08
6.92181e-08
6.32803e-08
5.78411e-08
5.28594e-08
4.82976e-08
4.41212e-08
4.02983e-08
3.67996e-08
3.35982e-08
3.06696e-08
2.79908e-08
2.55411e-08
2.33014e-08
2.12539e-08
1.93827e-08
1.76728e-08
1.61106e-08
1.46836e-08
1.33805e-08
1.21906e-08
1.11044e-08
1.0113e-08
9.20835e-09
8.38296e-09
7.63006e-09
6.94341e-09
6.31732e-09
5.74655e-09
5.22633e-09
4.75225e-09
4.32033e-09
3.92689e-09
3.56857e-09
3.2423e-09
2.94527e-09
2.67493e-09
2.42891e-09
2.20508e-09
2.00147e-09
1.8163e-09
1.64794e-09
1.49487e-09
1.35576e-09
1.22934e-09
1.11448e-09
1.01015e-09
9.15405e-10
8.29376e-10
7.5128e-10
6.80399e-10
6.1608e-10
5.57727e-10
5.04798e-10
4.56799e-10
4.1328e-10
3.73829e-10
3.38076e-10
3.05679e-10
2.7633e-10
2.49747e-10
2.25675e-10
2.03881e-10
1.84153e-10
1.663e-10
1.50147e-10
1.35534e-10
1.22319e-10
1.10369e-10
9.95652e-11
8.98006e-11
8.09767e-11
7.30046e-11
6.58036e-11
5.93004e-11
5.34287e-11
4.81283e-11
4.33446e-11
3.90281e-11
3.51341e-11
3.16219e-11
2.84548e-11
2.55995e-11
2.30259e-11
2.07065e-11
1.86169e-11
1.67346e-11
1.50393e-11
1.3513e-11
1.21389e-11
1.09023e-11
9.78952e-12
8.78845e-12
7.88806e-12
7.0784e-12
6.35048e-12
5.6962e-12
5.10822e-12
4.57995e-12
4.10543e-12
3.67928e-12
3.29665e-12
2.95317e-12
2.64491e-12
2.36831e-12
2.12018e-12
1.89763e-12
1.69807e-12
1.51917e-12
1.35882e-12
1.21513e-12
1.0864e-12
9.71096e-13
8.67838e-13
7.75391e-13
6.9264e-13
6.18584e-13
5.52326e-13
4.93057e-13
4.40051e-13
3.92657e-13
3.50292e-13
3.12428e-13
2.78597e-13
2.48375e-13
2.21383e-13
1.97281e-13
1.75766e-13
1.56563e-13
1.39429e-13
1.24144e-13
1.10511e-13
9.8356e-14
8.75204e-14
7.78636e-14
6.92597e-14
6.15961e-14
5.4772e-14
4.86972e-14
4.32913e-14
3.84823e-14
3.42062e-14
3.04054e-14
2.70289e-14
2.40311e-14
2.13714e-14
1.90135e-14
1.69253e-14
1.50782e-14
1.34466e-14
1.20083e-14
1.07431e-14
9.63366e-15
8.6644e-15
7.82182e-15
7.09412e-15
6.47107e-15
5.94391e-15
5.5052e-15
5.14874e-15
4.86946e-15
4.66335e-15
4.5274e-15
4.45984e-15
)
;
    }
}


// ************************************************************************* //
