/*--------------------------------*- C++ -*----------------------------------*\
  =========                 |
  \\      /  F ield         | OpenFOAM: The Open Source CFD Toolbox
   \\    /   O peration     | Website:  https://openfoam.org
    \\  /    A nd           | Version:  10
     \\/     M anipulation  |
\*---------------------------------------------------------------------------*/
FoamFile
{
    format      ascii;
    class       volScalarField;
    location    "0.56";
    object      growth;
}
// * * * * * * * * * * * * * * * * * * * * * * * * * * * * * * * * * * * * * //

dimensions      [0 0 0 0 0 0 0];

internalField   uniform 0;

boundaryField
{
    frontAndBack
    {
        type            empty;
    }
    inlet
    {
        type            calculated;
        value           uniform 0;
    }
    outlet
    {
        type            calculated;
        value           uniform 0;
    }
    substrate
    {
        type            calculated;
        value           nonuniform List<scalar> 
400
(
0.734673
0.712425
0.691347
0.670899
0.650825
0.631001
0.611366
0.591896
0.572588
0.553452
0.534506
0.515774
0.497281
0.479053
0.461116
0.443497
0.426218
0.409302
0.392768
0.376634
0.360915
0.345622
0.330766
0.316355
0.302393
0.288885
0.27583
0.26323
0.251081
0.239379
0.22812
0.217296
0.206902
0.196927
0.187364
0.178201
0.16943
0.161039
0.153017
0.145352
0.138033
0.131048
0.124386
0.118035
0.111983
0.106218
0.100731
0.0955081
0.09054
0.0858156
0.0813246
0.0770566
0.0730021
0.0691513
0.065495
0.0620244
0.0587308
0.055606
0.0526418
0.0498307
0.0471653
0.0446384
0.0422434
0.0399737
0.0378231
0.0357856
0.0338556
0.0320276
0.0302965
0.0286574
0.0271054
0.0256362
0.0242454
0.0229291
0.0216833
0.0205043
0.0193887
0.0183331
0.0173344
0.0163895
0.0154957
0.0146502
0.0138504
0.013094
0.0123785
0.0117019
0.0110621
0.010457
0.00988476
0.0093437
0.0088321
0.00834837
0.00789101
0.0074586
0.00704978
0.00666329
0.0062979
0.00595248
0.00562594
0.00531726
0.00502547
0.00474964
0.00448892
0.00424246
0.00400951
0.00378932
0.0035812
0.00338449
0.00319856
0.00302283
0.00285673
0.00269975
0.00255138
0.00241116
0.00227863
0.00215337
0.002035
0.00192312
0.00181739
0.00171746
0.00162303
0.00153378
0.00144943
0.00136972
0.00129439
0.0012232
0.00115593
0.00109235
0.00103226
0.000975482
0.000921823
0.000871113
0.000823192
0.000777907
0.000735111
0.000694669
0.000656451
0.000620334
0.000586204
0.000553952
0.000523473
0.000494671
0.000467453
0.000441732
0.000417426
0.000394458
0.000372753
0.000352242
0.000332859
0.000314543
0.000297234
0.000280878
0.000265422
0.000250816
0.000237013
0.00022397
0.000211645
0.000199998
0.000188992
0.000178592
0.000168763
0.000159476
0.0001507
0.000142406
0.000134569
0.000127163
0.000120165
0.000113552
0.000107303
0.000101397
9.58169e-05
9.05436e-05
8.55605e-05
8.08517e-05
7.64019e-05
7.21971e-05
6.82236e-05
6.44688e-05
6.09207e-05
5.75678e-05
5.43994e-05
5.14054e-05
4.85762e-05
4.59027e-05
4.33763e-05
4.09889e-05
3.87329e-05
3.66011e-05
3.45866e-05
3.2683e-05
3.08841e-05
2.91843e-05
2.7578e-05
2.60601e-05
2.46257e-05
2.32703e-05
2.19894e-05
2.07791e-05
1.96354e-05
1.85546e-05
1.75333e-05
1.65682e-05
1.56563e-05
1.47945e-05
1.39801e-05
1.32106e-05
1.24834e-05
1.17963e-05
1.11469e-05
1.05333e-05
9.95351e-06
9.4056e-06
8.88785e-06
8.39859e-06
7.93626e-06
7.49937e-06
7.08654e-06
6.69642e-06
6.32778e-06
5.97943e-06
5.65025e-06
5.33919e-06
5.04525e-06
4.76749e-06
4.50501e-06
4.25699e-06
4.02262e-06
3.80115e-06
3.59186e-06
3.3941e-06
3.20723e-06
3.03064e-06
2.86377e-06
2.70608e-06
2.55708e-06
2.41628e-06
2.28323e-06
2.1575e-06
2.03869e-06
1.92643e-06
1.82034e-06
1.7201e-06
1.62537e-06
1.53586e-06
1.45127e-06
1.37134e-06
1.29582e-06
1.22445e-06
1.15701e-06
1.09328e-06
1.03306e-06
9.76156e-07
9.22385e-07
8.71575e-07
8.23563e-07
7.78194e-07
7.35322e-07
6.94812e-07
6.56532e-07
6.2036e-07
5.8618e-07
5.53882e-07
5.23362e-07
4.94523e-07
4.67272e-07
4.41522e-07
4.1719e-07
3.94198e-07
3.72472e-07
3.51943e-07
3.32544e-07
3.14214e-07
2.96893e-07
2.80527e-07
2.65062e-07
2.50449e-07
2.3664e-07
2.23593e-07
2.11264e-07
1.99614e-07
1.88607e-07
1.78205e-07
1.68377e-07
1.5909e-07
1.50315e-07
1.42024e-07
1.34189e-07
1.26786e-07
1.19791e-07
1.13181e-07
1.06936e-07
1.01035e-07
9.54593e-08
9.01909e-08
8.52128e-08
8.05092e-08
7.60648e-08
7.18655e-08
6.78977e-08
6.41487e-08
6.06064e-08
5.72594e-08
5.40969e-08
5.11089e-08
4.82857e-08
4.56182e-08
4.30978e-08
4.07165e-08
3.84665e-08
3.63407e-08
3.43321e-08
3.24344e-08
3.06414e-08
2.89473e-08
2.73468e-08
2.58346e-08
2.44058e-08
2.3056e-08
2.17806e-08
2.05757e-08
1.94373e-08
1.83618e-08
1.73457e-08
1.63858e-08
1.54788e-08
1.4622e-08
1.38125e-08
1.30478e-08
1.23253e-08
1.16428e-08
1.0998e-08
1.03889e-08
9.81349e-09
9.2699e-09
8.7564e-09
8.27131e-09
7.81308e-09
7.38023e-09
6.97135e-09
6.58513e-09
6.22031e-09
5.87573e-09
5.55026e-09
5.24284e-09
4.9525e-09
4.67828e-09
4.4193e-09
4.17472e-09
3.94375e-09
3.72564e-09
3.51969e-09
3.32522e-09
3.14161e-09
2.96825e-09
2.8046e-09
2.65012e-09
2.5043e-09
2.36667e-09
2.23679e-09
2.11424e-09
1.99862e-09
1.88954e-09
1.78666e-09
1.68965e-09
1.59818e-09
1.51196e-09
1.43071e-09
1.35416e-09
1.28207e-09
1.2142e-09
1.15032e-09
1.09024e-09
1.03376e-09
9.80683e-10
9.30848e-10
8.84087e-10
8.40251e-10
7.99194e-10
7.60783e-10
7.24893e-10
6.91406e-10
6.60214e-10
6.31213e-10
6.0431e-10
5.79417e-10
5.56451e-10
5.35339e-10
5.1601e-10
4.98402e-10
4.82457e-10
4.68122e-10
4.55352e-10
4.44104e-10
4.34341e-10
4.26031e-10
4.19148e-10
4.13668e-10
4.09574e-10
4.06851e-10
4.05493e-10
)
;
    }
    Wall
    {
        type            calculated;
        value           nonuniform List<scalar> 
400
(
0.734673
0.712424
0.691347
0.670899
0.650826
0.631001
0.611366
0.591895
0.572587
0.553451
0.534506
0.515774
0.497281
0.479053
0.461117
0.443498
0.42622
0.409304
0.392771
0.376637
0.360918
0.345625
0.33077
0.316359
0.302397
0.288889
0.275835
0.263234
0.251085
0.239384
0.228124
0.217301
0.206907
0.196932
0.187369
0.178207
0.169435
0.161044
0.153022
0.145357
0.138038
0.131053
0.124391
0.118039
0.111987
0.106223
0.100735
0.0955123
0.0905441
0.0858196
0.0813284
0.0770603
0.0730056
0.0691547
0.0654983
0.0620276
0.0587339
0.0556089
0.0526446
0.0498334
0.0471679
0.0446409
0.0422458
0.039976
0.0378252
0.0357877
0.0338575
0.0320295
0.0302983
0.028659
0.027107
0.0256377
0.0242469
0.0229304
0.0216845
0.0205055
0.0193898
0.0183342
0.0173354
0.0163905
0.0154966
0.014651
0.0138512
0.0130947
0.0123793
0.0117026
0.0110627
0.0104575
0.00988531
0.00934421
0.00883258
0.00834882
0.00789144
0.007459
0.00705016
0.00666363
0.00629823
0.00595278
0.00562623
0.00531753
0.00502571
0.00474987
0.00448913
0.00424266
0.0040097
0.0037895
0.00358136
0.00338464
0.0031987
0.00302295
0.00285685
0.00269986
0.00255148
0.00241125
0.00227871
0.00215345
0.00203507
0.00192319
0.00181745
0.00171752
0.00162308
0.00153383
0.00144948
0.00136977
0.00129443
0.00122324
0.00115596
0.00109238
0.00103229
0.000975508
0.000921847
0.000871136
0.000823213
0.000777925
0.000735128
0.000694684
0.000656465
0.000620347
0.000586216
0.000553963
0.000523483
0.00049468
0.000467461
0.00044174
0.000417433
0.000394464
0.000372758
0.000352247
0.000332864
0.000314547
0.000297238
0.000280882
0.000265425
0.000250819
0.000237016
0.000223973
0.000211648
0.0002
0.000188994
0.000178593
0.000168765
0.000159477
0.000150701
0.000142407
0.00013457
0.000127164
0.000120166
0.000113553
0.000107303
0.000101398
9.58174e-05
9.05441e-05
8.5561e-05
8.0852e-05
7.64023e-05
7.21974e-05
6.82239e-05
6.44691e-05
6.09209e-05
5.7568e-05
5.43996e-05
5.14056e-05
4.85763e-05
4.59028e-05
4.33764e-05
4.0989e-05
3.8733e-05
3.66012e-05
3.45867e-05
3.26831e-05
3.08842e-05
2.91843e-05
2.7578e-05
2.60601e-05
2.46257e-05
2.32703e-05
2.19895e-05
2.07791e-05
1.96354e-05
1.85546e-05
1.75333e-05
1.65682e-05
1.56563e-05
1.47945e-05
1.39801e-05
1.32106e-05
1.24834e-05
1.17963e-05
1.11469e-05
1.05333e-05
9.95352e-06
9.4056e-06
8.88785e-06
8.39859e-06
7.93626e-06
7.49937e-06
7.08654e-06
6.69642e-06
6.32778e-06
5.97942e-06
5.65025e-06
5.33919e-06
5.04525e-06
4.76749e-06
4.50501e-06
4.25699e-06
4.02262e-06
3.80114e-06
3.59186e-06
3.3941e-06
3.20723e-06
3.03064e-06
2.86377e-06
2.70608e-06
2.55708e-06
2.41628e-06
2.28323e-06
2.1575e-06
2.03869e-06
1.92643e-06
1.82034e-06
1.7201e-06
1.62537e-06
1.53586e-06
1.45127e-06
1.37134e-06
1.29582e-06
1.22445e-06
1.15701e-06
1.09328e-06
1.03306e-06
9.76156e-07
9.22385e-07
8.71575e-07
8.23562e-07
7.78193e-07
7.35322e-07
6.94812e-07
6.56532e-07
6.2036e-07
5.8618e-07
5.53881e-07
5.23362e-07
4.94523e-07
4.67272e-07
4.41522e-07
4.1719e-07
3.94198e-07
3.72472e-07
3.51943e-07
3.32544e-07
3.14214e-07
2.96893e-07
2.80527e-07
2.65062e-07
2.50449e-07
2.3664e-07
2.23593e-07
2.11264e-07
1.99614e-07
1.88607e-07
1.78205e-07
1.68377e-07
1.5909e-07
1.50315e-07
1.42024e-07
1.34189e-07
1.26786e-07
1.19791e-07
1.13181e-07
1.06936e-07
1.01035e-07
9.54593e-08
9.01909e-08
8.52128e-08
8.05092e-08
7.60648e-08
7.18655e-08
6.78977e-08
6.41487e-08
6.06064e-08
5.72594e-08
5.4097e-08
5.11089e-08
4.82857e-08
4.56182e-08
4.30978e-08
4.07165e-08
3.84665e-08
3.63407e-08
3.43321e-08
3.24344e-08
3.06414e-08
2.89473e-08
2.73468e-08
2.58346e-08
2.44058e-08
2.3056e-08
2.17806e-08
2.05757e-08
1.94373e-08
1.83618e-08
1.73457e-08
1.63858e-08
1.54788e-08
1.4622e-08
1.38125e-08
1.30478e-08
1.23253e-08
1.16428e-08
1.0998e-08
1.03889e-08
9.8135e-09
9.26991e-09
8.7564e-09
8.27131e-09
7.81308e-09
7.38023e-09
6.97135e-09
6.58513e-09
6.22032e-09
5.87573e-09
5.55026e-09
5.24285e-09
4.9525e-09
4.67828e-09
4.4193e-09
4.17472e-09
3.94375e-09
3.72564e-09
3.51969e-09
3.32522e-09
3.14161e-09
2.96826e-09
2.8046e-09
2.65012e-09
2.5043e-09
2.36667e-09
2.2368e-09
2.11424e-09
1.99862e-09
1.88954e-09
1.78666e-09
1.68965e-09
1.59818e-09
1.51196e-09
1.43071e-09
1.35416e-09
1.28207e-09
1.2142e-09
1.15032e-09
1.09024e-09
1.03376e-09
9.80684e-10
9.30849e-10
8.84089e-10
8.40252e-10
7.99195e-10
7.60784e-10
7.24894e-10
6.91407e-10
6.60215e-10
6.31214e-10
6.04311e-10
5.79418e-10
5.56452e-10
5.35339e-10
5.16011e-10
4.98402e-10
4.82457e-10
4.68123e-10
4.55353e-10
4.44104e-10
4.34342e-10
4.26032e-10
4.19149e-10
4.13669e-10
4.09574e-10
4.06852e-10
4.05493e-10
)
;
    }
}


// ************************************************************************* //
