/*--------------------------------*- C++ -*----------------------------------*\
  =========                 |
  \\      /  F ield         | OpenFOAM: The Open Source CFD Toolbox
   \\    /   O peration     | Website:  https://openfoam.org
    \\  /    A nd           | Version:  10
     \\/     M anipulation  |
\*---------------------------------------------------------------------------*/
FoamFile
{
    format      ascii;
    class       volScalarField;
    location    "0.84";
    object      Exp1;
}
// * * * * * * * * * * * * * * * * * * * * * * * * * * * * * * * * * * * * * //

dimensions      [0 0 0 0 0 0 0];

internalField   uniform 0;

boundaryField
{
    frontAndBack
    {
        type            empty;
    }
    inlet
    {
        type            calculated;
        value           uniform 0;
    }
    outlet
    {
        type            calculated;
        value           uniform 0;
    }
    substrate
    {
        type            calculated;
        value           nonuniform List<scalar> 
400
(
8.47727e-15
2.53873e-14
4.21942e-14
5.88522e-14
7.53224e-14
9.15705e-14
1.07567e-13
1.23284e-13
1.38701e-13
1.53796e-13
1.68554e-13
1.82961e-13
1.97005e-13
2.10677e-13
2.2397e-13
2.36881e-13
2.49406e-13
2.61544e-13
2.73296e-13
2.84664e-13
2.9565e-13
3.06259e-13
3.16496e-13
3.26367e-13
3.35878e-13
3.45037e-13
3.53851e-13
3.62328e-13
3.70477e-13
3.78305e-13
3.85822e-13
3.93036e-13
3.99955e-13
4.06589e-13
4.12947e-13
4.19036e-13
4.24865e-13
4.30443e-13
4.35777e-13
4.40876e-13
4.45747e-13
4.50397e-13
4.54835e-13
4.59067e-13
4.63099e-13
4.66939e-13
4.70593e-13
4.74066e-13
4.77366e-13
4.80497e-13
4.83466e-13
4.86277e-13
4.88935e-13
4.91446e-13
4.93813e-13
4.96042e-13
4.98137e-13
5.00101e-13
5.01939e-13
5.03655e-13
5.05252e-13
5.06733e-13
5.08102e-13
5.09362e-13
5.10516e-13
5.11567e-13
5.12517e-13
5.1337e-13
5.14128e-13
5.14793e-13
5.15368e-13
5.15855e-13
5.16256e-13
5.16572e-13
5.16807e-13
5.16962e-13
5.17039e-13
5.1704e-13
5.16965e-13
5.16818e-13
5.16599e-13
5.16311e-13
5.15954e-13
5.15529e-13
5.1504e-13
5.14485e-13
5.13868e-13
5.13189e-13
5.1245e-13
5.11651e-13
5.10794e-13
5.0988e-13
5.08909e-13
5.07884e-13
5.06805e-13
5.05673e-13
5.0449e-13
5.03255e-13
5.0197e-13
5.00637e-13
4.99255e-13
4.97826e-13
4.96351e-13
4.9483e-13
4.93265e-13
4.91656e-13
4.90004e-13
4.8831e-13
4.86575e-13
4.848e-13
4.82985e-13
4.81131e-13
4.79239e-13
4.7731e-13
4.75345e-13
4.73343e-13
4.71307e-13
4.69236e-13
4.67132e-13
4.64996e-13
4.62827e-13
4.60627e-13
4.58396e-13
4.56136e-13
4.53847e-13
4.51529e-13
4.49183e-13
4.46811e-13
4.44412e-13
4.41987e-13
4.39538e-13
4.37064e-13
4.34567e-13
4.32047e-13
4.29505e-13
4.26942e-13
4.24357e-13
4.21753e-13
4.19128e-13
4.16485e-13
4.13824e-13
4.11146e-13
4.0845e-13
4.05738e-13
4.03011e-13
4.00268e-13
3.97512e-13
3.94741e-13
3.91958e-13
3.89161e-13
3.86354e-13
3.83534e-13
3.80705e-13
3.77865e-13
3.75016e-13
3.72157e-13
3.69291e-13
3.66417e-13
3.63536e-13
3.60648e-13
3.57754e-13
3.54855e-13
3.51951e-13
3.49043e-13
3.46131e-13
3.43215e-13
3.40297e-13
3.37377e-13
3.34455e-13
3.31533e-13
3.28609e-13
3.25685e-13
3.22762e-13
3.1984e-13
3.16919e-13
3.14e-13
3.11083e-13
3.08169e-13
3.05259e-13
3.02352e-13
2.99449e-13
2.96551e-13
2.93658e-13
2.9077e-13
2.87888e-13
2.85013e-13
2.82144e-13
2.79282e-13
2.76428e-13
2.73582e-13
2.70744e-13
2.67915e-13
2.65095e-13
2.62284e-13
2.59483e-13
2.56692e-13
2.53912e-13
2.51142e-13
2.48384e-13
2.45636e-13
2.42901e-13
2.40178e-13
2.37466e-13
2.34768e-13
2.32083e-13
2.2941e-13
2.26751e-13
2.24106e-13
2.21475e-13
2.18858e-13
2.16256e-13
2.13668e-13
2.11095e-13
2.08537e-13
2.05995e-13
2.03469e-13
2.00958e-13
1.98463e-13
1.95984e-13
1.93522e-13
1.91076e-13
1.88647e-13
1.86235e-13
1.8384e-13
1.81462e-13
1.79102e-13
1.76758e-13
1.74433e-13
1.72125e-13
1.69835e-13
1.67563e-13
1.65309e-13
1.63074e-13
1.60856e-13
1.58657e-13
1.56477e-13
1.54315e-13
1.52171e-13
1.50046e-13
1.4794e-13
1.45853e-13
1.43785e-13
1.41735e-13
1.39705e-13
1.37693e-13
1.35701e-13
1.33727e-13
1.31773e-13
1.29837e-13
1.27921e-13
1.26024e-13
1.24146e-13
1.22287e-13
1.20447e-13
1.18626e-13
1.16824e-13
1.15042e-13
1.13278e-13
1.11534e-13
1.09808e-13
1.08101e-13
1.06414e-13
1.04745e-13
1.03095e-13
1.01464e-13
9.9851e-14
9.82572e-14
9.6682e-14
9.51253e-14
9.35872e-14
9.20675e-14
9.05661e-14
8.90831e-14
8.76182e-14
8.61715e-14
8.47428e-14
8.33321e-14
8.19393e-14
8.05643e-14
7.9207e-14
7.78673e-14
7.65452e-14
7.52405e-14
7.39531e-14
7.26829e-14
7.14298e-14
7.01938e-14
6.89747e-14
6.77723e-14
6.65867e-14
6.54177e-14
6.42651e-14
6.31289e-14
6.2009e-14
6.09052e-14
5.98174e-14
5.87455e-14
5.76893e-14
5.66489e-14
5.5624e-14
5.46145e-14
5.36203e-14
5.26412e-14
5.16772e-14
5.07282e-14
4.97939e-14
4.88743e-14
4.79693e-14
4.70787e-14
4.62024e-14
4.53403e-14
4.44922e-14
4.3658e-14
4.28377e-14
4.2031e-14
4.12379e-14
4.04582e-14
3.96917e-14
3.89385e-14
3.81983e-14
3.7471e-14
3.67565e-14
3.60547e-14
3.53654e-14
3.46886e-14
3.4024e-14
3.33717e-14
3.27314e-14
3.2103e-14
3.14865e-14
3.08816e-14
3.02884e-14
2.97066e-14
2.91362e-14
2.8577e-14
2.80289e-14
2.74919e-14
2.69657e-14
2.64504e-14
2.59457e-14
2.54516e-14
2.49679e-14
2.44946e-14
2.40316e-14
2.35787e-14
2.31358e-14
2.27029e-14
2.22799e-14
2.18665e-14
2.14629e-14
2.10688e-14
2.06841e-14
2.03088e-14
1.99428e-14
1.9586e-14
1.92383e-14
1.88996e-14
1.85698e-14
1.82489e-14
1.79367e-14
1.76333e-14
1.73384e-14
1.70521e-14
1.67742e-14
1.65047e-14
1.62436e-14
1.59907e-14
1.57459e-14
1.55093e-14
1.52807e-14
1.50601e-14
1.48475e-14
1.46427e-14
1.44457e-14
1.42565e-14
1.4075e-14
1.39012e-14
1.37349e-14
1.35762e-14
1.34251e-14
1.32814e-14
1.31452e-14
1.30163e-14
1.28948e-14
1.27807e-14
1.26738e-14
1.25742e-14
1.24818e-14
1.23967e-14
1.23187e-14
1.22479e-14
1.21842e-14
1.21276e-14
1.20782e-14
1.20358e-14
1.20005e-14
1.19723e-14
1.19512e-14
1.19371e-14
1.193e-14
)
;
    }
    Wall
    {
        type            calculated;
        value           nonuniform List<scalar> 
400
(
8.47729e-15
2.53874e-14
4.21942e-14
5.88523e-14
7.53225e-14
9.15707e-14
1.07567e-13
1.23284e-13
1.38701e-13
1.53796e-13
1.68554e-13
1.82961e-13
1.97005e-13
2.10677e-13
2.23971e-13
2.36881e-13
2.49406e-13
2.61544e-13
2.73296e-13
2.84664e-13
2.9565e-13
3.06259e-13
3.16496e-13
3.26367e-13
3.35878e-13
3.45037e-13
3.53851e-13
3.62328e-13
3.70476e-13
3.78305e-13
3.85821e-13
3.93035e-13
3.99955e-13
4.06589e-13
4.12947e-13
4.19036e-13
4.24865e-13
4.30443e-13
4.35777e-13
4.40876e-13
4.45746e-13
4.50397e-13
4.54834e-13
4.59066e-13
4.63098e-13
4.66938e-13
4.70592e-13
4.74066e-13
4.77365e-13
4.80497e-13
4.83465e-13
4.86276e-13
4.88934e-13
4.91445e-13
4.93812e-13
4.96041e-13
4.98136e-13
5.001e-13
5.01938e-13
5.03654e-13
5.05251e-13
5.06732e-13
5.08101e-13
5.09361e-13
5.10515e-13
5.11566e-13
5.12516e-13
5.13369e-13
5.14127e-13
5.14792e-13
5.15367e-13
5.15853e-13
5.16254e-13
5.16571e-13
5.16806e-13
5.16961e-13
5.17038e-13
5.17038e-13
5.16964e-13
5.16817e-13
5.16598e-13
5.16309e-13
5.15952e-13
5.15528e-13
5.15038e-13
5.14484e-13
5.13867e-13
5.13188e-13
5.12448e-13
5.11649e-13
5.10792e-13
5.09878e-13
5.08908e-13
5.07883e-13
5.06804e-13
5.05672e-13
5.04488e-13
5.03253e-13
5.01969e-13
5.00635e-13
4.99253e-13
4.97824e-13
4.96349e-13
4.94829e-13
4.93263e-13
4.91654e-13
4.90003e-13
4.88309e-13
4.86574e-13
4.84798e-13
4.82983e-13
4.8113e-13
4.79238e-13
4.77309e-13
4.75343e-13
4.73342e-13
4.71305e-13
4.69235e-13
4.67131e-13
4.64994e-13
4.62825e-13
4.60625e-13
4.58395e-13
4.56135e-13
4.53845e-13
4.51527e-13
4.49182e-13
4.46809e-13
4.4441e-13
4.41986e-13
4.39536e-13
4.37063e-13
4.34566e-13
4.32046e-13
4.29504e-13
4.2694e-13
4.24356e-13
4.21751e-13
4.19127e-13
4.16484e-13
4.13823e-13
4.11144e-13
4.08449e-13
4.05737e-13
4.03009e-13
4.00267e-13
3.9751e-13
3.9474e-13
3.91956e-13
3.8916e-13
3.86352e-13
3.83533e-13
3.80703e-13
3.77863e-13
3.75014e-13
3.72156e-13
3.6929e-13
3.66416e-13
3.63534e-13
3.60647e-13
3.57753e-13
3.54854e-13
3.5195e-13
3.49041e-13
3.46129e-13
3.43214e-13
3.40296e-13
3.37376e-13
3.34454e-13
3.31531e-13
3.28608e-13
3.25684e-13
3.22761e-13
3.19839e-13
3.16918e-13
3.13999e-13
3.11082e-13
3.08168e-13
3.05258e-13
3.02351e-13
2.99448e-13
2.9655e-13
2.93657e-13
2.90769e-13
2.87887e-13
2.85012e-13
2.82143e-13
2.79281e-13
2.76427e-13
2.73581e-13
2.70743e-13
2.67914e-13
2.65094e-13
2.62283e-13
2.59482e-13
2.56691e-13
2.53911e-13
2.51141e-13
2.48383e-13
2.45636e-13
2.429e-13
2.40177e-13
2.37466e-13
2.34767e-13
2.32082e-13
2.29409e-13
2.2675e-13
2.24105e-13
2.21474e-13
2.18857e-13
2.16255e-13
2.13667e-13
2.11094e-13
2.08537e-13
2.05995e-13
2.03468e-13
2.00957e-13
1.98462e-13
1.95984e-13
1.93521e-13
1.91076e-13
1.88647e-13
1.86234e-13
1.83839e-13
1.81461e-13
1.79101e-13
1.76758e-13
1.74432e-13
1.72125e-13
1.69835e-13
1.67563e-13
1.65309e-13
1.63073e-13
1.60856e-13
1.58657e-13
1.56476e-13
1.54314e-13
1.52171e-13
1.50046e-13
1.4794e-13
1.45853e-13
1.43784e-13
1.41735e-13
1.39704e-13
1.37693e-13
1.357e-13
1.33727e-13
1.31772e-13
1.29837e-13
1.27921e-13
1.26023e-13
1.24145e-13
1.22286e-13
1.20446e-13
1.18626e-13
1.16824e-13
1.15041e-13
1.13278e-13
1.11533e-13
1.09808e-13
1.08101e-13
1.06413e-13
1.04744e-13
1.03094e-13
1.01463e-13
9.98506e-14
9.82568e-14
9.66816e-14
9.5125e-14
9.35868e-14
9.20671e-14
9.05658e-14
8.90827e-14
8.76179e-14
8.61712e-14
8.47425e-14
8.33318e-14
8.1939e-14
8.0564e-14
7.92067e-14
7.78671e-14
7.65449e-14
7.52402e-14
7.39528e-14
7.26826e-14
7.14295e-14
7.01935e-14
6.89744e-14
6.77721e-14
6.65865e-14
6.54174e-14
6.42649e-14
6.31287e-14
6.20088e-14
6.09049e-14
5.98171e-14
5.87453e-14
5.76891e-14
5.66487e-14
5.56238e-14
5.46143e-14
5.36201e-14
5.2641e-14
5.1677e-14
5.0728e-14
4.97937e-14
4.88742e-14
4.79691e-14
4.70785e-14
4.62022e-14
4.53401e-14
4.4492e-14
4.36579e-14
4.28375e-14
4.20309e-14
4.12377e-14
4.0458e-14
3.96916e-14
3.89383e-14
3.81981e-14
3.74708e-14
3.67564e-14
3.60545e-14
3.53653e-14
3.46884e-14
3.40239e-14
3.33715e-14
3.27312e-14
3.21029e-14
3.14864e-14
3.08815e-14
3.02883e-14
2.97065e-14
2.91361e-14
2.85769e-14
2.80288e-14
2.74918e-14
2.69656e-14
2.64503e-14
2.59456e-14
2.54515e-14
2.49678e-14
2.44945e-14
2.40315e-14
2.35786e-14
2.31357e-14
2.27028e-14
2.22798e-14
2.18665e-14
2.14628e-14
2.10687e-14
2.0684e-14
2.03088e-14
1.99428e-14
1.95859e-14
1.92382e-14
1.88995e-14
1.85698e-14
1.82488e-14
1.79367e-14
1.76332e-14
1.73384e-14
1.7052e-14
1.67742e-14
1.65047e-14
1.62435e-14
1.59906e-14
1.57459e-14
1.55092e-14
1.52807e-14
1.50601e-14
1.48474e-14
1.46426e-14
1.44457e-14
1.42565e-14
1.4075e-14
1.39011e-14
1.37349e-14
1.35762e-14
1.3425e-14
1.32814e-14
1.31451e-14
1.30163e-14
1.28948e-14
1.27806e-14
1.26738e-14
1.25742e-14
1.24818e-14
1.23966e-14
1.23186e-14
1.22478e-14
1.21841e-14
1.21276e-14
1.20781e-14
1.20358e-14
1.20005e-14
1.19723e-14
1.19511e-14
1.1937e-14
1.193e-14
)
;
    }
}


// ************************************************************************* //
