/*--------------------------------*- C++ -*----------------------------------*\
  =========                 |
  \\      /  F ield         | OpenFOAM: The Open Source CFD Toolbox
   \\    /   O peration     | Website:  https://openfoam.org
    \\  /    A nd           | Version:  10
     \\/     M anipulation  |
\*---------------------------------------------------------------------------*/
FoamFile
{
    format      ascii;
    class       volScalarField;
    location    "1";
    object      Exp1;
}
// * * * * * * * * * * * * * * * * * * * * * * * * * * * * * * * * * * * * * //

dimensions      [0 0 0 0 0 0 0];

internalField   uniform 0;

boundaryField
{
    frontAndBack
    {
        type            empty;
    }
    inlet
    {
        type            calculated;
        value           uniform 0;
    }
    outlet
    {
        type            calculated;
        value           uniform 0;
    }
    substrate
    {
        type            calculated;
        value           nonuniform List<scalar> 
400
(
4.26067e-17
1.27598e-16
2.12072e-16
2.95803e-16
3.78596e-16
4.6028e-16
5.40706e-16
6.19744e-16
6.9728e-16
7.73217e-16
8.47473e-16
9.19978e-16
9.90678e-16
1.05953e-15
1.1265e-15
1.19156e-15
1.25471e-15
1.31593e-15
1.37524e-15
1.43264e-15
1.48815e-15
1.54179e-15
1.59359e-15
1.64357e-15
1.69178e-15
1.73824e-15
1.783e-15
1.8261e-15
1.86757e-15
1.90747e-15
1.94583e-15
1.9827e-15
2.01812e-15
2.05214e-15
2.0848e-15
2.11615e-15
2.14622e-15
2.17506e-15
2.20271e-15
2.22922e-15
2.25461e-15
2.27892e-15
2.3022e-15
2.32448e-15
2.3458e-15
2.36617e-15
2.38565e-15
2.40426e-15
2.42203e-15
2.43898e-15
2.45515e-15
2.47057e-15
2.48525e-15
2.49922e-15
2.5125e-15
2.52513e-15
2.53711e-15
2.54847e-15
2.55923e-15
2.56941e-15
2.57902e-15
2.58808e-15
2.59662e-15
2.60463e-15
2.61215e-15
2.61917e-15
2.62573e-15
2.63182e-15
2.63747e-15
2.64268e-15
2.64746e-15
2.65183e-15
2.6558e-15
2.65937e-15
2.66256e-15
2.66538e-15
2.66783e-15
2.66992e-15
2.67166e-15
2.67305e-15
2.67411e-15
2.67485e-15
2.67526e-15
2.67536e-15
2.67515e-15
2.67464e-15
2.67383e-15
2.67273e-15
2.67135e-15
2.66968e-15
2.66774e-15
2.66553e-15
2.66306e-15
2.66032e-15
2.65733e-15
2.65409e-15
2.65059e-15
2.64686e-15
2.64289e-15
2.63868e-15
2.63424e-15
2.62957e-15
2.62467e-15
2.61956e-15
2.61423e-15
2.60869e-15
2.60293e-15
2.59697e-15
2.59081e-15
2.58444e-15
2.57788e-15
2.57113e-15
2.56418e-15
2.55705e-15
2.54973e-15
2.54223e-15
2.53455e-15
2.5267e-15
2.51867e-15
2.51047e-15
2.50211e-15
2.49358e-15
2.4849e-15
2.47605e-15
2.46705e-15
2.45789e-15
2.44859e-15
2.43913e-15
2.42953e-15
2.4198e-15
2.40992e-15
2.3999e-15
2.38975e-15
2.37947e-15
2.36907e-15
2.35853e-15
2.34788e-15
2.3371e-15
2.3262e-15
2.31519e-15
2.30407e-15
2.29284e-15
2.2815e-15
2.27006e-15
2.25851e-15
2.24686e-15
2.23512e-15
2.22328e-15
2.21135e-15
2.19933e-15
2.18722e-15
2.17503e-15
2.16276e-15
2.15041e-15
2.13798e-15
2.12548e-15
2.1129e-15
2.10025e-15
2.08754e-15
2.07476e-15
2.06192e-15
2.04903e-15
2.03607e-15
2.02306e-15
2.00999e-15
1.99688e-15
1.98371e-15
1.9705e-15
1.95725e-15
1.94396e-15
1.93062e-15
1.91725e-15
1.90385e-15
1.89041e-15
1.87695e-15
1.86345e-15
1.84993e-15
1.83639e-15
1.82282e-15
1.80924e-15
1.79564e-15
1.78202e-15
1.76839e-15
1.75475e-15
1.7411e-15
1.72745e-15
1.71379e-15
1.70012e-15
1.68646e-15
1.6728e-15
1.65914e-15
1.64548e-15
1.63183e-15
1.61819e-15
1.60456e-15
1.59094e-15
1.57734e-15
1.56375e-15
1.55018e-15
1.53663e-15
1.5231e-15
1.50959e-15
1.49611e-15
1.48265e-15
1.46922e-15
1.45581e-15
1.44244e-15
1.4291e-15
1.4158e-15
1.40253e-15
1.38929e-15
1.3761e-15
1.36294e-15
1.34982e-15
1.33675e-15
1.32372e-15
1.31073e-15
1.2978e-15
1.2849e-15
1.27206e-15
1.25927e-15
1.24652e-15
1.23383e-15
1.2212e-15
1.20862e-15
1.19609e-15
1.18362e-15
1.17121e-15
1.15885e-15
1.14656e-15
1.13433e-15
1.12216e-15
1.11005e-15
1.09801e-15
1.08603e-15
1.07411e-15
1.06226e-15
1.05048e-15
1.03877e-15
1.02713e-15
1.01555e-15
1.00405e-15
9.92612e-16
9.8125e-16
9.6996e-16
9.58743e-16
9.47599e-16
9.3653e-16
9.25535e-16
9.14616e-16
9.03772e-16
8.93005e-16
8.82315e-16
8.71702e-16
8.61167e-16
8.5071e-16
8.40332e-16
8.30033e-16
8.19813e-16
8.09673e-16
7.99613e-16
7.89634e-16
7.79736e-16
7.69918e-16
7.60182e-16
7.50528e-16
7.40956e-16
7.31465e-16
7.22057e-16
7.12732e-16
7.03489e-16
6.94328e-16
6.85251e-16
6.76257e-16
6.67346e-16
6.58518e-16
6.49774e-16
6.41113e-16
6.32535e-16
6.24041e-16
6.15631e-16
6.07304e-16
5.9906e-16
5.909e-16
5.82824e-16
5.74831e-16
5.66921e-16
5.59094e-16
5.51351e-16
5.43691e-16
5.36114e-16
5.2862e-16
5.21208e-16
5.13879e-16
5.06633e-16
4.99469e-16
4.92387e-16
4.85388e-16
4.7847e-16
4.71634e-16
4.64879e-16
4.58205e-16
4.51613e-16
4.45101e-16
4.3867e-16
4.32319e-16
4.26048e-16
4.19858e-16
4.13746e-16
4.07714e-16
4.01762e-16
3.95888e-16
3.90092e-16
3.84375e-16
3.78735e-16
3.73174e-16
3.6769e-16
3.62282e-16
3.56952e-16
3.51698e-16
3.4652e-16
3.41418e-16
3.36391e-16
3.3144e-16
3.26564e-16
3.21762e-16
3.17034e-16
3.1238e-16
3.078e-16
3.03293e-16
2.98859e-16
2.94498e-16
2.90209e-16
2.85991e-16
2.81846e-16
2.77771e-16
2.73768e-16
2.69835e-16
2.65973e-16
2.6218e-16
2.58457e-16
2.54804e-16
2.51219e-16
2.47703e-16
2.44256e-16
2.40876e-16
2.37564e-16
2.3432e-16
2.31142e-16
2.28032e-16
2.24988e-16
2.2201e-16
2.19098e-16
2.16252e-16
2.1347e-16
2.10754e-16
2.08103e-16
2.05516e-16
2.02994e-16
2.00535e-16
1.9814e-16
1.95808e-16
1.93539e-16
1.91334e-16
1.89191e-16
1.8711e-16
1.85092e-16
1.83135e-16
1.8124e-16
1.79407e-16
1.77635e-16
1.75924e-16
1.74274e-16
1.72685e-16
1.71156e-16
1.69687e-16
1.68279e-16
1.66931e-16
1.65642e-16
1.64413e-16
1.63244e-16
1.62133e-16
1.61083e-16
1.60091e-16
1.59158e-16
1.58284e-16
1.57469e-16
1.56712e-16
1.56014e-16
1.55375e-16
1.54793e-16
1.54271e-16
1.53806e-16
1.534e-16
1.53051e-16
1.52761e-16
1.52529e-16
1.52355e-16
1.52239e-16
1.52181e-16
)
;
    }
    Wall
    {
        type            calculated;
        value           nonuniform List<scalar> 
400
(
4.26068e-17
1.27598e-16
2.12072e-16
2.95804e-16
3.78596e-16
4.60281e-16
5.40707e-16
6.19745e-16
6.97281e-16
7.73218e-16
8.47474e-16
9.19979e-16
9.90678e-16
1.05953e-15
1.1265e-15
1.19156e-15
1.25471e-15
1.31593e-15
1.37524e-15
1.43264e-15
1.48815e-15
1.54179e-15
1.59359e-15
1.64357e-15
1.69178e-15
1.73824e-15
1.783e-15
1.8261e-15
1.86757e-15
1.90746e-15
1.94582e-15
1.98269e-15
2.01812e-15
2.05214e-15
2.0848e-15
2.11615e-15
2.14622e-15
2.17506e-15
2.20271e-15
2.22921e-15
2.2546e-15
2.27892e-15
2.3022e-15
2.32448e-15
2.34579e-15
2.36617e-15
2.38565e-15
2.40426e-15
2.42202e-15
2.43898e-15
2.45515e-15
2.47056e-15
2.48524e-15
2.49921e-15
2.5125e-15
2.52512e-15
2.53711e-15
2.54847e-15
2.55923e-15
2.5694e-15
2.57901e-15
2.58808e-15
2.59661e-15
2.60463e-15
2.61214e-15
2.61917e-15
2.62572e-15
2.63182e-15
2.63746e-15
2.64267e-15
2.64746e-15
2.65183e-15
2.65579e-15
2.65937e-15
2.66256e-15
2.66537e-15
2.66782e-15
2.66991e-15
2.67165e-15
2.67304e-15
2.67411e-15
2.67484e-15
2.67525e-15
2.67535e-15
2.67514e-15
2.67463e-15
2.67382e-15
2.67272e-15
2.67134e-15
2.66967e-15
2.66773e-15
2.66552e-15
2.66305e-15
2.66031e-15
2.65732e-15
2.65408e-15
2.65059e-15
2.64685e-15
2.64288e-15
2.63867e-15
2.63423e-15
2.62956e-15
2.62467e-15
2.61955e-15
2.61422e-15
2.60868e-15
2.60292e-15
2.59696e-15
2.5908e-15
2.58444e-15
2.57787e-15
2.57112e-15
2.56417e-15
2.55704e-15
2.54972e-15
2.54222e-15
2.53454e-15
2.52669e-15
2.51866e-15
2.51047e-15
2.5021e-15
2.49358e-15
2.48489e-15
2.47604e-15
2.46704e-15
2.45788e-15
2.44858e-15
2.43912e-15
2.42953e-15
2.41979e-15
2.40991e-15
2.39989e-15
2.38975e-15
2.37947e-15
2.36906e-15
2.35853e-15
2.34787e-15
2.33709e-15
2.3262e-15
2.31519e-15
2.30406e-15
2.29283e-15
2.28149e-15
2.27005e-15
2.2585e-15
2.24685e-15
2.23511e-15
2.22327e-15
2.21134e-15
2.19932e-15
2.18722e-15
2.17503e-15
2.16275e-15
2.1504e-15
2.13797e-15
2.12547e-15
2.11289e-15
2.10025e-15
2.08753e-15
2.07476e-15
2.06192e-15
2.04902e-15
2.03606e-15
2.02305e-15
2.00998e-15
1.99687e-15
1.9837e-15
1.9705e-15
1.95724e-15
1.94395e-15
1.93062e-15
1.91725e-15
1.90384e-15
1.8904e-15
1.87694e-15
1.86344e-15
1.84992e-15
1.83638e-15
1.82282e-15
1.80923e-15
1.79563e-15
1.78202e-15
1.76839e-15
1.75475e-15
1.7411e-15
1.72744e-15
1.71378e-15
1.70012e-15
1.68645e-15
1.67279e-15
1.65913e-15
1.64548e-15
1.63183e-15
1.61819e-15
1.60456e-15
1.59094e-15
1.57733e-15
1.56375e-15
1.55018e-15
1.53662e-15
1.52309e-15
1.50958e-15
1.4961e-15
1.48264e-15
1.46921e-15
1.45581e-15
1.44244e-15
1.4291e-15
1.41579e-15
1.40252e-15
1.38929e-15
1.37609e-15
1.36294e-15
1.34982e-15
1.33675e-15
1.32372e-15
1.31073e-15
1.29779e-15
1.2849e-15
1.27206e-15
1.25926e-15
1.24652e-15
1.23383e-15
1.22119e-15
1.20861e-15
1.19608e-15
1.18362e-15
1.1712e-15
1.15885e-15
1.14656e-15
1.13432e-15
1.12215e-15
1.11005e-15
1.098e-15
1.08602e-15
1.07411e-15
1.06226e-15
1.05048e-15
1.03877e-15
1.02712e-15
1.01555e-15
1.00404e-15
9.92608e-16
9.81246e-16
9.69956e-16
9.58739e-16
9.47596e-16
9.36526e-16
9.25532e-16
9.14613e-16
9.03769e-16
8.93002e-16
8.82312e-16
8.71699e-16
8.61164e-16
8.50707e-16
8.40329e-16
8.3003e-16
8.1981e-16
8.0967e-16
7.9961e-16
7.89631e-16
7.79733e-16
7.69916e-16
7.6018e-16
7.50525e-16
7.40953e-16
7.31463e-16
7.22055e-16
7.12729e-16
7.03486e-16
6.94326e-16
6.85249e-16
6.76255e-16
6.67344e-16
6.58516e-16
6.49772e-16
6.41111e-16
6.32533e-16
6.24039e-16
6.15629e-16
6.07302e-16
5.99058e-16
5.90898e-16
5.82822e-16
5.74829e-16
5.66919e-16
5.59092e-16
5.51349e-16
5.43689e-16
5.36112e-16
5.28618e-16
5.21206e-16
5.13877e-16
5.06631e-16
4.99467e-16
4.92386e-16
4.85386e-16
4.78468e-16
4.71632e-16
4.64877e-16
4.58204e-16
4.51611e-16
4.45099e-16
4.38668e-16
4.32317e-16
4.26047e-16
4.19856e-16
4.13745e-16
4.07713e-16
4.0176e-16
3.95886e-16
3.90091e-16
3.84373e-16
3.78734e-16
3.73172e-16
3.67688e-16
3.62281e-16
3.56951e-16
3.51697e-16
3.46519e-16
3.41417e-16
3.3639e-16
3.31439e-16
3.26562e-16
3.21761e-16
3.17033e-16
3.12379e-16
3.07799e-16
3.03292e-16
2.98858e-16
2.94497e-16
2.90208e-16
2.8599e-16
2.81845e-16
2.7777e-16
2.73767e-16
2.69834e-16
2.65972e-16
2.62179e-16
2.58456e-16
2.54803e-16
2.51218e-16
2.47702e-16
2.44255e-16
2.40875e-16
2.37563e-16
2.34319e-16
2.31142e-16
2.28031e-16
2.24987e-16
2.22009e-16
2.19097e-16
2.16251e-16
2.1347e-16
2.10754e-16
2.08102e-16
2.05516e-16
2.02993e-16
2.00534e-16
1.98139e-16
1.95807e-16
1.93539e-16
1.91333e-16
1.8919e-16
1.8711e-16
1.85091e-16
1.83135e-16
1.8124e-16
1.79407e-16
1.77635e-16
1.75924e-16
1.74274e-16
1.72684e-16
1.71155e-16
1.69687e-16
1.68278e-16
1.6693e-16
1.65641e-16
1.64412e-16
1.63243e-16
1.62133e-16
1.61082e-16
1.6009e-16
1.59157e-16
1.58283e-16
1.57468e-16
1.56712e-16
1.56014e-16
1.55374e-16
1.54793e-16
1.5427e-16
1.53805e-16
1.53399e-16
1.53051e-16
1.5276e-16
1.52528e-16
1.52355e-16
1.52239e-16
1.52181e-16
)
;
    }
}


// ************************************************************************* //
