/*--------------------------------*- C++ -*----------------------------------*\
  =========                 |
  \\      /  F ield         | OpenFOAM: The Open Source CFD Toolbox
   \\    /   O peration     | Website:  https://openfoam.org
    \\  /    A nd           | Version:  10
     \\/     M anipulation  |
\*---------------------------------------------------------------------------*/
FoamFile
{
    format      ascii;
    class       volScalarField;
    location    "0.38";
    object      Exp1;
}
// * * * * * * * * * * * * * * * * * * * * * * * * * * * * * * * * * * * * * //

dimensions      [0 0 0 0 0 0 0];

internalField   uniform 0;

boundaryField
{
    frontAndBack
    {
        type            empty;
    }
    inlet
    {
        type            calculated;
        value           uniform 0;
    }
    outlet
    {
        type            calculated;
        value           uniform 0;
    }
    substrate
    {
        type            calculated;
        value           nonuniform List<scalar> 
400
(
4.95473e-08
1.48371e-07
2.4656e-07
3.43829e-07
4.39929e-07
5.34642e-07
6.27774e-07
7.19152e-07
8.08626e-07
8.96065e-07
9.81355e-07
1.0644e-06
1.14512e-06
1.22344e-06
1.29933e-06
1.37273e-06
1.44362e-06
1.51199e-06
1.57783e-06
1.64114e-06
1.70193e-06
1.76021e-06
1.81602e-06
1.86938e-06
1.92032e-06
1.96888e-06
2.01509e-06
2.05902e-06
2.10069e-06
2.14015e-06
2.17746e-06
2.21266e-06
2.2458e-06
2.27694e-06
2.30612e-06
2.33339e-06
2.35881e-06
2.38242e-06
2.40427e-06
2.42441e-06
2.44289e-06
2.45976e-06
2.47505e-06
2.48882e-06
2.50111e-06
2.51196e-06
2.52142e-06
2.52951e-06
2.5363e-06
2.5418e-06
2.54607e-06
2.54913e-06
2.55103e-06
2.55179e-06
2.55146e-06
2.55006e-06
2.54764e-06
2.54421e-06
2.53982e-06
2.53448e-06
2.52824e-06
2.52111e-06
2.51314e-06
2.50434e-06
2.49474e-06
2.48437e-06
2.47325e-06
2.46141e-06
2.44888e-06
2.43568e-06
2.42182e-06
2.40735e-06
2.39227e-06
2.37661e-06
2.3604e-06
2.34365e-06
2.32638e-06
2.30863e-06
2.2904e-06
2.27172e-06
2.2526e-06
2.23308e-06
2.21316e-06
2.19287e-06
2.17222e-06
2.15123e-06
2.12992e-06
2.10832e-06
2.08642e-06
2.06427e-06
2.04186e-06
2.01922e-06
1.99636e-06
1.9733e-06
1.95006e-06
1.92664e-06
1.90308e-06
1.87937e-06
1.85554e-06
1.8316e-06
1.80756e-06
1.78344e-06
1.75926e-06
1.73502e-06
1.71073e-06
1.68642e-06
1.66209e-06
1.63775e-06
1.61342e-06
1.58912e-06
1.56484e-06
1.5406e-06
1.51641e-06
1.49229e-06
1.46824e-06
1.44427e-06
1.42039e-06
1.39662e-06
1.37295e-06
1.34941e-06
1.32599e-06
1.30271e-06
1.27957e-06
1.25658e-06
1.23376e-06
1.21109e-06
1.1886e-06
1.16629e-06
1.14417e-06
1.12223e-06
1.1005e-06
1.07896e-06
1.05763e-06
1.03652e-06
1.01562e-06
9.94942e-07
9.7449e-07
9.54268e-07
9.34279e-07
9.14526e-07
8.95013e-07
8.75742e-07
8.56717e-07
8.37938e-07
8.1941e-07
8.01133e-07
7.8311e-07
7.65342e-07
7.47831e-07
7.30577e-07
7.13582e-07
6.96846e-07
6.80371e-07
6.64156e-07
6.48201e-07
6.32508e-07
6.17075e-07
6.01902e-07
5.86989e-07
5.72336e-07
5.57941e-07
5.43805e-07
5.29924e-07
5.163e-07
5.0293e-07
4.89812e-07
4.76947e-07
4.64331e-07
4.51962e-07
4.39841e-07
4.27963e-07
4.16328e-07
4.04932e-07
3.93775e-07
3.82853e-07
3.72164e-07
3.61706e-07
3.51476e-07
3.41472e-07
3.31691e-07
3.2213e-07
3.12786e-07
3.03657e-07
2.9474e-07
2.86032e-07
2.77531e-07
2.69232e-07
2.61133e-07
2.53231e-07
2.45524e-07
2.38007e-07
2.30679e-07
2.23535e-07
2.16573e-07
2.0979e-07
2.03182e-07
1.96747e-07
1.90481e-07
1.84381e-07
1.78444e-07
1.72668e-07
1.67048e-07
1.61582e-07
1.56267e-07
1.511e-07
1.46077e-07
1.41196e-07
1.36454e-07
1.31848e-07
1.27375e-07
1.23031e-07
1.18815e-07
1.14723e-07
1.10752e-07
1.069e-07
1.03163e-07
9.95402e-08
9.60274e-08
9.26223e-08
8.93223e-08
8.61249e-08
8.30274e-08
8.00275e-08
7.71225e-08
7.43101e-08
7.15878e-08
6.89534e-08
6.64044e-08
6.39387e-08
6.15539e-08
5.92479e-08
5.70185e-08
5.48636e-08
5.27812e-08
5.07691e-08
4.88254e-08
4.69482e-08
4.51354e-08
4.33853e-08
4.16961e-08
4.00658e-08
3.84928e-08
3.69753e-08
3.55117e-08
3.41003e-08
3.27395e-08
3.14277e-08
3.01635e-08
2.89453e-08
2.77718e-08
2.66413e-08
2.55527e-08
2.45045e-08
2.34954e-08
2.25241e-08
2.15895e-08
2.06902e-08
1.98252e-08
1.89932e-08
1.81931e-08
1.7424e-08
1.66846e-08
1.5974e-08
1.52912e-08
1.46352e-08
1.40051e-08
1.34e-08
1.28189e-08
1.22611e-08
1.17256e-08
1.12118e-08
1.07188e-08
1.02458e-08
9.7921e-09
9.35703e-09
8.93987e-09
8.53996e-09
8.15666e-09
7.78932e-09
7.43737e-09
7.1002e-09
6.77725e-09
6.46798e-09
6.17187e-09
5.88839e-09
5.61706e-09
5.3574e-09
5.10895e-09
4.87127e-09
4.64394e-09
4.42653e-09
4.21865e-09
4.01991e-09
3.82996e-09
3.64842e-09
3.47496e-09
3.30924e-09
3.15095e-09
2.99977e-09
2.85541e-09
2.7176e-09
2.58604e-09
2.46048e-09
2.34067e-09
2.22636e-09
2.11732e-09
2.01331e-09
1.91413e-09
1.81957e-09
1.72942e-09
1.6435e-09
1.56161e-09
1.48359e-09
1.40926e-09
1.33845e-09
1.27102e-09
1.20681e-09
1.14568e-09
1.08748e-09
1.03209e-09
9.79385e-10
9.29235e-10
8.81527e-10
8.36148e-10
7.92992e-10
7.51956e-10
7.12943e-10
6.75859e-10
6.40613e-10
6.0712e-10
5.75298e-10
5.45068e-10
5.16354e-10
4.89086e-10
4.63195e-10
4.38614e-10
4.15281e-10
3.93137e-10
3.72124e-10
3.52187e-10
3.33274e-10
3.15337e-10
2.98326e-10
2.82197e-10
2.66906e-10
2.52413e-10
2.38679e-10
2.25664e-10
2.13335e-10
2.01657e-10
1.90597e-10
1.80124e-10
1.7021e-10
1.60827e-10
1.51946e-10
1.43544e-10
1.35597e-10
1.2808e-10
1.20973e-10
1.14254e-10
1.07905e-10
1.01905e-10
9.62384e-11
9.08871e-11
8.58354e-11
8.1068e-11
7.65706e-11
7.23295e-11
6.83318e-11
6.45651e-11
6.1018e-11
5.76793e-11
5.45387e-11
5.15865e-11
4.88133e-11
4.62105e-11
4.37698e-11
4.14834e-11
3.9344e-11
3.73449e-11
3.54795e-11
3.3742e-11
3.21266e-11
3.06282e-11
2.92417e-11
2.79629e-11
2.67873e-11
2.57113e-11
2.47312e-11
2.38438e-11
2.30462e-11
2.23357e-11
2.171e-11
2.1167e-11
2.07049e-11
2.03221e-11
2.00175e-11
1.97898e-11
1.96385e-11
1.9563e-11
)
;
    }
    Wall
    {
        type            calculated;
        value           nonuniform List<scalar> 
400
(
4.95474e-08
1.48372e-07
2.46563e-07
3.43833e-07
4.39935e-07
5.34648e-07
6.27779e-07
7.19157e-07
8.0863e-07
8.96067e-07
9.81355e-07
1.0644e-06
1.14511e-06
1.22344e-06
1.29932e-06
1.37272e-06
1.44361e-06
1.51198e-06
1.57781e-06
1.64112e-06
1.70191e-06
1.76019e-06
1.816e-06
1.86935e-06
1.92029e-06
1.96884e-06
2.01506e-06
2.05898e-06
2.10065e-06
2.14011e-06
2.17742e-06
2.21262e-06
2.24576e-06
2.27689e-06
2.30607e-06
2.33334e-06
2.35876e-06
2.38237e-06
2.40422e-06
2.42436e-06
2.44284e-06
2.4597e-06
2.475e-06
2.48877e-06
2.50105e-06
2.5119e-06
2.52136e-06
2.52945e-06
2.53623e-06
2.54174e-06
2.546e-06
2.54907e-06
2.55096e-06
2.55173e-06
2.55139e-06
2.55e-06
2.54757e-06
2.54414e-06
2.53975e-06
2.53441e-06
2.52817e-06
2.52105e-06
2.51307e-06
2.50427e-06
2.49467e-06
2.4843e-06
2.47318e-06
2.46134e-06
2.44881e-06
2.43561e-06
2.42176e-06
2.40728e-06
2.3922e-06
2.37654e-06
2.36033e-06
2.34358e-06
2.32632e-06
2.30856e-06
2.29033e-06
2.27165e-06
2.25254e-06
2.23301e-06
2.21309e-06
2.1928e-06
2.17215e-06
2.15117e-06
2.12986e-06
2.10825e-06
2.08636e-06
2.0642e-06
2.0418e-06
2.01916e-06
1.9963e-06
1.97324e-06
1.95e-06
1.92659e-06
1.90302e-06
1.87931e-06
1.85548e-06
1.83154e-06
1.80751e-06
1.78339e-06
1.7592e-06
1.73496e-06
1.71068e-06
1.68637e-06
1.66204e-06
1.6377e-06
1.61337e-06
1.58907e-06
1.56479e-06
1.54055e-06
1.51637e-06
1.49224e-06
1.46819e-06
1.44422e-06
1.42035e-06
1.39657e-06
1.37291e-06
1.34937e-06
1.32595e-06
1.30267e-06
1.27953e-06
1.25654e-06
1.23372e-06
1.21106e-06
1.18857e-06
1.16626e-06
1.14413e-06
1.1222e-06
1.10046e-06
1.07893e-06
1.0576e-06
1.03648e-06
1.01559e-06
9.94911e-07
9.7446e-07
9.54239e-07
9.3425e-07
9.14498e-07
8.94985e-07
8.75715e-07
8.5669e-07
8.37912e-07
8.19385e-07
8.01108e-07
7.83086e-07
7.65319e-07
7.47808e-07
7.30555e-07
7.1356e-07
6.96825e-07
6.8035e-07
6.64135e-07
6.48181e-07
6.32488e-07
6.17056e-07
6.01884e-07
5.86971e-07
5.72319e-07
5.57924e-07
5.43788e-07
5.29908e-07
5.16284e-07
5.02914e-07
4.89798e-07
4.76932e-07
4.64316e-07
4.51949e-07
4.39827e-07
4.2795e-07
4.16315e-07
4.0492e-07
3.93763e-07
3.82841e-07
3.72153e-07
3.61695e-07
3.51466e-07
3.41462e-07
3.31681e-07
3.2212e-07
3.12777e-07
3.03648e-07
2.94732e-07
2.86024e-07
2.77522e-07
2.69224e-07
2.61125e-07
2.53224e-07
2.45517e-07
2.38e-07
2.30672e-07
2.23529e-07
2.16567e-07
2.09784e-07
2.03176e-07
1.96741e-07
1.90475e-07
1.84376e-07
1.78439e-07
1.72663e-07
1.67043e-07
1.61578e-07
1.56263e-07
1.51096e-07
1.46073e-07
1.41193e-07
1.36451e-07
1.31845e-07
1.27371e-07
1.23028e-07
1.18812e-07
1.1472e-07
1.10749e-07
1.06897e-07
1.03161e-07
9.95376e-08
9.60248e-08
9.26198e-08
8.932e-08
8.61226e-08
8.30253e-08
8.00254e-08
7.71205e-08
7.43081e-08
7.1586e-08
6.89516e-08
6.64027e-08
6.39371e-08
6.15523e-08
5.92464e-08
5.70171e-08
5.48623e-08
5.27799e-08
5.07678e-08
4.88242e-08
4.6947e-08
4.51343e-08
4.33843e-08
4.1695e-08
4.00648e-08
3.84918e-08
3.69744e-08
3.55108e-08
3.40994e-08
3.27387e-08
3.1427e-08
3.01628e-08
2.89447e-08
2.77711e-08
2.66407e-08
2.55521e-08
2.45039e-08
2.34949e-08
2.25236e-08
2.1589e-08
2.06898e-08
1.98247e-08
1.89928e-08
1.81928e-08
1.74236e-08
1.66842e-08
1.59737e-08
1.52909e-08
1.46349e-08
1.40048e-08
1.33997e-08
1.28186e-08
1.22608e-08
1.17254e-08
1.12116e-08
1.07186e-08
1.02456e-08
9.79191e-09
9.35685e-09
8.9397e-09
8.5398e-09
8.1565e-09
7.78918e-09
7.43723e-09
7.10007e-09
6.77713e-09
6.46787e-09
6.17176e-09
5.88829e-09
5.61696e-09
5.35731e-09
5.10886e-09
4.87119e-09
4.64386e-09
4.42645e-09
4.21858e-09
4.01985e-09
3.8299e-09
3.64836e-09
3.4749e-09
3.30919e-09
3.1509e-09
2.99972e-09
2.85537e-09
2.71756e-09
2.586e-09
2.46045e-09
2.34064e-09
2.22633e-09
2.11729e-09
2.01329e-09
1.91411e-09
1.81955e-09
1.7294e-09
1.64348e-09
1.56159e-09
1.48357e-09
1.40924e-09
1.33844e-09
1.27101e-09
1.2068e-09
1.14566e-09
1.08747e-09
1.03208e-09
9.79375e-10
9.29226e-10
8.81518e-10
8.3614e-10
7.92984e-10
7.51949e-10
7.12937e-10
6.75853e-10
6.40607e-10
6.07115e-10
5.75293e-10
5.45063e-10
5.1635e-10
4.89082e-10
4.63191e-10
4.38611e-10
4.15278e-10
3.93134e-10
3.72121e-10
3.52185e-10
3.33272e-10
3.15335e-10
2.98324e-10
2.82195e-10
2.66905e-10
2.52412e-10
2.38677e-10
2.25663e-10
2.13334e-10
2.01656e-10
1.90596e-10
1.80124e-10
1.7021e-10
1.60826e-10
1.51946e-10
1.43544e-10
1.35596e-10
1.2808e-10
1.20972e-10
1.14254e-10
1.07904e-10
1.01905e-10
9.62383e-11
9.0887e-11
8.58353e-11
8.1068e-11
7.65706e-11
7.23295e-11
6.83318e-11
6.45652e-11
6.1018e-11
5.76793e-11
5.45388e-11
5.15866e-11
4.88134e-11
4.62106e-11
4.37699e-11
4.14835e-11
3.93441e-11
3.7345e-11
3.54797e-11
3.37421e-11
3.21267e-11
3.06283e-11
2.92419e-11
2.7963e-11
2.67875e-11
2.57114e-11
2.47313e-11
2.38439e-11
2.30463e-11
2.23358e-11
2.17101e-11
2.11671e-11
2.0705e-11
2.03223e-11
2.00176e-11
1.979e-11
1.96386e-11
1.9563e-11
)
;
    }
}


// ************************************************************************* //
