/*--------------------------------*- C++ -*----------------------------------*\
  =========                 |
  \\      /  F ield         | OpenFOAM: The Open Source CFD Toolbox
   \\    /   O peration     | Website:  https://openfoam.org
    \\  /    A nd           | Version:  10
     \\/     M anipulation  |
\*---------------------------------------------------------------------------*/
FoamFile
{
    format      ascii;
    class       volScalarField;
    location    "0.38";
    object      growth;
}
// * * * * * * * * * * * * * * * * * * * * * * * * * * * * * * * * * * * * * //

dimensions      [0 0 0 0 0 0 0];

internalField   uniform 0;

boundaryField
{
    frontAndBack
    {
        type            empty;
    }
    inlet
    {
        type            calculated;
        value           uniform 0;
    }
    outlet
    {
        type            calculated;
        value           uniform 0;
    }
    substrate
    {
        type            calculated;
        value           nonuniform List<scalar> 
400
(
0.734673
0.712425
0.691346
0.670898
0.650825
0.631001
0.611365
0.591895
0.572587
0.55345
0.534505
0.515773
0.497279
0.479051
0.461114
0.443495
0.426216
0.4093
0.392766
0.376631
0.360912
0.345619
0.330763
0.316351
0.302389
0.288881
0.275826
0.263225
0.251076
0.239374
0.228115
0.217291
0.206897
0.196922
0.187358
0.178196
0.169425
0.161033
0.153011
0.145346
0.138027
0.131042
0.12438
0.118028
0.111976
0.106212
0.100724
0.0955015
0.0905334
0.0858089
0.0813178
0.0770498
0.0729952
0.0691444
0.0654881
0.0620175
0.0587239
0.055599
0.0526348
0.0498237
0.0471583
0.0446314
0.0422364
0.0399667
0.0378161
0.0357786
0.0338486
0.0320206
0.0302896
0.0286504
0.0270985
0.0256293
0.0242386
0.0229222
0.0216764
0.0204975
0.0193819
0.0183264
0.0173277
0.0163829
0.0154891
0.0146436
0.0138439
0.0130875
0.0123721
0.0116956
0.0110557
0.0104507
0.00987855
0.00933754
0.008826
0.00834233
0.00788502
0.00745267
0.00704391
0.00665748
0.00629215
0.00594679
0.00562032
0.0053117
0.00501997
0.0047442
0.00448354
0.00423715
0.00400427
0.00378414
0.00357608
0.00337944
0.00319357
0.00301791
0.00285188
0.00269496
0.00254666
0.0024065
0.00227404
0.00214885
0.00203054
0.00191873
0.00181306
0.0017132
0.00161883
0.00152965
0.00144537
0.00136572
0.00129046
0.00121933
0.00115212
0.0010886
0.00102858
0.000971862
0.000918265
0.000867617
0.000819758
0.000774533
0.000731798
0.000691415
0.000653257
0.000617199
0.000583128
0.000550933
0.000520512
0.000491766
0.000464605
0.00043894
0.000414689
0.000391775
0.000370123
0.000349665
0.000330335
0.000312071
0.000294814
0.000278508
0.000263102
0.000248545
0.000234791
0.000221797
0.000209519
0.000197918
0.000186958
0.000176603
0.000166819
0.000157576
0.000148843
0.000140592
0.000132797
0.000125432
0.000118474
0.000111901
0.000105691
9.98243e-05
9.42818e-05
8.90457e-05
8.40992e-05
7.94262e-05
7.50117e-05
7.08415e-05
6.6902e-05
6.31805e-05
5.96651e-05
5.63443e-05
5.32073e-05
5.02441e-05
4.74451e-05
4.48012e-05
4.23038e-05
3.99448e-05
3.77167e-05
3.56121e-05
3.36243e-05
3.17467e-05
2.99734e-05
2.82985e-05
2.67166e-05
2.52226e-05
2.38116e-05
2.2479e-05
2.12205e-05
2.0032e-05
1.89095e-05
1.78496e-05
1.68486e-05
1.59033e-05
1.50107e-05
1.41678e-05
1.33719e-05
1.26203e-05
1.19107e-05
1.12406e-05
1.0608e-05
1.00106e-05
9.44666e-06
8.91418e-06
8.41146e-06
7.93685e-06
7.48879e-06
7.06579e-06
6.66648e-06
6.28953e-06
5.93369e-06
5.5978e-06
5.28074e-06
4.98148e-06
4.699e-06
4.43239e-06
4.18076e-06
3.94327e-06
3.71913e-06
3.5076e-06
3.30798e-06
3.1196e-06
2.94184e-06
2.7741e-06
2.61581e-06
2.46647e-06
2.32555e-06
2.1926e-06
2.06716e-06
1.94881e-06
1.83717e-06
1.73184e-06
1.63249e-06
1.53876e-06
1.45036e-06
1.36697e-06
1.28832e-06
1.21413e-06
1.14417e-06
1.07819e-06
1.01597e-06
9.57287e-07
9.01954e-07
8.49779e-07
8.00583e-07
7.54198e-07
7.10465e-07
6.69235e-07
6.30365e-07
5.93723e-07
5.59182e-07
5.26623e-07
4.95934e-07
4.67009e-07
4.39748e-07
4.14055e-07
3.89843e-07
3.67026e-07
3.45526e-07
3.25268e-07
3.0618e-07
2.88196e-07
2.71253e-07
2.55291e-07
2.40255e-07
2.26091e-07
2.1275e-07
2.00185e-07
1.8835e-07
1.77205e-07
1.66709e-07
1.56825e-07
1.47518e-07
1.38756e-07
1.30505e-07
1.22738e-07
1.15425e-07
1.08542e-07
1.02063e-07
9.59639e-08
9.02239e-08
8.48217e-08
7.97379e-08
7.49539e-08
7.04523e-08
6.62167e-08
6.22317e-08
5.84826e-08
5.49557e-08
5.1638e-08
4.85174e-08
4.55822e-08
4.28217e-08
4.02256e-08
3.77843e-08
3.54888e-08
3.33303e-08
3.1301e-08
2.93932e-08
2.75997e-08
2.59138e-08
2.43291e-08
2.28398e-08
2.14401e-08
2.01247e-08
1.88886e-08
1.77272e-08
1.6636e-08
1.56108e-08
1.46477e-08
1.3743e-08
1.28933e-08
1.20952e-08
1.13456e-08
1.06417e-08
9.98077e-09
9.36016e-09
8.77748e-09
8.23044e-09
7.71692e-09
7.23489e-09
6.78246e-09
6.35783e-09
5.95934e-09
5.5854e-09
5.23452e-09
4.90531e-09
4.59646e-09
4.30672e-09
4.03494e-09
3.78003e-09
3.54095e-09
3.31674e-09
3.1065e-09
2.90936e-09
2.72454e-09
2.55127e-09
2.38885e-09
2.2366e-09
2.09391e-09
1.96019e-09
1.83489e-09
1.71748e-09
1.60749e-09
1.50445e-09
1.40793e-09
1.31753e-09
1.23288e-09
1.15361e-09
1.0794e-09
1.00993e-09
9.449e-10
8.84045e-10
8.27103e-10
7.7383e-10
7.24e-10
6.774e-10
6.33829e-10
5.93101e-10
5.55039e-10
5.19479e-10
4.86268e-10
4.55261e-10
4.26323e-10
3.99329e-10
3.7416e-10
3.50706e-10
3.28865e-10
3.08539e-10
2.8964e-10
2.72085e-10
2.55794e-10
2.40698e-10
2.26727e-10
2.13821e-10
2.01921e-10
1.90975e-10
1.80933e-10
1.71751e-10
1.63387e-10
1.55804e-10
1.48968e-10
1.42847e-10
1.37415e-10
1.32647e-10
1.28521e-10
1.25018e-10
1.22123e-10
1.19823e-10
1.18107e-10
1.16967e-10
1.16399e-10
)
;
    }
    Wall
    {
        type            calculated;
        value           nonuniform List<scalar> 
400
(
0.734672
0.712424
0.691347
0.670899
0.650825
0.631001
0.611365
0.591894
0.572586
0.55345
0.534505
0.515773
0.497279
0.479052
0.461115
0.443496
0.426218
0.409302
0.392768
0.376634
0.360915
0.345622
0.330766
0.316355
0.302393
0.288885
0.275831
0.26323
0.251081
0.239379
0.22812
0.217296
0.206902
0.196927
0.187363
0.178201
0.16943
0.161038
0.153016
0.145351
0.138032
0.131047
0.124384
0.118033
0.111981
0.106216
0.100728
0.0955057
0.0905374
0.0858129
0.0813216
0.0770535
0.0729988
0.0691478
0.0654914
0.0620207
0.0587269
0.0556019
0.0526376
0.0498264
0.0471608
0.0446339
0.0422387
0.0399689
0.0378182
0.0357806
0.0338505
0.0320225
0.0302913
0.0286521
0.0271001
0.0256308
0.02424
0.0229236
0.0216777
0.0204987
0.019383
0.0183274
0.0173287
0.0163838
0.01549
0.0146445
0.0138447
0.0130883
0.0123728
0.0116962
0.0110564
0.0104513
0.0098791
0.00933806
0.00882648
0.00834278
0.00788545
0.00745307
0.00704428
0.00665782
0.00629248
0.00594709
0.0056206
0.00531196
0.00502021
0.00474443
0.00448375
0.00423735
0.00400445
0.00378431
0.00357624
0.00337958
0.00319371
0.00301803
0.002852
0.00269507
0.00254676
0.00240659
0.00227412
0.00214893
0.00203061
0.0019188
0.00181312
0.00171326
0.00161888
0.0015297
0.00144541
0.00136576
0.0012905
0.00121937
0.00115215
0.00108863
0.00102861
0.000971888
0.000918289
0.00086764
0.000819778
0.000774552
0.000731815
0.000691431
0.000653271
0.000617213
0.00058314
0.000550944
0.000520522
0.000491776
0.000464613
0.000438947
0.000414696
0.000391781
0.000370129
0.000349671
0.00033034
0.000312075
0.000294818
0.000278512
0.000263105
0.000248548
0.000234794
0.000221799
0.000209521
0.00019792
0.00018696
0.000176605
0.000166821
0.000157577
0.000148844
0.000140593
0.000132798
0.000125433
0.000118475
0.000111902
0.000105692
9.98249e-05
9.42824e-05
8.90462e-05
8.40997e-05
7.94267e-05
7.50121e-05
7.08418e-05
6.69023e-05
6.31808e-05
5.96653e-05
5.63445e-05
5.32075e-05
5.02443e-05
4.74453e-05
4.48013e-05
4.23039e-05
3.9945e-05
3.77168e-05
3.56122e-05
3.36244e-05
3.17468e-05
2.99735e-05
2.82986e-05
2.67167e-05
2.52227e-05
2.38117e-05
2.24791e-05
2.12206e-05
2.0032e-05
1.89096e-05
1.78496e-05
1.68486e-05
1.59033e-05
1.50107e-05
1.41678e-05
1.33719e-05
1.26204e-05
1.19107e-05
1.12407e-05
1.0608e-05
1.00107e-05
9.44667e-06
8.9142e-06
8.41148e-06
7.93687e-06
7.4888e-06
7.06581e-06
6.66649e-06
6.28954e-06
5.9337e-06
5.59781e-06
5.28075e-06
4.98148e-06
4.69901e-06
4.4324e-06
4.18077e-06
3.94327e-06
3.71914e-06
3.50761e-06
3.30799e-06
3.11961e-06
2.94185e-06
2.7741e-06
2.61582e-06
2.46647e-06
2.32556e-06
2.1926e-06
2.06716e-06
1.94882e-06
1.83717e-06
1.73185e-06
1.63249e-06
1.53877e-06
1.45036e-06
1.36697e-06
1.28832e-06
1.21414e-06
1.14417e-06
1.07819e-06
1.01597e-06
9.5729e-07
9.01957e-07
8.49782e-07
8.00586e-07
7.54201e-07
7.10468e-07
6.69238e-07
6.30368e-07
5.93726e-07
5.59185e-07
5.26626e-07
4.95937e-07
4.67011e-07
4.3975e-07
4.14057e-07
3.89845e-07
3.67028e-07
3.45528e-07
3.25269e-07
3.06181e-07
2.88197e-07
2.71254e-07
2.55292e-07
2.40256e-07
2.26093e-07
2.12752e-07
2.00186e-07
1.88351e-07
1.77206e-07
1.6671e-07
1.56826e-07
1.47519e-07
1.38756e-07
1.30506e-07
1.22739e-07
1.15426e-07
1.08543e-07
1.02063e-07
9.59646e-08
9.02245e-08
8.48224e-08
7.97385e-08
7.49545e-08
7.04528e-08
6.62172e-08
6.22322e-08
5.84831e-08
5.49561e-08
5.16384e-08
4.85178e-08
4.55826e-08
4.28221e-08
4.0226e-08
3.77847e-08
3.54891e-08
3.33306e-08
3.13013e-08
2.93934e-08
2.75999e-08
2.5914e-08
2.43294e-08
2.284e-08
2.14403e-08
2.01249e-08
1.88888e-08
1.77274e-08
1.66362e-08
1.5611e-08
1.46479e-08
1.37432e-08
1.28934e-08
1.20953e-08
1.13458e-08
1.06419e-08
9.98089e-09
9.36027e-09
8.77758e-09
8.23055e-09
7.71702e-09
7.23498e-09
6.78254e-09
6.35792e-09
5.95942e-09
5.58547e-09
5.23459e-09
4.90538e-09
4.59652e-09
4.30678e-09
4.035e-09
3.78008e-09
3.541e-09
3.31679e-09
3.10654e-09
2.90941e-09
2.72458e-09
2.55131e-09
2.38888e-09
2.23664e-09
2.09395e-09
1.96023e-09
1.83492e-09
1.71751e-09
1.60752e-09
1.50447e-09
1.40795e-09
1.31756e-09
1.2329e-09
1.15363e-09
1.07942e-09
1.00994e-09
9.44917e-10
8.84061e-10
8.27118e-10
7.73845e-10
7.24014e-10
6.77413e-10
6.33841e-10
5.93112e-10
5.5505e-10
5.19489e-10
4.86278e-10
4.5527e-10
4.26332e-10
3.99337e-10
3.74168e-10
3.50713e-10
3.28871e-10
3.08545e-10
2.89646e-10
2.7209e-10
2.558e-10
2.40703e-10
2.26732e-10
2.13825e-10
2.01925e-10
1.90979e-10
1.80937e-10
1.71755e-10
1.63391e-10
1.55807e-10
1.48971e-10
1.4285e-10
1.37418e-10
1.3265e-10
1.28524e-10
1.25021e-10
1.22126e-10
1.19826e-10
1.1811e-10
1.16969e-10
1.164e-10
)
;
    }
}


// ************************************************************************* //
