/*--------------------------------*- C++ -*----------------------------------*\
  =========                 |
  \\      /  F ield         | OpenFOAM: The Open Source CFD Toolbox
   \\    /   O peration     | Website:  https://openfoam.org
    \\  /    A nd           | Version:  10
     \\/     M anipulation  |
\*---------------------------------------------------------------------------*/
FoamFile
{
    format      ascii;
    class       volScalarField;
    location    "0.38";
    object      N1;
}
// * * * * * * * * * * * * * * * * * * * * * * * * * * * * * * * * * * * * * //

dimensions      [0 0 0 0 0 0 0];

internalField   nonuniform List<scalar> 
8000
(
3.76111e-07
1.12672e-06
1.87307e-06
2.61297e-06
3.34449e-06
4.06598e-06
4.77592e-06
5.47301e-06
6.15606e-06
6.82406e-06
7.47612e-06
8.11147e-06
8.72949e-06
9.32962e-06
9.91146e-06
1.04747e-05
1.1019e-05
1.15444e-05
1.20506e-05
1.25377e-05
1.30057e-05
1.34548e-05
1.38851e-05
1.42967e-05
1.46899e-05
1.5065e-05
1.54222e-05
1.57619e-05
1.60843e-05
1.63899e-05
1.6679e-05
1.69518e-05
1.72089e-05
1.74506e-05
1.76773e-05
1.78892e-05
1.80869e-05
1.82706e-05
1.84409e-05
1.85979e-05
1.87421e-05
1.88738e-05
1.89934e-05
1.91012e-05
1.91976e-05
1.92828e-05
1.93573e-05
1.94213e-05
1.9475e-05
1.95189e-05
1.95533e-05
1.95783e-05
1.95942e-05
1.96015e-05
1.96002e-05
1.95907e-05
1.95732e-05
1.95479e-05
1.95152e-05
1.94751e-05
1.94281e-05
1.93742e-05
1.93137e-05
1.92469e-05
1.91738e-05
1.90948e-05
1.901e-05
1.89196e-05
1.88239e-05
1.87229e-05
1.8617e-05
1.85062e-05
1.83907e-05
1.82708e-05
1.81465e-05
1.80181e-05
1.78857e-05
1.77496e-05
1.76097e-05
1.74664e-05
1.73197e-05
1.71698e-05
1.70169e-05
1.68611e-05
1.67025e-05
1.65414e-05
1.63777e-05
1.62117e-05
1.60436e-05
1.58733e-05
1.57012e-05
1.55272e-05
1.53516e-05
1.51744e-05
1.49957e-05
1.48158e-05
1.46346e-05
1.44524e-05
1.42693e-05
1.40852e-05
1.39005e-05
1.37151e-05
1.35291e-05
1.33427e-05
1.3156e-05
1.29691e-05
1.27821e-05
1.2595e-05
1.24079e-05
1.2221e-05
1.20343e-05
1.18479e-05
1.1662e-05
1.14765e-05
1.12915e-05
1.11072e-05
1.09236e-05
1.07408e-05
1.05588e-05
1.03778e-05
1.01977e-05
1.00187e-05
9.84073e-06
9.66396e-06
9.48841e-06
9.31413e-06
9.14118e-06
8.96961e-06
8.79946e-06
8.63077e-06
8.4636e-06
8.29799e-06
8.13397e-06
7.97159e-06
7.81087e-06
7.65185e-06
7.49457e-06
7.33905e-06
7.18533e-06
7.03342e-06
6.88335e-06
6.73514e-06
6.58882e-06
6.44441e-06
6.30191e-06
6.16135e-06
6.02274e-06
5.8861e-06
5.75142e-06
5.61873e-06
5.48802e-06
5.35931e-06
5.23261e-06
5.1079e-06
4.9852e-06
4.8645e-06
4.74581e-06
4.62912e-06
4.51443e-06
4.40174e-06
4.29103e-06
4.18231e-06
4.07556e-06
3.97077e-06
3.86795e-06
3.76707e-06
3.66812e-06
3.57109e-06
3.47597e-06
3.38274e-06
3.29139e-06
3.20191e-06
3.11427e-06
3.02846e-06
2.94446e-06
2.86225e-06
2.78182e-06
2.70315e-06
2.62621e-06
2.55098e-06
2.47745e-06
2.40559e-06
2.33538e-06
2.2668e-06
2.19983e-06
2.13444e-06
2.07062e-06
2.00833e-06
1.94756e-06
1.88829e-06
1.83048e-06
1.77411e-06
1.71917e-06
1.66563e-06
1.61346e-06
1.56264e-06
1.51315e-06
1.46496e-06
1.41805e-06
1.37239e-06
1.32796e-06
1.28474e-06
1.2427e-06
1.20183e-06
1.16209e-06
1.12346e-06
1.08592e-06
1.04945e-06
1.01402e-06
9.7962e-07
9.46215e-07
9.13788e-07
8.82316e-07
8.51777e-07
8.2215e-07
7.93415e-07
7.65549e-07
7.38532e-07
7.12344e-07
6.86964e-07
6.62373e-07
6.38551e-07
6.15479e-07
5.93137e-07
5.71507e-07
5.50571e-07
5.3031e-07
5.10706e-07
4.91743e-07
4.73402e-07
4.55667e-07
4.38521e-07
4.21948e-07
4.05932e-07
3.90458e-07
3.75509e-07
3.61071e-07
3.4713e-07
3.3367e-07
3.20678e-07
3.0814e-07
2.96042e-07
2.84371e-07
2.73115e-07
2.6226e-07
2.51794e-07
2.41706e-07
2.31983e-07
2.22614e-07
2.13588e-07
2.04894e-07
1.96522e-07
1.8846e-07
1.80699e-07
1.7323e-07
1.66041e-07
1.59125e-07
1.52472e-07
1.46074e-07
1.39921e-07
1.34005e-07
1.28319e-07
1.22854e-07
1.17602e-07
1.12557e-07
1.07711e-07
1.03057e-07
9.85882e-08
9.4298e-08
9.01801e-08
8.62282e-08
8.24364e-08
7.87987e-08
7.53096e-08
7.19635e-08
6.87552e-08
6.56796e-08
6.27316e-08
5.99065e-08
5.71997e-08
5.46065e-08
5.21228e-08
4.97443e-08
4.74669e-08
4.52867e-08
4.31999e-08
4.12029e-08
3.92922e-08
3.74642e-08
3.57158e-08
3.40437e-08
3.2445e-08
3.09166e-08
2.94556e-08
2.80594e-08
2.67254e-08
2.54509e-08
2.42334e-08
2.30708e-08
2.19606e-08
2.09006e-08
1.98888e-08
1.89232e-08
1.80018e-08
1.71226e-08
1.6284e-08
1.54841e-08
1.47213e-08
1.3994e-08
1.33007e-08
1.26399e-08
1.20101e-08
1.14101e-08
1.08384e-08
1.02938e-08
9.77522e-09
9.28138e-09
8.81122e-09
8.36365e-09
7.93767e-09
7.5323e-09
7.14661e-09
6.77969e-09
6.43069e-09
6.09878e-09
5.78318e-09
5.48314e-09
5.19793e-09
4.92686e-09
4.66927e-09
4.42453e-09
4.19203e-09
3.9712e-09
3.76149e-09
3.56236e-09
3.37331e-09
3.19387e-09
3.02356e-09
2.86195e-09
2.70862e-09
2.56316e-09
2.42521e-09
2.29438e-09
2.17033e-09
2.05274e-09
1.94127e-09
1.83564e-09
1.73555e-09
1.64073e-09
1.55091e-09
1.46585e-09
1.38531e-09
1.30906e-09
1.23689e-09
1.1686e-09
1.10398e-09
1.04285e-09
9.85044e-10
9.30383e-10
8.78712e-10
8.29878e-10
7.83738e-10
7.40155e-10
6.98999e-10
6.60147e-10
6.23482e-10
5.88893e-10
5.56275e-10
5.25529e-10
4.96561e-10
4.6928e-10
4.43603e-10
4.19449e-10
3.96744e-10
3.75416e-10
3.55398e-10
3.36627e-10
3.19042e-10
3.02589e-10
2.87214e-10
2.72868e-10
2.59505e-10
2.47081e-10
2.35556e-10
2.24894e-10
2.15058e-10
2.06017e-10
1.97742e-10
1.90204e-10
1.83379e-10
1.77245e-10
1.7178e-10
1.66968e-10
1.62792e-10
1.59238e-10
1.56294e-10
1.53951e-10
1.52201e-10
1.51037e-10
1.50456e-10
3.79959e-07
1.13861e-06
1.89362e-06
2.64288e-06
3.38451e-06
4.11682e-06
4.83828e-06
5.54754e-06
6.24339e-06
6.92475e-06
7.59069e-06
8.24038e-06
8.87314e-06
9.48836e-06
1.00856e-05
1.06644e-05
1.12245e-05
1.17657e-05
1.22878e-05
1.27908e-05
1.32747e-05
1.37395e-05
1.41854e-05
1.46124e-05
1.50207e-05
1.54107e-05
1.57824e-05
1.61363e-05
1.64726e-05
1.67916e-05
1.70937e-05
1.73792e-05
1.76485e-05
1.79018e-05
1.81397e-05
1.83624e-05
1.85704e-05
1.87639e-05
1.89434e-05
1.91093e-05
1.92618e-05
1.94014e-05
1.95284e-05
1.96431e-05
1.97459e-05
1.98372e-05
1.99172e-05
1.99862e-05
2.00447e-05
2.00928e-05
2.0131e-05
2.01594e-05
2.01784e-05
2.01882e-05
2.01892e-05
2.01816e-05
2.01656e-05
2.01416e-05
2.01097e-05
2.00702e-05
2.00234e-05
1.99694e-05
1.99086e-05
1.9841e-05
1.97671e-05
1.96869e-05
1.96006e-05
1.95086e-05
1.94109e-05
1.93078e-05
1.91994e-05
1.9086e-05
1.89678e-05
1.88448e-05
1.87174e-05
1.85856e-05
1.84498e-05
1.83099e-05
1.81662e-05
1.80189e-05
1.7868e-05
1.77139e-05
1.75566e-05
1.73962e-05
1.7233e-05
1.70671e-05
1.68986e-05
1.67276e-05
1.65544e-05
1.6379e-05
1.62016e-05
1.60224e-05
1.58413e-05
1.56587e-05
1.54746e-05
1.52891e-05
1.51023e-05
1.49144e-05
1.47256e-05
1.45358e-05
1.43452e-05
1.4154e-05
1.39622e-05
1.377e-05
1.35774e-05
1.33846e-05
1.31916e-05
1.29986e-05
1.28057e-05
1.26128e-05
1.24202e-05
1.22279e-05
1.20361e-05
1.18447e-05
1.16538e-05
1.14637e-05
1.12742e-05
1.10856e-05
1.08978e-05
1.0711e-05
1.05251e-05
1.03404e-05
1.01567e-05
9.97432e-06
9.79316e-06
9.61331e-06
9.43482e-06
9.25775e-06
9.08215e-06
8.90806e-06
8.73554e-06
8.56462e-06
8.39534e-06
8.22775e-06
8.06188e-06
7.89776e-06
7.73544e-06
7.57493e-06
7.41627e-06
7.25948e-06
7.1046e-06
6.95164e-06
6.80062e-06
6.65157e-06
6.50449e-06
6.35942e-06
6.21636e-06
6.07532e-06
5.93632e-06
5.79937e-06
5.66446e-06
5.53162e-06
5.40084e-06
5.27213e-06
5.14548e-06
5.02091e-06
4.8984e-06
4.77796e-06
4.65959e-06
4.54327e-06
4.42901e-06
4.31679e-06
4.20661e-06
4.09845e-06
3.99232e-06
3.8882e-06
3.78607e-06
3.68592e-06
3.58774e-06
3.49152e-06
3.39723e-06
3.30487e-06
3.21441e-06
3.12584e-06
3.03914e-06
2.9543e-06
2.87128e-06
2.79007e-06
2.71066e-06
2.63301e-06
2.55712e-06
2.48295e-06
2.41048e-06
2.3397e-06
2.27057e-06
2.20308e-06
2.13721e-06
2.07292e-06
2.01019e-06
1.94901e-06
1.88934e-06
1.83117e-06
1.77446e-06
1.71919e-06
1.66535e-06
1.61289e-06
1.56181e-06
1.51207e-06
1.46365e-06
1.41652e-06
1.37067e-06
1.32606e-06
1.28267e-06
1.24048e-06
1.19946e-06
1.15959e-06
1.12084e-06
1.0832e-06
1.04663e-06
1.01112e-06
9.76645e-07
9.43174e-07
9.1069e-07
8.79169e-07
8.4859e-07
8.1893e-07
7.90168e-07
7.62283e-07
7.35252e-07
7.09057e-07
6.83675e-07
6.59087e-07
6.35272e-07
6.12212e-07
5.89887e-07
5.68277e-07
5.47364e-07
5.2713e-07
5.07557e-07
4.88626e-07
4.70321e-07
4.52623e-07
4.35517e-07
4.18986e-07
4.03014e-07
3.87585e-07
3.72683e-07
3.58293e-07
3.44401e-07
3.30991e-07
3.18049e-07
3.05562e-07
2.93516e-07
2.81898e-07
2.70694e-07
2.59892e-07
2.49479e-07
2.39443e-07
2.29773e-07
2.20457e-07
2.11484e-07
2.02842e-07
1.94521e-07
1.86511e-07
1.78801e-07
1.71381e-07
1.64243e-07
1.57376e-07
1.50771e-07
1.4442e-07
1.38315e-07
1.32445e-07
1.26804e-07
1.21384e-07
1.16177e-07
1.11175e-07
1.06371e-07
1.01759e-07
9.73306e-08
9.30802e-08
8.90013e-08
8.50874e-08
8.13328e-08
7.77314e-08
7.42778e-08
7.09663e-08
6.77917e-08
6.4749e-08
6.1833e-08
5.90391e-08
5.63626e-08
5.3799e-08
5.1344e-08
4.89934e-08
4.67431e-08
4.45892e-08
4.2528e-08
4.05558e-08
3.8669e-08
3.68644e-08
3.51386e-08
3.34884e-08
3.19108e-08
3.04029e-08
2.89618e-08
2.75848e-08
2.62693e-08
2.50128e-08
2.38127e-08
2.26668e-08
2.15728e-08
2.05284e-08
1.95318e-08
1.85807e-08
1.76732e-08
1.68076e-08
1.5982e-08
1.51947e-08
1.44441e-08
1.37285e-08
1.30464e-08
1.23964e-08
1.1777e-08
1.11869e-08
1.06249e-08
1.00896e-08
9.57986e-09
9.09457e-09
8.63261e-09
8.19294e-09
7.77453e-09
7.37643e-09
6.99771e-09
6.63749e-09
6.29491e-09
5.96916e-09
5.65947e-09
5.36508e-09
5.0853e-09
4.81942e-09
4.56681e-09
4.32684e-09
4.09891e-09
3.88245e-09
3.67692e-09
3.48179e-09
3.29658e-09
3.12079e-09
2.95398e-09
2.79572e-09
2.64559e-09
2.5032e-09
2.36816e-09
2.24013e-09
2.11875e-09
2.0037e-09
1.89467e-09
1.79136e-09
1.69349e-09
1.60079e-09
1.51299e-09
1.42986e-09
1.35116e-09
1.27667e-09
1.20618e-09
1.13948e-09
1.07639e-09
1.01672e-09
9.60303e-10
9.0697e-10
8.56565e-10
8.08942e-10
7.63957e-10
7.21477e-10
6.81376e-10
6.43532e-10
6.07831e-10
5.74164e-10
5.42429e-10
5.12529e-10
4.84371e-10
4.57868e-10
4.32938e-10
4.09503e-10
3.87489e-10
3.66827e-10
3.47452e-10
3.29302e-10
3.1232e-10
2.9645e-10
2.81643e-10
2.6785e-10
2.55027e-10
2.43132e-10
2.32126e-10
2.21974e-10
2.12642e-10
2.04101e-10
1.9632e-10
1.89276e-10
1.82944e-10
1.77304e-10
1.72338e-10
1.68027e-10
1.64359e-10
1.61321e-10
1.58902e-10
1.57095e-10
1.55894e-10
1.55294e-10
3.83728e-07
1.15008e-06
1.9132e-06
2.67108e-06
3.42188e-06
4.16394e-06
4.89573e-06
5.61587e-06
6.32312e-06
7.01638e-06
7.69466e-06
8.3571e-06
9.00296e-06
9.63159e-06
1.02425e-05
1.08351e-05
1.14092e-05
1.19645e-05
1.25008e-05
1.3018e-05
1.3516e-05
1.39948e-05
1.44545e-05
1.48952e-05
1.5317e-05
1.57202e-05
1.6105e-05
1.64716e-05
1.68202e-05
1.71512e-05
1.7465e-05
1.77617e-05
1.80419e-05
1.83057e-05
1.85537e-05
1.8786e-05
1.90032e-05
1.92055e-05
1.93934e-05
1.95671e-05
1.97272e-05
1.98738e-05
2.00074e-05
2.01284e-05
2.0237e-05
2.03336e-05
2.04186e-05
2.04923e-05
2.05549e-05
2.06069e-05
2.06485e-05
2.068e-05
2.07017e-05
2.0714e-05
2.0717e-05
2.07111e-05
2.06965e-05
2.06736e-05
2.06425e-05
2.06035e-05
2.05569e-05
2.05029e-05
2.04417e-05
2.03736e-05
2.02989e-05
2.02176e-05
2.01301e-05
2.00365e-05
1.99371e-05
1.98321e-05
1.97216e-05
1.96059e-05
1.94851e-05
1.93595e-05
1.92293e-05
1.90945e-05
1.89555e-05
1.88123e-05
1.86652e-05
1.85143e-05
1.83597e-05
1.82018e-05
1.80405e-05
1.78761e-05
1.77087e-05
1.75385e-05
1.73657e-05
1.71903e-05
1.70125e-05
1.68326e-05
1.66505e-05
1.64665e-05
1.62806e-05
1.60931e-05
1.5904e-05
1.57136e-05
1.55218e-05
1.53288e-05
1.51348e-05
1.49399e-05
1.47442e-05
1.45477e-05
1.43507e-05
1.41532e-05
1.39554e-05
1.37573e-05
1.3559e-05
1.33607e-05
1.31624e-05
1.29643e-05
1.27664e-05
1.25688e-05
1.23716e-05
1.21749e-05
1.19788e-05
1.17834e-05
1.15887e-05
1.13948e-05
1.12018e-05
1.10098e-05
1.08188e-05
1.06289e-05
1.04402e-05
1.02527e-05
1.00665e-05
9.88166e-06
9.69821e-06
9.51622e-06
9.33573e-06
9.1568e-06
8.97947e-06
8.80379e-06
8.62979e-06
8.45753e-06
8.28704e-06
8.11835e-06
7.95149e-06
7.78651e-06
7.62343e-06
7.46227e-06
7.30306e-06
7.14583e-06
6.9906e-06
6.83739e-06
6.68622e-06
6.53709e-06
6.39004e-06
6.24507e-06
6.10218e-06
5.9614e-06
5.82273e-06
5.68618e-06
5.55175e-06
5.41944e-06
5.28926e-06
5.16121e-06
5.03528e-06
4.91148e-06
4.7898e-06
4.67023e-06
4.55277e-06
4.43742e-06
4.32416e-06
4.21299e-06
4.10389e-06
3.99686e-06
3.89187e-06
3.78893e-06
3.68801e-06
3.58909e-06
3.49218e-06
3.39723e-06
3.30425e-06
3.2132e-06
3.12408e-06
3.03686e-06
2.95152e-06
2.86805e-06
2.78642e-06
2.7066e-06
2.62858e-06
2.55234e-06
2.47785e-06
2.40509e-06
2.33403e-06
2.26466e-06
2.19694e-06
2.13085e-06
2.06638e-06
2.00348e-06
1.94215e-06
1.88235e-06
1.82405e-06
1.76724e-06
1.71189e-06
1.65797e-06
1.60546e-06
1.55433e-06
1.50456e-06
1.45611e-06
1.40897e-06
1.36312e-06
1.31852e-06
1.27515e-06
1.23298e-06
1.192e-06
1.15217e-06
1.11347e-06
1.07589e-06
1.03938e-06
1.00394e-06
9.69536e-07
9.36144e-07
9.03742e-07
8.72308e-07
8.41819e-07
8.12253e-07
7.83588e-07
7.55802e-07
7.28875e-07
7.02783e-07
6.77508e-07
6.53028e-07
6.29323e-07
6.06374e-07
5.8416e-07
5.62663e-07
5.41863e-07
5.21743e-07
5.02283e-07
4.83466e-07
4.65274e-07
4.4769e-07
4.30697e-07
4.14279e-07
3.98418e-07
3.83099e-07
3.68307e-07
3.54027e-07
3.40242e-07
3.26939e-07
3.14103e-07
3.0172e-07
2.89777e-07
2.7826e-07
2.67156e-07
2.56452e-07
2.46136e-07
2.36196e-07
2.26619e-07
2.17395e-07
2.08511e-07
1.99958e-07
1.91724e-07
1.83798e-07
1.76171e-07
1.68833e-07
1.61775e-07
1.54985e-07
1.48457e-07
1.4218e-07
1.36147e-07
1.30349e-07
1.24777e-07
1.19424e-07
1.14282e-07
1.09344e-07
1.04603e-07
1.00051e-07
9.56819e-08
9.14889e-08
8.74657e-08
8.36061e-08
7.99041e-08
7.63539e-08
7.29498e-08
6.96866e-08
6.65587e-08
6.35613e-08
6.06893e-08
5.7938e-08
5.53027e-08
5.27791e-08
5.03628e-08
4.80496e-08
4.58355e-08
4.37167e-08
4.16893e-08
3.97498e-08
3.78948e-08
3.61207e-08
3.44244e-08
3.28027e-08
3.12527e-08
2.97713e-08
2.83558e-08
2.70036e-08
2.57119e-08
2.44783e-08
2.33003e-08
2.21757e-08
2.11022e-08
2.00777e-08
1.91e-08
1.81672e-08
1.72774e-08
1.64287e-08
1.56194e-08
1.48478e-08
1.41122e-08
1.3411e-08
1.27428e-08
1.21062e-08
1.14996e-08
1.09218e-08
1.03716e-08
9.84763e-09
9.34877e-09
8.8739e-09
8.42194e-09
7.99184e-09
7.58261e-09
7.19331e-09
6.82301e-09
6.47086e-09
6.13601e-09
5.81766e-09
5.51504e-09
5.22744e-09
4.95413e-09
4.69446e-09
4.44778e-09
4.21348e-09
3.99097e-09
3.77969e-09
3.57911e-09
3.38872e-09
3.20802e-09
3.03655e-09
2.87386e-09
2.71954e-09
2.57316e-09
2.43435e-09
2.30274e-09
2.17797e-09
2.05971e-09
1.94763e-09
1.84143e-09
1.74083e-09
1.64553e-09
1.55528e-09
1.46983e-09
1.38893e-09
1.31235e-09
1.23989e-09
1.17133e-09
1.10648e-09
1.04514e-09
9.87144e-10
9.32321e-10
8.80508e-10
8.31553e-10
7.85311e-10
7.41644e-10
7.00421e-10
6.6152e-10
6.24821e-10
5.90213e-10
5.57591e-10
5.26855e-10
4.9791e-10
4.70666e-10
4.45039e-10
4.20949e-10
3.9832e-10
3.7708e-10
3.57164e-10
3.38507e-10
3.21049e-10
3.04736e-10
2.89515e-10
2.75337e-10
2.62155e-10
2.49927e-10
2.38614e-10
2.28179e-10
2.18586e-10
2.09806e-10
2.01808e-10
1.94567e-10
1.88058e-10
1.8226e-10
1.77155e-10
1.72724e-10
1.68953e-10
1.6583e-10
1.63344e-10
1.61486e-10
1.60251e-10
1.59635e-10
3.87258e-07
1.16077e-06
1.9313e-06
2.69695e-06
3.45596e-06
4.20667e-06
4.94759e-06
5.67731e-06
6.39458e-06
7.09828e-06
7.78738e-06
8.46098e-06
9.11831e-06
9.75867e-06
1.03815e-05
1.09863e-05
1.15727e-05
1.21403e-05
1.2689e-05
1.32185e-05
1.37289e-05
1.422e-05
1.46918e-05
1.51445e-05
1.55782e-05
1.59931e-05
1.63892e-05
1.67669e-05
1.71264e-05
1.7468e-05
1.7792e-05
1.80987e-05
1.83884e-05
1.86615e-05
1.89183e-05
1.91591e-05
1.93844e-05
1.95945e-05
1.97897e-05
1.99705e-05
2.01371e-05
2.029e-05
2.04295e-05
2.0556e-05
2.06697e-05
2.07711e-05
2.08605e-05
2.09382e-05
2.10046e-05
2.106e-05
2.11046e-05
2.11389e-05
2.1163e-05
2.11774e-05
2.11822e-05
2.11779e-05
2.11646e-05
2.11426e-05
2.11122e-05
2.10737e-05
2.10273e-05
2.09733e-05
2.09119e-05
2.08433e-05
2.07678e-05
2.06856e-05
2.0597e-05
2.05021e-05
2.04012e-05
2.02945e-05
2.01821e-05
2.00644e-05
1.99415e-05
1.98135e-05
1.96808e-05
1.95434e-05
1.94016e-05
1.92555e-05
1.91053e-05
1.89513e-05
1.87935e-05
1.86321e-05
1.84674e-05
1.82994e-05
1.81284e-05
1.79544e-05
1.77777e-05
1.75984e-05
1.74167e-05
1.72326e-05
1.70464e-05
1.68582e-05
1.66682e-05
1.64763e-05
1.62829e-05
1.6088e-05
1.58918e-05
1.56944e-05
1.54959e-05
1.52964e-05
1.50961e-05
1.48951e-05
1.46935e-05
1.44914e-05
1.42889e-05
1.40861e-05
1.38831e-05
1.36801e-05
1.34772e-05
1.32744e-05
1.30718e-05
1.28695e-05
1.26676e-05
1.24663e-05
1.22655e-05
1.20655e-05
1.18661e-05
1.16676e-05
1.14701e-05
1.12735e-05
1.10779e-05
1.08835e-05
1.06903e-05
1.04983e-05
1.03077e-05
1.01184e-05
9.9306e-06
9.74425e-06
9.55945e-06
9.37625e-06
9.19468e-06
9.0148e-06
8.83665e-06
8.66026e-06
8.48569e-06
8.31296e-06
8.14212e-06
7.97319e-06
7.8062e-06
7.64118e-06
7.47816e-06
7.31717e-06
7.15822e-06
7.00134e-06
6.84654e-06
6.69385e-06
6.54327e-06
6.39483e-06
6.24852e-06
6.10437e-06
5.96237e-06
5.82255e-06
5.68489e-06
5.54942e-06
5.41611e-06
5.28499e-06
5.15605e-06
5.02927e-06
4.90467e-06
4.78224e-06
4.66197e-06
4.54385e-06
4.42788e-06
4.31404e-06
4.20232e-06
4.09272e-06
3.98522e-06
3.87981e-06
3.77647e-06
3.67518e-06
3.57594e-06
3.47872e-06
3.3835e-06
3.29028e-06
3.19902e-06
3.10971e-06
3.02232e-06
2.93685e-06
2.85325e-06
2.77152e-06
2.69164e-06
2.61356e-06
2.53729e-06
2.46278e-06
2.39002e-06
2.31898e-06
2.24964e-06
2.18197e-06
2.11594e-06
2.05154e-06
1.98874e-06
1.9275e-06
1.86781e-06
1.80964e-06
1.75296e-06
1.69774e-06
1.64397e-06
1.59161e-06
1.54065e-06
1.49104e-06
1.44277e-06
1.39582e-06
1.35014e-06
1.30573e-06
1.26256e-06
1.22059e-06
1.17981e-06
1.14018e-06
1.1017e-06
1.06432e-06
1.02802e-06
9.92793e-07
9.586e-07
9.25421e-07
8.93233e-07
8.62012e-07
8.31737e-07
8.02385e-07
7.73932e-07
7.46359e-07
7.19642e-07
6.9376e-07
6.68693e-07
6.44419e-07
6.20919e-07
5.98173e-07
5.7616e-07
5.54862e-07
5.34258e-07
5.14332e-07
4.95063e-07
4.76435e-07
4.58429e-07
4.41029e-07
4.24216e-07
4.07975e-07
3.92289e-07
3.77142e-07
3.62519e-07
3.48404e-07
3.34781e-07
3.21637e-07
3.08958e-07
2.96728e-07
2.84935e-07
2.73564e-07
2.62604e-07
2.5204e-07
2.41861e-07
2.32055e-07
2.22609e-07
2.13513e-07
2.04754e-07
1.96322e-07
1.88207e-07
1.80397e-07
1.72883e-07
1.65655e-07
1.58703e-07
1.52018e-07
1.45591e-07
1.39413e-07
1.33475e-07
1.2777e-07
1.22289e-07
1.17024e-07
1.11967e-07
1.07112e-07
1.02451e-07
9.7977e-08
9.36834e-08
8.95637e-08
8.56115e-08
8.18207e-08
7.81854e-08
7.46997e-08
7.13581e-08
6.81553e-08
6.5086e-08
6.21451e-08
5.93278e-08
5.66293e-08
5.40451e-08
5.15708e-08
4.92021e-08
4.69349e-08
4.47653e-08
4.26893e-08
4.07033e-08
3.88037e-08
3.69871e-08
3.52501e-08
3.35896e-08
3.20023e-08
3.04854e-08
2.9036e-08
2.76513e-08
2.63286e-08
2.50654e-08
2.38592e-08
2.27077e-08
2.16084e-08
2.05593e-08
1.95582e-08
1.8603e-08
1.76918e-08
1.68228e-08
1.59941e-08
1.52039e-08
1.44507e-08
1.37327e-08
1.30485e-08
1.23965e-08
1.17754e-08
1.11838e-08
1.06204e-08
1.00838e-08
9.57302e-09
9.08676e-09
8.62395e-09
8.18353e-09
7.76449e-09
7.36585e-09
6.98667e-09
6.62607e-09
6.28319e-09
5.9572e-09
5.64733e-09
5.35282e-09
5.07296e-09
4.80706e-09
4.55447e-09
4.31455e-09
4.0867e-09
3.87036e-09
3.66496e-09
3.47e-09
3.28497e-09
3.10939e-09
2.9428e-09
2.78477e-09
2.63488e-09
2.49275e-09
2.35798e-09
2.23021e-09
2.10911e-09
1.99435e-09
1.8856e-09
1.78258e-09
1.685e-09
1.59259e-09
1.50508e-09
1.42224e-09
1.34383e-09
1.26963e-09
1.19943e-09
1.13302e-09
1.07021e-09
1.01082e-09
9.54683e-10
9.01628e-10
8.51498e-10
8.04147e-10
7.59433e-10
7.17222e-10
6.77387e-10
6.39808e-10
6.0437e-10
5.70966e-10
5.39492e-10
5.09853e-10
4.81956e-10
4.55714e-10
4.31046e-10
4.07874e-10
3.86125e-10
3.65731e-10
3.46626e-10
3.2875e-10
3.12046e-10
2.96459e-10
2.81941e-10
2.68443e-10
2.55922e-10
2.44338e-10
2.33652e-10
2.23829e-10
2.14838e-10
2.06648e-10
1.99233e-10
1.92569e-10
1.86632e-10
1.81404e-10
1.76867e-10
1.73006e-10
1.69807e-10
1.67262e-10
1.6536e-10
1.64095e-10
1.63464e-10
3.90428e-07
1.17034e-06
1.94745e-06
2.71995e-06
3.48612e-06
4.24436e-06
4.99316e-06
5.73115e-06
6.45705e-06
7.16972e-06
7.8681e-06
8.55128e-06
9.21844e-06
9.86886e-06
1.05019e-05
1.11171e-05
1.1714e-05
1.22922e-05
1.28515e-05
1.33917e-05
1.39126e-05
1.44143e-05
1.48966e-05
1.53596e-05
1.58035e-05
1.62283e-05
1.66343e-05
1.70216e-05
1.73904e-05
1.77411e-05
1.80739e-05
1.83891e-05
1.86871e-05
1.89681e-05
1.92326e-05
1.94807e-05
1.9713e-05
1.99298e-05
2.01314e-05
2.03182e-05
2.04905e-05
2.06488e-05
2.07934e-05
2.09246e-05
2.10428e-05
2.11483e-05
2.12415e-05
2.13228e-05
2.13924e-05
2.14507e-05
2.1498e-05
2.15346e-05
2.15609e-05
2.15771e-05
2.15835e-05
2.15805e-05
2.15683e-05
2.15472e-05
2.15175e-05
2.14793e-05
2.14331e-05
2.13791e-05
2.13175e-05
2.12485e-05
2.11724e-05
2.10894e-05
2.09998e-05
2.09038e-05
2.08016e-05
2.06935e-05
2.05795e-05
2.04601e-05
2.03352e-05
2.02053e-05
2.00704e-05
1.99307e-05
1.97865e-05
1.96379e-05
1.94852e-05
1.93284e-05
1.91678e-05
1.90035e-05
1.88358e-05
1.86648e-05
1.84906e-05
1.83134e-05
1.81334e-05
1.79507e-05
1.77655e-05
1.7578e-05
1.73882e-05
1.71964e-05
1.70026e-05
1.68071e-05
1.66099e-05
1.64113e-05
1.62112e-05
1.60099e-05
1.58075e-05
1.56041e-05
1.53999e-05
1.51949e-05
1.49893e-05
1.47832e-05
1.45767e-05
1.43699e-05
1.41629e-05
1.39559e-05
1.37489e-05
1.3542e-05
1.33354e-05
1.31291e-05
1.29232e-05
1.27178e-05
1.2513e-05
1.23089e-05
1.21056e-05
1.19031e-05
1.17016e-05
1.15011e-05
1.13016e-05
1.11033e-05
1.09062e-05
1.07104e-05
1.05159e-05
1.03228e-05
1.01312e-05
9.94109e-06
9.75257e-06
9.56568e-06
9.38045e-06
9.19694e-06
9.0152e-06
8.83526e-06
8.65717e-06
8.48096e-06
8.30666e-06
8.13432e-06
7.96397e-06
7.79562e-06
7.62931e-06
7.46507e-06
7.30291e-06
7.14286e-06
6.98494e-06
6.82916e-06
6.67554e-06
6.5241e-06
6.37484e-06
6.22777e-06
6.08291e-06
5.94026e-06
5.79982e-06
5.66161e-06
5.52561e-06
5.39184e-06
5.26029e-06
5.13096e-06
5.00384e-06
4.87893e-06
4.75623e-06
4.63572e-06
4.5174e-06
4.40126e-06
4.28729e-06
4.17548e-06
4.0658e-06
3.95826e-06
3.85283e-06
3.74949e-06
3.64824e-06
3.54906e-06
3.45192e-06
3.35681e-06
3.2637e-06
3.17259e-06
3.08344e-06
2.99623e-06
2.91095e-06
2.82757e-06
2.74606e-06
2.66641e-06
2.58859e-06
2.51258e-06
2.43835e-06
2.36587e-06
2.29513e-06
2.22609e-06
2.15873e-06
2.09303e-06
2.02895e-06
1.96648e-06
1.90558e-06
1.84623e-06
1.7884e-06
1.73207e-06
1.67721e-06
1.6238e-06
1.5718e-06
1.52119e-06
1.47195e-06
1.42404e-06
1.37745e-06
1.33214e-06
1.28809e-06
1.24527e-06
1.20366e-06
1.16324e-06
1.12397e-06
1.08584e-06
1.04881e-06
1.01287e-06
9.77983e-07
9.44134e-07
9.11295e-07
8.79443e-07
8.48556e-07
8.1861e-07
7.89582e-07
7.61451e-07
7.34193e-07
7.07788e-07
6.82214e-07
6.5745e-07
6.33475e-07
6.10268e-07
5.87811e-07
5.66081e-07
5.45061e-07
5.24732e-07
5.05074e-07
4.86069e-07
4.67699e-07
4.49947e-07
4.32794e-07
4.16225e-07
4.00221e-07
3.84768e-07
3.69849e-07
3.55448e-07
3.41551e-07
3.28141e-07
3.15205e-07
3.02728e-07
2.90696e-07
2.79096e-07
2.67914e-07
2.57137e-07
2.46752e-07
2.36747e-07
2.27111e-07
2.1783e-07
2.08894e-07
2.00292e-07
1.92013e-07
1.84045e-07
1.76379e-07
1.69005e-07
1.61912e-07
1.55092e-07
1.48535e-07
1.42232e-07
1.36174e-07
1.30354e-07
1.24761e-07
1.1939e-07
1.14231e-07
1.09278e-07
1.04523e-07
9.99581e-08
9.55777e-08
9.13747e-08
8.73426e-08
8.34752e-08
7.97663e-08
7.62102e-08
7.2801e-08
6.95334e-08
6.6402e-08
6.34017e-08
6.05274e-08
5.77743e-08
5.51379e-08
5.26136e-08
5.0197e-08
4.7884e-08
4.56704e-08
4.35525e-08
4.15264e-08
3.95884e-08
3.7735e-08
3.59629e-08
3.42687e-08
3.26494e-08
3.11018e-08
2.96231e-08
2.82104e-08
2.6861e-08
2.55723e-08
2.43417e-08
2.31668e-08
2.20453e-08
2.0975e-08
1.99536e-08
1.89791e-08
1.80496e-08
1.7163e-08
1.63175e-08
1.55114e-08
1.47429e-08
1.40104e-08
1.33123e-08
1.26472e-08
1.20135e-08
1.141e-08
1.08351e-08
1.02877e-08
9.76658e-09
9.27049e-09
8.79832e-09
8.349e-09
7.92149e-09
7.51478e-09
7.12794e-09
6.76005e-09
6.41023e-09
6.07765e-09
5.76152e-09
5.46106e-09
5.17554e-09
4.90426e-09
4.64656e-09
4.40178e-09
4.16933e-09
3.94861e-09
3.73907e-09
3.54016e-09
3.35139e-09
3.17226e-09
3.0023e-09
2.84108e-09
2.68816e-09
2.54315e-09
2.40565e-09
2.27531e-09
2.15176e-09
2.03467e-09
1.92373e-09
1.81862e-09
1.71907e-09
1.62479e-09
1.53551e-09
1.451e-09
1.371e-09
1.2953e-09
1.22368e-09
1.15592e-09
1.09185e-09
1.03126e-09
9.73986e-10
9.19858e-10
8.68715e-10
8.20406e-10
7.74788e-10
7.31723e-10
6.91083e-10
6.52744e-10
6.1659e-10
5.8251e-10
5.504e-10
5.20161e-10
4.917e-10
4.64928e-10
4.39761e-10
4.16121e-10
3.93932e-10
3.73125e-10
3.53634e-10
3.35397e-10
3.18355e-10
3.02453e-10
2.87641e-10
2.73871e-10
2.61097e-10
2.49278e-10
2.38376e-10
2.28355e-10
2.19182e-10
2.10826e-10
2.03262e-10
1.96462e-10
1.90406e-10
1.85072e-10
1.80443e-10
1.76504e-10
1.73241e-10
1.70644e-10
1.68703e-10
1.67413e-10
1.66769e-10
3.93161e-07
1.17858e-06
1.96133e-06
2.73965e-06
3.5119e-06
4.27648e-06
5.03192e-06
5.77684e-06
6.50995e-06
7.23011e-06
7.93625e-06
8.62742e-06
9.30278e-06
9.96158e-06
1.06032e-05
1.1227e-05
1.18327e-05
1.24197e-05
1.29879e-05
1.35369e-05
1.40667e-05
1.45771e-05
1.50681e-05
1.55398e-05
1.59922e-05
1.64253e-05
1.68395e-05
1.72348e-05
1.76114e-05
1.79697e-05
1.83099e-05
1.86323e-05
1.89372e-05
1.92248e-05
1.94957e-05
1.975e-05
1.99882e-05
2.02105e-05
2.04175e-05
2.06093e-05
2.07865e-05
2.09493e-05
2.10981e-05
2.12333e-05
2.13552e-05
2.14642e-05
2.15606e-05
2.16448e-05
2.17171e-05
2.17779e-05
2.18274e-05
2.18661e-05
2.18941e-05
2.19119e-05
2.19197e-05
2.19178e-05
2.19065e-05
2.18861e-05
2.18569e-05
2.18192e-05
2.17732e-05
2.17191e-05
2.16573e-05
2.1588e-05
2.15114e-05
2.14278e-05
2.13374e-05
2.12405e-05
2.11372e-05
2.10278e-05
2.09125e-05
2.07916e-05
2.06652e-05
2.05336e-05
2.03969e-05
2.02553e-05
2.01091e-05
1.99585e-05
1.98035e-05
1.96445e-05
1.94815e-05
1.93148e-05
1.91446e-05
1.8971e-05
1.87941e-05
1.86142e-05
1.84314e-05
1.82459e-05
1.80579e-05
1.78674e-05
1.76746e-05
1.74798e-05
1.7283e-05
1.70843e-05
1.6884e-05
1.66822e-05
1.64789e-05
1.62744e-05
1.60687e-05
1.58621e-05
1.56545e-05
1.54462e-05
1.52373e-05
1.50278e-05
1.48179e-05
1.46078e-05
1.43974e-05
1.4187e-05
1.39766e-05
1.37663e-05
1.35563e-05
1.33466e-05
1.31374e-05
1.29286e-05
1.27205e-05
1.2513e-05
1.23064e-05
1.21006e-05
1.18957e-05
1.16918e-05
1.14891e-05
1.12875e-05
1.10871e-05
1.08881e-05
1.06904e-05
1.04941e-05
1.02993e-05
1.01061e-05
9.91446e-06
9.72446e-06
9.53617e-06
9.34963e-06
9.16487e-06
8.98195e-06
8.80091e-06
8.62178e-06
8.4446e-06
8.2694e-06
8.09622e-06
7.92508e-06
7.75601e-06
7.58904e-06
7.4242e-06
7.26149e-06
7.10095e-06
6.94259e-06
6.78642e-06
6.63246e-06
6.48072e-06
6.33122e-06
6.18395e-06
6.03893e-06
5.89617e-06
5.75566e-06
5.6174e-06
5.48141e-06
5.34767e-06
5.21619e-06
5.08696e-06
4.95998e-06
4.83524e-06
4.71273e-06
4.59245e-06
4.47438e-06
4.35852e-06
4.24484e-06
4.13335e-06
4.02402e-06
3.91684e-06
3.81179e-06
3.70886e-06
3.60802e-06
3.50927e-06
3.41258e-06
3.31793e-06
3.22529e-06
3.13466e-06
3.04601e-06
2.95931e-06
2.87454e-06
2.79169e-06
2.71071e-06
2.6316e-06
2.55432e-06
2.47886e-06
2.40518e-06
2.33326e-06
2.26307e-06
2.1946e-06
2.1278e-06
2.06266e-06
1.99915e-06
1.93724e-06
1.8769e-06
1.81812e-06
1.76085e-06
1.70508e-06
1.65078e-06
1.59791e-06
1.54647e-06
1.4964e-06
1.4477e-06
1.40033e-06
1.35427e-06
1.30949e-06
1.26596e-06
1.22366e-06
1.18257e-06
1.14265e-06
1.10388e-06
1.06624e-06
1.0297e-06
9.94232e-07
9.5982e-07
9.26435e-07
8.94055e-07
8.62654e-07
8.32211e-07
8.02701e-07
7.74102e-07
7.46392e-07
7.19548e-07
6.93549e-07
6.68373e-07
6.44e-07
6.20408e-07
5.97577e-07
5.75486e-07
5.54117e-07
5.3345e-07
5.13465e-07
4.94145e-07
4.7547e-07
4.57422e-07
4.39985e-07
4.2314e-07
4.06871e-07
3.91161e-07
3.75994e-07
3.61354e-07
3.47225e-07
3.33593e-07
3.20442e-07
3.07758e-07
2.95526e-07
2.83733e-07
2.72365e-07
2.61409e-07
2.50851e-07
2.40681e-07
2.30884e-07
2.21449e-07
2.12365e-07
2.0362e-07
1.95203e-07
1.87103e-07
1.79309e-07
1.71813e-07
1.64602e-07
1.57669e-07
1.51003e-07
1.44595e-07
1.38437e-07
1.32519e-07
1.26834e-07
1.21373e-07
1.16129e-07
1.11093e-07
1.06259e-07
1.01619e-07
9.71657e-08
9.28928e-08
8.87938e-08
8.4862e-08
8.10915e-08
7.74763e-08
7.40105e-08
7.06886e-08
6.75052e-08
6.4455e-08
6.1533e-08
5.87342e-08
5.6054e-08
5.34877e-08
5.1031e-08
4.86795e-08
4.64292e-08
4.42761e-08
4.22163e-08
4.02461e-08
3.83619e-08
3.65604e-08
3.48381e-08
3.31918e-08
3.16186e-08
3.01153e-08
2.86791e-08
2.73073e-08
2.59971e-08
2.47461e-08
2.35517e-08
2.24116e-08
2.13235e-08
2.02851e-08
1.92945e-08
1.83494e-08
1.74481e-08
1.65886e-08
1.57691e-08
1.49878e-08
1.42432e-08
1.35335e-08
1.28573e-08
1.22131e-08
1.15995e-08
1.10151e-08
1.04586e-08
9.92884e-09
9.42451e-09
8.9445e-09
8.48771e-09
8.05309e-09
7.63963e-09
7.24636e-09
6.87236e-09
6.51673e-09
6.17863e-09
5.85724e-09
5.55178e-09
5.26152e-09
4.98574e-09
4.72375e-09
4.47491e-09
4.2386e-09
4.01421e-09
3.80119e-09
3.59898e-09
3.40707e-09
3.22496e-09
3.05218e-09
2.88828e-09
2.73282e-09
2.5854e-09
2.44562e-09
2.31311e-09
2.18751e-09
2.06847e-09
1.95569e-09
1.84884e-09
1.74763e-09
1.65178e-09
1.56102e-09
1.4751e-09
1.39378e-09
1.31682e-09
1.24401e-09
1.17513e-09
1.10999e-09
1.04839e-09
9.90167e-10
9.3514e-10
8.83147e-10
8.34036e-10
7.8766e-10
7.4388e-10
7.02564e-10
6.63588e-10
6.26833e-10
5.92187e-10
5.59544e-10
5.28803e-10
4.99869e-10
4.72652e-10
4.47067e-10
4.23034e-10
4.00476e-10
3.79324e-10
3.59509e-10
3.40969e-10
3.23644e-10
3.07478e-10
2.9242e-10
2.7842e-10
2.65434e-10
2.53419e-10
2.42336e-10
2.32148e-10
2.22823e-10
2.14329e-10
2.06638e-10
1.99726e-10
1.93569e-10
1.88146e-10
1.83441e-10
1.79436e-10
1.76119e-10
1.73479e-10
1.71506e-10
1.70194e-10
1.6954e-10
3.95404e-07
1.18534e-06
1.97269e-06
2.75576e-06
3.53293e-06
4.30264e-06
5.06343e-06
5.81391e-06
6.55282e-06
7.27898e-06
7.99133e-06
8.6889e-06
9.37082e-06
1.00363e-05
1.06848e-05
1.13156e-05
1.19282e-05
1.25223e-05
1.30976e-05
1.36537e-05
1.41905e-05
1.4708e-05
1.5206e-05
1.56846e-05
1.61437e-05
1.65836e-05
1.70043e-05
1.7406e-05
1.77889e-05
1.81533e-05
1.84994e-05
1.88275e-05
1.9138e-05
1.9431e-05
1.97069e-05
1.99662e-05
2.02091e-05
2.0436e-05
2.06472e-05
2.08431e-05
2.10241e-05
2.11905e-05
2.13428e-05
2.14812e-05
2.16061e-05
2.17179e-05
2.18169e-05
2.19035e-05
2.1978e-05
2.20408e-05
2.20921e-05
2.21324e-05
2.21618e-05
2.21809e-05
2.21897e-05
2.21888e-05
2.21782e-05
2.21585e-05
2.21297e-05
2.20922e-05
2.20464e-05
2.19923e-05
2.19304e-05
2.18608e-05
2.17838e-05