/*--------------------------------*- C++ -*----------------------------------*\
  =========                 |
  \\      /  F ield         | OpenFOAM: The Open Source CFD Toolbox
   \\    /   O peration     | Website:  https://openfoam.org
    \\  /    A nd           | Version:  10
     \\/     M anipulation  |
\*---------------------------------------------------------------------------*/
FoamFile
{
    format      ascii;
    class       volScalarField;
    location    "0.84";
    object      N1;
}
// * * * * * * * * * * * * * * * * * * * * * * * * * * * * * * * * * * * * * //

dimensions      [0 0 0 0 0 0 0];

internalField   nonuniform List<scalar> 
8000
(
6.43505e-14
1.92791e-13
3.20542e-13
4.47254e-13
5.72627e-13
6.96397e-13
8.18335e-13
9.38237e-13
1.05593e-12
1.17125e-12
1.28407e-12
1.39429e-12
1.50181e-12
1.60656e-12
1.70848e-12
1.80753e-12
1.90369e-12
1.99694e-12
2.08728e-12
2.17473e-12
2.25929e-12
2.341e-12
2.41989e-12
2.496e-12
2.56938e-12
2.64007e-12
2.70814e-12
2.77364e-12
2.83663e-12
2.89717e-12
2.95533e-12
3.01116e-12
3.06474e-12
3.11613e-12
3.16539e-12
3.21259e-12
3.25779e-12
3.30105e-12
3.34243e-12
3.382e-12
3.41981e-12
3.45591e-12
3.49037e-12
3.52324e-12
3.55457e-12
3.58441e-12
3.61281e-12
3.63982e-12
3.66547e-12
3.68983e-12
3.71292e-12
3.73478e-12
3.75547e-12
3.77501e-12
3.79344e-12
3.8108e-12
3.82712e-12
3.84242e-12
3.85675e-12
3.87012e-12
3.88257e-12
3.89413e-12
3.90482e-12
3.91466e-12
3.92368e-12
3.93189e-12
3.93933e-12
3.94602e-12
3.95196e-12
3.95719e-12
3.96172e-12
3.96556e-12
3.96874e-12
3.97127e-12
3.97316e-12
3.97444e-12
3.97511e-12
3.97518e-12
3.97468e-12
3.97362e-12
3.972e-12
3.96984e-12
3.96715e-12
3.96394e-12
3.96022e-12
3.95601e-12
3.95131e-12
3.94613e-12
3.94048e-12
3.93438e-12
3.92782e-12
3.92083e-12
3.9134e-12
3.90555e-12
3.89728e-12
3.8886e-12
3.87952e-12
3.87005e-12
3.86019e-12
3.84996e-12
3.83935e-12
3.82838e-12
3.81706e-12
3.80538e-12
3.79336e-12
3.781e-12
3.76831e-12
3.7553e-12
3.74197e-12
3.72832e-12
3.71438e-12
3.70013e-12
3.68559e-12
3.67076e-12
3.65566e-12
3.64027e-12
3.62462e-12
3.6087e-12
3.59253e-12
3.5761e-12
3.55943e-12
3.54252e-12
3.52537e-12
3.50799e-12
3.49039e-12
3.47256e-12
3.45453e-12
3.43629e-12
3.41784e-12
3.3992e-12
3.38036e-12
3.36134e-12
3.34214e-12
3.32276e-12
3.30322e-12
3.2835e-12
3.26363e-12
3.2436e-12
3.22342e-12
3.2031e-12
3.18263e-12
3.16203e-12
3.1413e-12
3.12045e-12
3.09947e-12
3.07838e-12
3.05718e-12
3.03588e-12
3.01447e-12
2.99297e-12
2.97137e-12
2.94969e-12
2.92793e-12
2.90609e-12
2.88418e-12
2.86219e-12
2.84015e-12
2.81805e-12
2.79589e-12
2.77368e-12
2.75142e-12
2.72913e-12
2.70679e-12
2.68443e-12
2.66203e-12
2.63961e-12
2.61717e-12
2.59471e-12
2.57224e-12
2.54976e-12
2.52728e-12
2.50479e-12
2.48231e-12
2.45984e-12
2.43737e-12
2.41492e-12
2.39249e-12
2.37008e-12
2.3477e-12
2.32534e-12
2.30301e-12
2.28072e-12
2.25847e-12
2.23627e-12
2.2141e-12
2.19199e-12
2.16993e-12
2.14792e-12
2.12597e-12
2.10408e-12
2.08225e-12
2.06049e-12
2.0388e-12
2.01719e-12
1.99565e-12
1.97418e-12
1.9528e-12
1.9315e-12
1.91028e-12
1.88915e-12
1.86811e-12
1.84717e-12
1.82632e-12
1.80556e-12
1.78491e-12
1.76436e-12
1.74391e-12
1.72357e-12
1.70333e-12
1.6832e-12
1.66319e-12
1.64329e-12
1.6235e-12
1.60383e-12
1.58428e-12
1.56485e-12
1.54554e-12
1.52635e-12
1.50729e-12
1.48835e-12
1.46954e-12
1.45086e-12
1.43231e-12
1.41389e-12
1.3956e-12
1.37744e-12
1.35942e-12
1.34154e-12
1.32379e-12
1.30618e-12
1.2887e-12
1.27137e-12
1.25418e-12
1.23712e-12
1.22021e-12
1.20344e-12
1.18681e-12
1.17033e-12
1.15398e-12
1.13779e-12
1.12173e-12
1.10583e-12
1.09006e-12
1.07445e-12
1.05898e-12
1.04365e-12
1.02847e-12
1.01344e-12
9.98559e-13
9.83821e-13
9.6923e-13
9.54786e-13
9.40489e-13
9.26339e-13
9.12336e-13
8.98479e-13
8.84769e-13
8.71205e-13
8.57788e-13
8.44517e-13
8.31391e-13
8.18411e-13
8.05576e-13
7.92886e-13
7.80341e-13
7.67939e-13
7.55681e-13
7.43566e-13
7.31595e-13
7.19765e-13
7.08077e-13
6.9653e-13
6.85124e-13
6.73858e-13
6.62732e-13
6.51744e-13
6.40895e-13
6.30183e-13
6.19608e-13
6.09169e-13
5.98866e-13
5.88697e-13
5.78663e-13
5.68762e-13
5.58993e-13
5.49356e-13
5.3985e-13
5.30474e-13
5.21227e-13
5.12108e-13
5.03117e-13
4.94253e-13
4.85515e-13
4.76902e-13
4.68412e-13
4.60046e-13
4.51803e-13
4.4368e-13
4.35678e-13
4.27795e-13
4.20032e-13
4.12385e-13
4.04856e-13
3.97442e-13
3.90143e-13
3.82957e-13
3.75885e-13
3.68925e-13
3.62075e-13
3.55336e-13
3.48705e-13
3.42183e-13
3.35767e-13
3.29458e-13
3.23254e-13
3.17154e-13
3.11158e-13
3.05263e-13
2.9947e-13
2.93777e-13
2.88184e-13
2.82689e-13
2.77291e-13
2.7199e-13
2.66784e-13
2.61674e-13
2.56656e-13
2.51732e-13
2.46899e-13
2.42158e-13
2.37506e-13
2.32943e-13
2.28469e-13
2.24082e-13
2.19781e-13
2.15566e-13
2.11436e-13
2.07389e-13
2.03426e-13
1.99544e-13
1.95744e-13
1.92025e-13
1.88384e-13
1.84823e-13
1.8134e-13
1.77934e-13
1.74605e-13
1.71351e-13
1.68172e-13
1.65068e-13
1.62037e-13
1.59078e-13
1.56192e-13
1.53377e-13
1.50633e-13
1.47959e-13
1.45354e-13
1.42818e-13
1.4035e-13
1.37949e-13
1.35615e-13
1.33347e-13
1.31145e-13
1.29008e-13
1.26935e-13
1.24927e-13
1.22982e-13
1.21099e-13
1.1928e-13
1.17522e-13
1.15825e-13
1.1419e-13
1.12615e-13
1.111e-13
1.09645e-13
1.08249e-13
1.06912e-13
1.05633e-13
1.04413e-13
1.0325e-13
1.02145e-13
1.01098e-13
1.00107e-13
9.91722e-14
9.82943e-14
9.74723e-14
9.67063e-14
9.59959e-14
9.53409e-14
9.47412e-14
9.41965e-14
9.37067e-14
9.32717e-14
9.28914e-14
9.25655e-14
9.22942e-14
9.20772e-14
9.19145e-14
9.18061e-14
9.17519e-14
6.50093e-14
1.94824e-13
3.24058e-13
4.52375e-13
5.79478e-13
7.05105e-13
8.2902e-13
9.51014e-13
1.0709e-12
1.18853e-12
1.30375e-12
1.41645e-12
1.52653e-12
1.63389e-12
1.73849e-12
1.84027e-12
1.93919e-12
2.03523e-12
2.12838e-12
2.21864e-12
2.30602e-12
2.39054e-12
2.47223e-12
2.55112e-12
2.62725e-12
2.70066e-12
2.77141e-12
2.83954e-12
2.90512e-12
2.96819e-12
3.02883e-12
3.08708e-12
3.14302e-12
3.19671e-12
3.24821e-12
3.29758e-12
3.34488e-12
3.39018e-12
3.43353e-12
3.47501e-12
3.51465e-12
3.55253e-12
3.5887e-12
3.62321e-12
3.65611e-12
3.68746e-12
3.71731e-12
3.74571e-12
3.77269e-12
3.79832e-12
3.82262e-12
3.84565e-12
3.86743e-12
3.88802e-12
3.90745e-12
3.92575e-12
3.94296e-12
3.95912e-12
3.97424e-12
3.98838e-12
4.00154e-12
4.01377e-12
4.02508e-12
4.03551e-12
4.04508e-12
4.05381e-12
4.06173e-12
4.06885e-12
4.0752e-12
4.0808e-12
4.08566e-12
4.08982e-12
4.09327e-12
4.09605e-12
4.09816e-12
4.09962e-12
4.10046e-12
4.10067e-12
4.10028e-12
4.0993e-12
4.09775e-12
4.09563e-12
4.09296e-12
4.08974e-12
4.086e-12
4.08174e-12
4.07697e-12
4.0717e-12
4.06595e-12
4.05972e-12
4.05302e-12
4.04586e-12
4.03825e-12
4.0302e-12
4.02172e-12
4.01281e-12
4.00349e-12
3.99376e-12
3.98363e-12
3.97311e-12
3.9622e-12
3.95091e-12
3.93925e-12
3.92723e-12
3.91485e-12
3.90213e-12
3.88906e-12
3.87565e-12
3.86192e-12
3.84786e-12
3.83348e-12
3.8188e-12
3.80381e-12
3.78852e-12
3.77295e-12
3.75708e-12
3.74094e-12
3.72453e-12
3.70785e-12
3.69091e-12
3.67371e-12
3.65626e-12
3.63857e-12
3.62064e-12
3.60248e-12
3.5841e-12
3.56549e-12
3.54667e-12
3.52764e-12
3.5084e-12
3.48897e-12
3.46934e-12
3.44953e-12
3.42954e-12
3.40936e-12
3.38902e-12
3.36851e-12
3.34784e-12
3.32702e-12
3.30604e-12
3.28492e-12
3.26367e-12
3.24227e-12
3.22075e-12
3.1991e-12
3.17734e-12
3.15546e-12
3.13347e-12
3.11138e-12
3.08918e-12
3.0669e-12
3.04452e-12
3.02206e-12
2.99952e-12
2.9769e-12
2.95422e-12
2.93146e-12
2.90865e-12
2.88578e-12
2.86286e-12
2.83989e-12
2.81688e-12
2.79383e-12
2.77074e-12
2.74763e-12
2.72449e-12
2.70132e-12
2.67814e-12
2.65495e-12
2.63175e-12
2.60854e-12
2.58534e-12
2.56213e-12
2.53893e-12
2.51575e-12
2.49258e-12
2.46942e-12
2.44629e-12
2.42319e-12
2.40011e-12
2.37707e-12
2.35406e-12
2.3311e-12
2.30818e-12
2.2853e-12
2.26248e-12
2.2397e-12
2.21699e-12
2.19433e-12
2.17174e-12
2.14921e-12
2.12675e-12
2.10437e-12
2.08206e-12
2.05982e-12
2.03767e-12
2.01559e-12
1.99361e-12
1.97171e-12
1.9499e-12
1.92819e-12
1.90657e-12
1.88505e-12
1.86363e-12
1.84231e-12
1.8211e-12
1.79999e-12
1.77899e-12
1.75811e-12
1.73733e-12
1.71667e-12
1.69613e-12
1.67571e-12
1.65541e-12
1.63523e-12
1.61517e-12
1.59524e-12
1.57543e-12
1.55576e-12
1.53621e-12
1.5168e-12
1.49751e-12
1.47837e-12
1.45935e-12
1.44048e-12
1.42174e-12
1.40314e-12
1.38468e-12
1.36636e-12
1.34818e-12
1.33015e-12
1.31225e-12
1.29451e-12
1.27691e-12
1.25945e-12
1.24214e-12
1.22498e-12
1.20796e-12
1.19109e-12
1.17438e-12
1.15781e-12
1.14139e-12
1.12512e-12
1.109e-12
1.09303e-12
1.07721e-12
1.06155e-12
1.04603e-12
1.03067e-12
1.01546e-12
1.0004e-12
9.8549e-13
9.70733e-13
9.56128e-13
9.41675e-13
9.27372e-13
9.13222e-13
8.99222e-13
8.85373e-13
8.71675e-13
8.58127e-13
8.4473e-13
8.31482e-13
8.18384e-13
8.05435e-13
7.92635e-13
7.79983e-13
7.67478e-13
7.55121e-13
7.42911e-13
7.30848e-13
7.1893e-13
7.07157e-13
6.95528e-13
6.84044e-13
6.72703e-13
6.61505e-13
6.50449e-13
6.39534e-13
6.28759e-13
6.18124e-13
6.07629e-13
5.97272e-13
5.87052e-13
5.76969e-13
5.67022e-13
5.5721e-13
5.47533e-13
5.37988e-13
5.28577e-13
5.19297e-13
5.10148e-13
5.01128e-13
4.92238e-13
4.83476e-13
4.74841e-13
4.66332e-13
4.57948e-13
4.49689e-13
4.41553e-13
4.33539e-13
4.25647e-13
4.17875e-13
4.10223e-13
4.02689e-13
3.95273e-13
3.87973e-13
3.80789e-13
3.73719e-13
3.66763e-13
3.59919e-13
3.53187e-13
3.46565e-13
3.40053e-13
3.33649e-13
3.27353e-13
3.21164e-13
3.1508e-13
3.091e-13
3.03225e-13
2.97451e-13
2.91779e-13
2.86208e-13
2.80737e-13
2.75364e-13
2.70089e-13
2.6491e-13
2.59827e-13
2.54839e-13
2.49945e-13
2.45144e-13
2.40434e-13
2.35816e-13
2.31288e-13
2.26849e-13
2.22499e-13
2.18235e-13
2.14059e-13
2.09968e-13
2.05961e-13
2.02039e-13
1.982e-13
1.94443e-13
1.90767e-13
1.87172e-13
1.83656e-13
1.8022e-13
1.76861e-13
1.7358e-13
1.70376e-13
1.67247e-13
1.64194e-13
1.61215e-13
1.5831e-13
1.55477e-13
1.52717e-13
1.50028e-13
1.4741e-13
1.44863e-13
1.42385e-13
1.39976e-13
1.37635e-13
1.35362e-13
1.33157e-13
1.31018e-13
1.28944e-13
1.26937e-13
1.24994e-13
1.23115e-13
1.21301e-13
1.1955e-13
1.17862e-13
1.16236e-13
1.14673e-13
1.13171e-13
1.1173e-13
1.1035e-13
1.0903e-13
1.07771e-13
1.06571e-13
1.0543e-13
1.04349e-13
1.03326e-13
1.02361e-13
1.01455e-13
1.00607e-13
9.98162e-14
9.90829e-14
9.84069e-14
9.77879e-14
9.72257e-14
9.67201e-14
9.62712e-14
9.58786e-14
9.55423e-14
9.52622e-14
9.50382e-14
9.48703e-14
9.47584e-14
9.47025e-14
6.56556e-14
1.96791e-13
3.27412e-13
4.57205e-13
5.85881e-13
7.13181e-13
8.38869e-13
9.62734e-13
1.08459e-12
1.20427e-12
1.32162e-12
1.43652e-12
1.54887e-12
1.65857e-12
1.76555e-12
1.86975e-12
1.97112e-12
2.06965e-12
2.16529e-12
2.25806e-12
2.34795e-12
2.43498e-12
2.51916e-12
2.60052e-12
2.67911e-12
2.75494e-12
2.82808e-12
2.89856e-12
2.96645e-12
3.03179e-12
3.09464e-12
3.15507e-12
3.21312e-12
3.26887e-12
3.32237e-12
3.37368e-12
3.42287e-12
3.47e-12
3.51512e-12
3.5583e-12
3.5996e-12
3.63907e-12
3.67677e-12
3.71275e-12
3.74707e-12
3.77978e-12
3.81094e-12
3.84058e-12
3.86876e-12
3.89553e-12
3.92092e-12
3.94499e-12
3.96777e-12
3.9893e-12
4.00963e-12
4.02878e-12
4.0468e-12
4.06372e-12
4.07957e-12
4.09439e-12
4.10819e-12
4.12102e-12
4.13291e-12
4.14387e-12
4.15393e-12
4.16312e-12
4.17147e-12
4.17899e-12
4.1857e-12
4.19164e-12
4.19681e-12
4.20124e-12
4.20495e-12
4.20795e-12
4.21026e-12
4.2119e-12
4.21288e-12
4.21322e-12
4.21293e-12
4.21203e-12
4.21053e-12
4.20845e-12
4.20579e-12
4.20258e-12
4.19881e-12
4.19451e-12
4.18968e-12
4.18434e-12
4.17849e-12
4.17214e-12
4.16532e-12
4.15801e-12
4.15025e-12
4.14202e-12
4.13335e-12
4.12424e-12
4.1147e-12
4.10474e-12
4.09436e-12
4.08358e-12
4.0724e-12
4.06083e-12
4.04887e-12
4.03654e-12
4.02385e-12
4.01079e-12
3.99738e-12
3.98362e-12
3.96952e-12
3.95509e-12
3.94033e-12
3.92525e-12
3.90986e-12
3.89417e-12
3.87817e-12
3.86188e-12
3.8453e-12
3.82844e-12
3.8113e-12
3.7939e-12
3.77623e-12
3.7583e-12
3.74013e-12
3.72171e-12
3.70305e-12
3.68416e-12
3.66504e-12
3.6457e-12
3.62614e-12
3.60637e-12
3.5864e-12
3.56623e-12
3.54587e-12
3.52532e-12
3.50459e-12
3.48368e-12
3.46261e-12
3.44136e-12
3.41996e-12
3.3984e-12
3.3767e-12
3.35485e-12
3.33286e-12
3.31074e-12
3.28849e-12
3.26611e-12
3.24363e-12
3.22102e-12
3.19831e-12
3.1755e-12
3.1526e-12
3.1296e-12
3.10651e-12
3.08334e-12
3.06009e-12
3.03677e-12
3.01339e-12
2.98994e-12
2.96643e-12
2.94287e-12
2.91926e-12
2.8956e-12
2.87191e-12
2.84818e-12
2.82442e-12
2.80063e-12
2.77682e-12
2.75299e-12
2.72915e-12
2.7053e-12
2.68145e-12
2.65759e-12
2.63374e-12
2.6099e-12
2.58606e-12
2.56224e-12
2.53844e-12
2.51467e-12
2.49092e-12
2.4672e-12
2.44351e-12
2.41986e-12
2.39625e-12
2.37269e-12
2.34918e-12
2.32571e-12
2.3023e-12
2.27895e-12
2.25567e-12
2.23244e-12
2.20928e-12
2.1862e-12
2.16319e-12
2.14025e-12
2.11739e-12
2.09462e-12
2.07193e-12
2.04933e-12
2.02682e-12
2.0044e-12
1.98208e-12
1.95986e-12
1.93774e-12
1.91572e-12
1.8938e-12
1.872e-12
1.8503e-12
1.82872e-12
1.80725e-12
1.78589e-12
1.76466e-12
1.74354e-12
1.72255e-12
1.70168e-12
1.68093e-12
1.66031e-12
1.63983e-12
1.61947e-12
1.59924e-12
1.57915e-12
1.55919e-12
1.53937e-12
1.51969e-12
1.50014e-12
1.48074e-12
1.46148e-12
1.44236e-12
1.42338e-12
1.40455e-12
1.38586e-12
1.36733e-12
1.34893e-12
1.33069e-12
1.3126e-12
1.29465e-12
1.27686e-12
1.25922e-12
1.24173e-12
1.22439e-12
1.2072e-12
1.19017e-12
1.17329e-12
1.15657e-12
1.14e-12
1.12358e-12
1.10732e-12
1.09122e-12
1.07527e-12
1.05948e-12
1.04384e-12
1.02836e-12
1.01304e-12
9.97867e-13
9.82853e-13
9.67996e-13
9.53294e-13
9.38747e-13
9.24356e-13
9.1012e-13
8.96039e-13
8.82113e-13
8.68341e-13
8.54723e-13
8.41259e-13
8.27948e-13
8.1479e-13
8.01784e-13
7.8893e-13
7.76228e-13
7.63677e-13
7.51276e-13
7.39025e-13
7.26923e-13
7.14969e-13
7.03164e-13
6.91506e-13
6.79995e-13
6.6863e-13
6.57409e-13
6.46334e-13
6.35402e-13
6.24613e-13
6.13966e-13
6.03461e-13
5.93096e-13
5.82871e-13
5.72785e-13
5.62837e-13
5.53026e-13
5.43351e-13
5.33812e-13
5.24407e-13
5.15136e-13
5.05997e-13
4.9699e-13
4.88113e-13
4.79366e-13
4.70748e-13
4.62258e-13
4.53895e-13
4.45657e-13
4.37544e-13
4.29555e-13
4.21689e-13
4.13945e-13
4.06321e-13
3.98817e-13
3.91432e-13
3.84165e-13
3.77014e-13
3.69979e-13
3.63059e-13
3.56252e-13
3.49558e-13
3.42975e-13
3.36503e-13
3.30141e-13
3.23887e-13
3.1774e-13
3.117e-13
3.05765e-13
2.99935e-13
2.94208e-13
2.88584e-13
2.83061e-13
2.77638e-13
2.72315e-13
2.6709e-13
2.61962e-13
2.56931e-13
2.51996e-13
2.47155e-13
2.42408e-13
2.37753e-13
2.3319e-13
2.28718e-13
2.24335e-13
2.20042e-13
2.15837e-13
2.11718e-13
2.07686e-13
2.0374e-13
1.99878e-13
1.96099e-13
1.92403e-13
1.8879e-13
1.85257e-13
1.81805e-13
1.78432e-13
1.75138e-13
1.71922e-13
1.68784e-13
1.65721e-13
1.62735e-13
1.59823e-13
1.56986e-13
1.54222e-13
1.51531e-13
1.48912e-13
1.46365e-13
1.43889e-13
1.41482e-13
1.39146e-13
1.36879e-13
1.3468e-13
1.32549e-13
1.30485e-13
1.28488e-13
1.26557e-13
1.24692e-13
1.22892e-13
1.21156e-13
1.19485e-13
1.17878e-13
1.16334e-13
1.14853e-13
1.13434e-13
1.12078e-13
1.10783e-13
1.09549e-13
1.08377e-13
1.07265e-13
1.06214e-13
1.05223e-13
1.04291e-13
1.03419e-13
1.02606e-13
1.01852e-13
1.01158e-13
1.00521e-13
9.99433e-14
9.94236e-14
9.89621e-14
9.85585e-14
9.82128e-14
9.79249e-14
9.76947e-14
9.75221e-14
9.7407e-14
9.73495e-14
6.62588e-14
1.98618e-13
3.30507e-13
4.61631e-13
5.91712e-13
7.20497e-13
8.47751e-13
9.73264e-13
1.09684e-12
1.21832e-12
1.33754e-12
1.45438e-12
1.56872e-12
1.68046e-12
1.78952e-12
1.89584e-12
1.99936e-12
2.10005e-12
2.19789e-12
2.29285e-12
2.38495e-12
2.47417e-12
2.56053e-12
2.64407e-12
2.7248e-12
2.80277e-12
2.878e-12
2.95055e-12
3.02047e-12
3.0878e-12
3.15261e-12
3.21494e-12
3.27485e-12
3.33241e-12
3.38768e-12
3.44071e-12
3.49156e-12
3.5403e-12
3.58698e-12
3.63167e-12
3.67442e-12
3.7153e-12
3.75435e-12
3.79163e-12
3.82721e-12
3.86112e-12
3.89343e-12
3.92417e-12
3.95341e-12
3.98119e-12
4.00755e-12
4.03254e-12
4.0562e-12
4.07857e-12
4.09969e-12
4.1196e-12
4.13833e-12
4.15593e-12
4.17242e-12
4.18783e-12
4.20221e-12
4.21558e-12
4.22796e-12
4.23939e-12
4.2499e-12
4.2595e-12
4.26822e-12
4.2761e-12
4.28314e-12
4.28937e-12
4.29482e-12
4.29949e-12
4.30342e-12
4.30662e-12
4.30911e-12
4.3109e-12
4.31202e-12
4.31247e-12
4.31227e-12
4.31145e-12
4.31e-12
4.30795e-12
4.30531e-12
4.30209e-12
4.29831e-12
4.29397e-12
4.28909e-12
4.28368e-12
4.27774e-12
4.2713e-12
4.26436e-12
4.25693e-12
4.24903e-12
4.24065e-12
4.23181e-12
4.22252e-12
4.21279e-12
4.20262e-12
4.19203e-12
4.18102e-12
4.1696e-12
4.15778e-12
4.14556e-12
4.13296e-12
4.11998e-12
4.10663e-12
4.09292e-12
4.07885e-12
4.06443e-12
4.04967e-12
4.03458e-12
4.01916e-12
4.00341e-12
3.98735e-12
3.97098e-12
3.95431e-12
3.93735e-12
3.92009e-12
3.90256e-12
3.88474e-12
3.86666e-12
3.84832e-12
3.82971e-12
3.81086e-12
3.79176e-12
3.77242e-12
3.75285e-12
3.73305e-12
3.71303e-12
3.69279e-12
3.67235e-12
3.6517e-12
3.63085e-12
3.60982e-12
3.58859e-12
3.56719e-12
3.54561e-12
3.52386e-12
3.50194e-12
3.47987e-12
3.45765e-12
3.43528e-12
3.41276e-12
3.39011e-12
3.36733e-12
3.34442e-12
3.3214e-12
3.29826e-12
3.275e-12
3.25165e-12
3.22819e-12
3.20464e-12
3.181e-12
3.15728e-12
3.13347e-12
3.1096e-12
3.08565e-12
3.06164e-12
3.03757e-12
3.01344e-12
2.98927e-12
2.96504e-12
2.94078e-12
2.91648e-12
2.89215e-12
2.8678e-12
2.84342e-12
2.81902e-12
2.79461e-12
2.77019e-12
2.74576e-12
2.72133e-12
2.69691e-12
2.67249e-12
2.64809e-12
2.6237e-12
2.59933e-12
2.57498e-12
2.55066e-12
2.52637e-12
2.50212e-12
2.4779e-12
2.45373e-12
2.4296e-12
2.40552e-12
2.3815e-12
2.35753e-12
2.33362e-12
2.30977e-12
2.28599e-12
2.26227e-12
2.23863e-12
2.21507e-12
2.19158e-12
2.16818e-12
2.14486e-12
2.12163e-12
2.09849e-12
2.07544e-12
2.05248e-12
2.02962e-12
2.00687e-12
1.98422e-12
1.96167e-12
1.93923e-12
1.9169e-12
1.89468e-12
1.87258e-12
1.85059e-12
1.82873e-12
1.80698e-12
1.78536e-12
1.76386e-12
1.74249e-12
1.72125e-12
1.70014e-12
1.67916e-12
1.65831e-12
1.6376e-12
1.61703e-12
1.59659e-12
1.57629e-12
1.55614e-12
1.53613e-12
1.51626e-12
1.49653e-12
1.47695e-12
1.45752e-12
1.43824e-12
1.41911e-12
1.40012e-12
1.38129e-12
1.36261e-12
1.34408e-12
1.32571e-12
1.30749e-12
1.28942e-12
1.27151e-12
1.25376e-12
1.23616e-12
1.21872e-12
1.20143e-12
1.18431e-12
1.16734e-12
1.15053e-12
1.13388e-12
1.11739e-12
1.10106e-12
1.08489e-12
1.06888e-12
1.05303e-12
1.03733e-12
1.0218e-12
1.00643e-12
9.91214e-13
9.76159e-13
9.61264e-13
9.46528e-13
9.3195e-13
9.17532e-13
9.03271e-13
8.89169e-13
8.75225e-13
8.61437e-13
8.47807e-13
8.34333e-13
8.21016e-13
8.07854e-13
7.94847e-13
7.81994e-13
7.69296e-13
7.56751e-13
7.44359e-13
7.32119e-13
7.2003e-13
7.08093e-13
6.96305e-13
6.84667e-13
6.73178e-13
6.61837e-13
6.50643e-13
6.39595e-13
6.28693e-13
6.17936e-13
6.07322e-13
5.96852e-13
5.86524e-13
5.76337e-13
5.66291e-13
5.56384e-13
5.46616e-13
5.36985e-13
5.27492e-13
5.18134e-13
5.0891e-13
4.99821e-13
4.90864e-13
4.8204e-13
4.73346e-13
4.64782e-13
4.56347e-13
4.48039e-13
4.39859e-13
4.31804e-13
4.23874e-13
4.16067e-13
4.08383e-13
4.00821e-13
3.93379e-13
3.86057e-13
3.78853e-13
3.71767e-13
3.64797e-13
3.57942e-13
3.51202e-13
3.44575e-13
3.3806e-13
3.31656e-13
3.25361e-13
3.19176e-13
3.13099e-13
3.07129e-13
3.01265e-13
2.95506e-13
2.8985e-13
2.84297e-13
2.78846e-13
2.73496e-13
2.68246e-13
2.63094e-13
2.5804e-13
2.53083e-13
2.48222e-13
2.43456e-13
2.38783e-13
2.34204e-13
2.29716e-13
2.2532e-13
2.21014e-13
2.16797e-13
2.12668e-13
2.08627e-13
2.04672e-13
2.00803e-13
1.97018e-13
1.93318e-13
1.89701e-13
1.86166e-13
1.82712e-13
1.79339e-13
1.76046e-13
1.72832e-13
1.69696e-13
1.66638e-13
1.63656e-13
1.60751e-13
1.57921e-13
1.55165e-13
1.52484e-13
1.49876e-13
1.4734e-13
1.44876e-13
1.42484e-13
1.40162e-13
1.3791e-13
1.35728e-13
1.33614e-13
1.31569e-13
1.29592e-13
1.27682e-13
1.25839e-13
1.24062e-13
1.22351e-13
1.20705e-13
1.19124e-13
1.17608e-13
1.16155e-13
1.14766e-13
1.1344e-13
1.12177e-13
1.10977e-13
1.09838e-13
1.08762e-13
1.07746e-13
1.06793e-13
1.059e-13
1.05067e-13
1.04295e-13
1.03584e-13
1.02932e-13
1.0234e-13
1.01808e-13
1.01336e-13
1.00922e-13
1.00569e-13
1.00274e-13
1.00038e-13
9.98612e-14
9.97434e-14
9.96845e-14
6.68005e-14
2.00254e-13
3.33269e-13
4.65564e-13
5.96874e-13
7.26948e-13
8.55558e-13
9.82492e-13
1.10756e-12
1.23058e-12
1.35141e-12
1.4699e-12
1.58594e-12
1.69943e-12
1.81028e-12
1.91842e-12
2.02379e-12
2.12634e-12
2.22605e-12
2.3229e-12
2.41688e-12
2.50799e-12
2.59623e-12
2.68163e-12
2.76421e-12
2.84401e-12
2.92105e-12
2.99538e-12
3.06704e-12
3.13609e-12
3.20258e-12
3.26655e-12
3.32807e-12
3.38719e-12
3.44397e-12
3.49848e-12
3.55077e-12
3.6009e-12
3.64893e-12
3.69492e-12
3.73893e-12
3.78101e-12
3.82124e-12
3.85965e-12
3.8963e-12
3.93125e-12
3.96456e-12
3.99626e-12
4.02641e-12
4.05507e-12
4.08226e-12
4.10805e-12
4.13246e-12
4.15556e-12
4.17736e-12
4.19793e-12
4.21728e-12
4.23546e-12
4.25251e-12
4.26845e-12
4.28332e-12
4.29715e-12
4.30997e-12
4.32181e-12
4.3327e-12
4.34265e-12
4.35171e-12
4.35989e-12
4.36721e-12
4.3737e-12
4.37938e-12
4.38428e-12
4.3884e-12
4.39177e-12
4.39441e-12
4.39634e-12
4.39757e-12
4.39812e-12
4.398e-12
4.39724e-12
4.39584e-12
4.39382e-12
4.3912e-12
4.38798e-12
4.38418e-12
4.37981e-12
4.37488e-12
4.36941e-12
4.36341e-12
4.35689e-12
4.34985e-12
4.34231e-12
4.33428e-12
4.32577e-12
4.31679e-12
4.30734e-12
4.29745e-12
4.2871e-12
4.27632e-12
4.26512e-12
4.25349e-12
4.24146e-12
4.22902e-12
4.21618e-12
4.20296e-12
4.18936e-12
4.17539e-12
4.16105e-12
4.14636e-12
4.13132e-12
4.11593e-12
4.10021e-12
4.08416e-12
4.06778e-12
4.0511e-12
4.0341e-12
4.0168e-12
3.99921e-12
3.98132e-12
3.96316e-12
3.94472e-12
3.92601e-12
3.90704e-12
3.88781e-12
3.86833e-12
3.8486e-12
3.82864e-12
3.80845e-12
3.78803e-12
3.76739e-12
3.74653e-12
3.72547e-12
3.70421e-12
3.68275e-12
3.6611e-12
3.63926e-12
3.61725e-12
3.59506e-12
3.57271e-12
3.55019e-12
3.52752e-12
3.5047e-12
3.48173e-12
3.45863e-12
3.43539e-12
3.41202e-12
3.38853e-12
3.36492e-12
3.3412e-12
3.31737e-12
3.29344e-12
3.26942e-12
3.2453e-12
3.2211e-12
3.19682e-12
3.17246e-12
3.14803e-12
3.12353e-12
3.09897e-12
3.07436e-12
3.0497e-12
3.02499e-12
3.00023e-12
2.97544e-12
2.95062e-12
2.92577e-12
2.9009e-12
2.87601e-12
2.85111e-12
2.82619e-12
2.80127e-12
2.77635e-12
2.75143e-12
2.72652e-12
2.70162e-12
2.67674e-12
2.65188e-12
2.62704e-12
2.60223e-12
2.57745e-12
2.5527e-12
2.528e-12
2.50334e-12
2.47872e-12
2.45416e-12
2.42965e-12
2.40519e-12
2.3808e-12
2.35647e-12
2.33221e-12
2.30801e-12
2.2839e-12
2.25986e-12
2.2359e-12
2.21202e-12
2.18823e-12
2.16452e-12
2.14091e-12
2.1174e-12
2.09398e-12
2.07066e-12
2.04744e-12
2.02433e-12
2.00133e-12
1.97844e-12
1.95566e-12
1.93299e-12
1.91044e-12
1.88801e-12
1.8657e-12
1.84352e-12
1.82146e-12
1.79953e-12
1.77772e-12
1.75605e-12
1.73451e-12
1.71311e-12
1.69184e-12
1.67071e-12
1.64972e-12
1.62887e-12
1.60817e-12
1.5876e-12
1.56719e-12
1.54691e-12
1.52679e-12
1.50682e-12
1.48699e-12
1.46732e-12
1.4478e-12
1.42843e-12
1.40922e-12
1.39016e-12
1.37126e-12
1.35251e-12
1.33392e-12
1.31549e-12
1.29722e-12
1.27911e-12
1.26115e-12
1.24336e-12
1.22573e-12
1.20826e-12
1.19095e-12
1.1738e-12
1.15681e-12
1.13999e-12
1.12333e-12
1.10683e-12
1.09049e-12
1.07432e-12
1.05831e-12
1.04246e-12
1.02678e-12
1.01126e-12
9.95897e-13
9.807e-13
9.65666e-13
9.50794e-13
9.36084e-13
9.21535e-13
9.07148e-13
8.92921e-13
8.78855e-13
8.64949e-13
8.51203e-13
8.37616e-13
8.24188e-13
8.10918e-13
7.97806e-13
7.8485e-13
7.72052e-13
7.59409e-13
7.46922e-13
7.34589e-13
7.2241e-13
7.10384e-13
6.98511e-13
6.86789e-13
6.75219e-13
6.63798e-13
6.52527e-13
6.41405e-13
6.3043e-13
6.19602e-13
6.0892e-13
5.98383e-13
5.8799e-13
5.77741e-13
5.67634e-13
5.57668e-13
5.47843e-13
5.38157e-13
5.2861e-13
5.192e-13
5.09927e-13
5.00789e-13
4.91786e-13
4.82917e-13
4.74179e-13
4.65574e-13
4.57098e-13
4.48752e-13
4.40534e-13
4.32444e-13
4.2448e-13
4.16641e-13
4.08925e-13
4.01333e-13
3.93863e-13
3.86514e-13
3.79284e-13
3.72173e-13
3.6518e-13
3.58303e-13
3.51542e-13
3.44895e-13
3.38361e-13
3.3194e-13
3.2563e-13
3.1943e-13
3.13339e-13
3.07356e-13
3.01481e-13
2.95711e-13
2.90046e-13
2.84484e-13
2.79026e-13
2.73669e-13
2.68414e-13
2.63258e-13
2.582e-13
2.53241e-13
2.48378e-13
2.43611e-13
2.38939e-13
2.34361e-13
2.29876e-13
2.25482e-13
2.2118e-13
2.16968e-13
2.12845e-13
2.0881e-13
2.04863e-13
2.01002e-13
1.97227e-13
1.93536e-13
1.8993e-13
1.86406e-13
1.82965e-13
1.79606e-13
1.76327e-13
1.73127e-13
1.70007e-13
1.66965e-13
1.64001e-13
1.61114e-13
1.58303e-13
1.55567e-13
1.52906e-13
1.50319e-13
1.47805e-13
1.45364e-13
1.42996e-13
1.40698e-13
1.38472e-13
1.36316e-13
1.3423e-13
1.32213e-13
1.30264e-13
1.28384e-13
1.26571e-13
1.24825e-13
1.23146e-13
1.21533e-13
1.19986e-13
1.18504e-13
1.17086e-13
1.15734e-13
1.14445e-13
1.1322e-13
1.12059e-13
1.10961e-13
1.09925e-13
1.08952e-13
1.08041e-13
1.07192e-13
1.06404e-13
1.05678e-13
1.05013e-13
1.0441e-13
1.03867e-13
1.03385e-13
1.02963e-13
1.02602e-13
1.02301e-13
1.02061e-13
1.0188e-13
1.0176e-13
1.017e-13
6.72678e-14
2.01664e-13
3.35643e-13
4.68936e-13
6.01286e-13
7.32449e-13
8.62198e-13
9.90322e-13
1.11663e-12
1.24095e-12
1.36311e-12
1.48299e-12
1.60046e-12
1.7154e-12
1.82774e-12
1.93739e-12
2.0443e-12
2.1484e-12
2.24968e-12
2.3481e-12
2.44365e-12
2.53633e-12
2.62615e-12
2.71311e-12
2.79723e-12
2.87855e-12
2.9571e-12
3.03292e-12
3.10604e-12
3.17653e-12
3.24441e-12
3.30976e-12
3.37262e-12
3.43305e-12
3.49111e-12
3.54686e-12
3.60035e-12
3.65164e-12
3.7008e-12
3.74788e-12
3.79295e-12
3.83605e-12
3.87725e-12
3.9166e-12
3.95417e-12
3.98999e-12
4.02413e-12
4.05664e-12
4.08756e-12
4.11695e-12
4.14484e-12
4.1713e-12
4.19635e-12
4.22006e-12
4.24244e-12
4.26355e-12
4.28343e-12
4.3021e-12
4.31961e-12
4.336e-12
4.35128e-12
4.3655e-12
4.37869e-12
4.39087e-12
4.40208e-12
4.41234e-12
4.42167e-12
4.4301e-12
4.43766e-12
4.44437e-12
4.45026e-12
4.45533e-12
4.45962e-12
4.46313e-12
4.4659e-12
4.46795e-12
4.46927e-12
4.46991e-12
4.46986e-12
4.46915e-12
4.46779e-12
4.46579e-12
4.46318e-12
4.45996e-12
4.45615e-12
4.45176e-12
4.44679e-12
4.44128e-12
4.43522e-12
4.42862e-12
4.4215e-12
4.41388e-12
4.40575e-12
4.39712e-12
4.38802e-12
4.37845e-12
4.36841e-12
4.35792e-12
4.34699e-12
4.33561e-12
4.32382e-12
4.3116e-12
4.29897e-12
4.28594e-12
4.27252e-12
4.25871e-12
4.24452e-12
4.22996e-12
4.21503e-12
4.19975e-12
4.18412e-12
4.16815e-12
4.15184e-12
4.13521e-12
4.11825e-12
4.10098e-12
4.0834e-12
4.06552e-12
4.04735e-12
4.02889e-12
4.01015e-12
3.99114e-12
3.97186e-12
3.95231e-12
3.93252e-12
3.91247e-12
3.89218e-12
3.87165e-12
3.8509e-12
3.82992e-12
3.80872e-12
3.78731e-12
3.7657e-12
3.74389e-12
3.72188e-12
3.69968e-12
3.67731e-12
3.65475e-12
3.63203e-12
3.60914e-12
3.5861e-12
3.5629e-12
3.53955e-12
3.51606e-12
3.49244e-12
3.46869e-12
3.44481e-12
3.42081e-12
3.39669e-12
3.37247e-12
3.34815e-12
3.32372e-12
3.29921e-12
3.2746e-12
3.24992e-12
3.22515e-12
3.20032e-12
3.17541e-12
3.15045e-12
3.12543e-12
3.10036e-12
3.07523e-12
3.05007e-12
3.02487e-12
2.99964e-12
2.97438e-12
2.94909e-12
2.92379e-12
2.89847e-12
2.87314e-12
2.84781e-12
2.82247e-12
2.79714e-12
2.77182e-12
2.74651e-12
2.72121e-12
2.69593e-12
2.67068e-12
2.64546e-12
2.62027e-12
2.59511e-12
2.57e-12
2.54493e-12
2.5199e-12
2.49493e-12
2.47001e-12
2.44515e-12
2.42035e-12
2.39562e-12
2.37095e-12
2.34636e-12
2.32184e-12
2.2974e-12
2.27304e-12
2.24877e-12
2.22458e-12
2.20048e-12
2.17648e-12
2.15258e-12
2.12877e-12
2.10506e-12
2.08146e-12
2.05797e-12
2.03458e-12
2.01131e-12
1.98815e-12
1.9651e-12
1.94218e-12
1.91938e-12
1.8967e-12
1.87415e-12
1.85172e-12
1.82942e-12
1.80726e-12
1.78523e-12
1.76333e-12
1.74157e-12
1.71995e-12
1.69847e-12
1.67713e-12
1.65593e-12
1.63488e-12
1.61398e-12
1.59322e-12
1.57261e-12
1.55216e-12
1.53185e-12
1.5117e-12
1.4917e-12
1.47185e-12
1.45216e-12
1.43263e-12
1.41326e-12
1.39404e-12
1.37498e-12
1.35608e-12
1.33735e-12
1.31877e-12
1.30036e-12
1.2821e-12
1.26402e-12
1.24609e-12
1.22833e-12
1.21073e-12
1.1933e-12
1.17603e-12
1.15893e-12
1.14199e-12
1.12522e-12
1.10861e-12
1.09217e-12
1.07589e-12
1.05978e-12
1.04384e-12
1.02806e-12
1.01244e-12
9.96993e-13
9.81709e-13
9.6659e-13
9.51635e-13
9.36845e-13
9.22219e-13
9.07756e-13
8.93456e-13
8.79319e-13
8.65345e-13
8.51532e-13
8.37881e-13
8.2439e-13
8.1106e-13
7.9789e-13
7.84878e-13
7.72026e-13
7.59331e-13
7.46793e-13
7.34412e-13
7.22186e-13
7.10116e-13
6.98199e-13
6.86436e-13
6.74826e-13
6.63368e-13
6.52061e-13
6.40904e-13
6.29896e-13
6.19036e-13
6.08324e-13
5.97759e-13
5.87339e-13
5.77064e-13
5.66933e-13
5.56945e-13
5.47098e-13
5.37392e-13
5.27826e-13
5.18399e-13
5.09109e-13
4.99957e-13
4.9094e-13
4.82057e-13
4.73308e-13
4.64692e-13
4.56208e-13
4.47853e-13
4.39628e-13
4.31532e-13
4.23562e-13
4.15719e-13
4.08001e-13
4.00407e-13
3.92935e-13
3.85585e-13
3.78356e-13
3.71247e-13
3.64256e-13
3.57382e-13
3.50625e-13
3.43983e-13
3.37455e-13
3.3104e-13
3.24737e-13
3.18545e-13
3.12463e-13
3.06489e-13
3.00623e-13
2.94864e-13
2.89211e-13
2.83662e-13
2.78216e-13
2.72873e-13
2.67631e-13
2.6249e-13
2.57448e-13
2.52505e-13
2.47659e-13
2.42909e-13
2.38255e-13
2.33695e-13
2.29228e-13
2.24855e-13
2.20572e-13
2.16381e-13
2.12279e-13
2.08266e-13
2.04341e-13
2.00503e-13
1.96752e-13
1.93085e-13
1.89503e-13
1.86005e-13
1.82589e-13
1.79256e-13
1.76004e-13
1.72832e-13
1.69739e-13
1.66726e-13
1.63791e-13
1.60933e-13
1.58152e-13
1.55446e-13
1.52816e-13
1.50261e-13
1.4778e-13
1.45371e-13
1.43036e-13
1.40773e-13
1.38581e-13
1.3646e-13
1.34409e-13
1.32428e-13
1.30516e-13
1.28674e-13
1.26899e-13
1.25192e-13
1.23552e-13
1.21979e-13
1.20472e-13
1.19032e-13
1.17657e-13
1.16347e-13
1.15101e-13
1.13921e-13
1.12804e-13
1.11751e-13
1.10762e-13
1.09836e-13
1.08973e-13
1.08172e-13
1.07434e-13
1.06758e-13
1.06144e-13
1.05592e-13
1.05102e-13
1.04674e-13
1.04306e-13
1.04001e-13
1.03756e-13
1.03573e-13
1.03451e-13
1.0339e-13
6.76514e-14
2.0282e-13
3.37587e-13
4.71693e-13
6.04886e-13
7.36928e-13
8.67595e-13
9.96677e-13
1.12398e-12
1.24934e-12
1.37258e-12
1.49356e-12
1.61217e-12
1.72828e-12
1.84181e-12
1.95267e-12
2.06081e-12
2.16616e-12
2.26869e-12
2.36837e-12
2.46518e-12
2.55912e-12
2.65019e-12
2.73839e-12
2.82376e-12
2.9063e-12
2.98606e-12
3.06307e-12
3.13737e-12
3.209e-12
3.27802e-12
3.34447e-12
3.40841e-12
3.46989e-12
3.52897e-12
3.58571e-12
3.64016e-12
3.69239e-12
3.74246e-12
3.79042e-12
3.83633e-12
3.88025e-12
3.92224e-12
3.96236e-12
4.00065e-12
4.03718e-12
4.07199e-12
4.10514e-12
4.13668e-12
4.16666e-12
4.19512e-12
4.22212e-12
4.24769e-12
4.27188e-12
4.29473e-12
4.31628e-12
4.33658e-12
4.35565e-12
4.37354e-12
4.39027e-12
4.40589e-12
4.42043e-12
4.43391e-12
4.44637e-12
4.45784e-12
4.46833e-12
4.47789e-12
4.48653e-12