/*--------------------------------*- C++ -*----------------------------------*\
  =========                 |
  \\      /  F ield         | OpenFOAM: The Open Source CFD Toolbox
   \\    /   O peration     | Website:  https://openfoam.org
    \\  /    A nd           | Version:  10
     \\/     M anipulation  |
\*---------------------------------------------------------------------------*/
FoamFile
{
    format      ascii;
    class       volScalarField;
    location    "8";
    object      p;
}
// * * * * * * * * * * * * * * * * * * * * * * * * * * * * * * * * * * * * * //

dimensions      [1 -1 -2 0 0 0 0];

internalField   nonuniform List<scalar> 
5250
(
1.00001
1.00003
1.00011
1.00026
1.0007
1.0016
1.00422
1.00995
1.02528
1.06203
1.15722
1.40708
2.12037
4.22571
9.93265
11.278
11.1328
11.0791
11.1655
11.3855
11.6043
11.7444
11.8528
11.9383
12.0044
1.00001
1.00004
1.0001
1.00028
1.00064
1.00172
1.00388
1.01046
1.02386
1.06333
1.15245
1.40577
2.10272
4.18493
9.84018
11.2758
11.129
11.0703
11.1568
11.377
11.5953
11.7357
11.8456
11.9325
12
1.00001
1.00003
1.0001
1.00026
1.00064
1.00163
1.00387
1.01001
1.02355
1.06126
1.14934
1.39414
2.07331
4.09294
9.63421
11.2711
11.1168
11.0422
11.1265
11.3431
11.5582
11.6964
11.8055
11.8914
11.9587
1.00001
1.00003
1.00009
1.00026
1.0006
1.00158
1.00376
1.00944
1.0233
1.05761
1.14533
1.37633
2.02875
3.95293
9.31032
11.2712
11.0998
10.9952
11.0747
11.2835
11.4935
11.627
11.7325
11.816
11.8835
1.00001
1.00003
1.00009
1.00023
1.00062
1.0014
1.00377
1.00851
1.02294
1.05307
1.13966
1.35215
1.96993
3.76697
8.86226
11.2789
11.0805
10.9313
11.0038
11.2013
11.4039
11.5302
11.6298
11.7094
11.7782
1.00001
1.00003
1.00008
1.00023
1.00053
1.0014
1.00327
1.00842
1.02032
1.05098
1.12725
1.32893
1.89054
3.54068
8.2802
11.3013
11.0609
10.8499
10.913
11.0946
11.2863
11.4015
11.4907
11.5624
11.6314
1.00001
1.00003
1.00008
1.00019
1.00052
1.0012
1.00315
1.00738
1.01895
1.04586
1.1165
1.29632
1.80246
3.27179
7.56026
11.3398
11.0417
10.751
10.8023
10.9623
11.1381
11.2353
11.3058
11.3601
11.4232
1
1.00002
1.00007
1.00019
1.00043
1.00116
1.00261
1.00704
1.01603
1.04237
1.10116
1.26506
1.70002
2.97745
6.72269
11.3674
11.0202
10.6385
10.6739
10.8029
10.9556
11.0251
11.0635
11.0812
11.1181
1
1.00002
1.00006
1.00016
1.00039
1.00098
1.00235
1.00603
1.0141
1.03687
1.08793
1.22865
1.59821
2.66867
5.79564
11.3149
10.9688
10.5181
10.5301
10.6156
10.7349
10.7625
10.749
10.6922
10.64
1
1.00002
1.00005
1.00014
1.00033
1.00088
1.00201
1.00538
1.0121
1.03265
1.07567
1.19929
1.51224
2.42209
5.07442
10.9955
10.8104
10.3986
10.3566
10.4021
10.4674
10.4459
10.3523
10.1343
9.81338
1
1.00002
1.00005
1.00011
1.00032
1.00071
1.00192
1.00432
1.0116
1.02655
1.06998
1.16942
1.45045
2.22906
4.5261
10.2418
10.4884
10.2964
10.1625
10.1694
10.1619
10.081
9.83809
9.27247
7.82959
1
1.00001
1.00004
1.00011
1.00026
1.00064
1.00162
1.00384
1.00994
1.02329
1.06058
1.14729
1.388
2.0516
4.00222
9.1844
10.2931
10.1746
9.97836
9.92977
9.85917
9.68844
9.30865
8.54749
7.07454
1
1.00001
1.00003
1.00009
1.00022
1.00057
1.00131
1.0035
1.0079
1.0213
1.04904
1.12933
1.32319
1.88472
3.49226
7.97505
10.1734
10.067
9.82179
9.69088
9.56666
9.31731
8.84786
8.08461
6.93877
1
1.00001
1.00003
1.00007
1.00019
1.00046
1.00112
1.00285
1.00671
1.01742
1.04111
1.10629
1.26572
1.71548
2.99592
6.64939
10.0921
9.97899
9.68663
9.4631
9.28196
8.99266
8.51486
7.82124
6.92286
1
1.00001
1.00002
1.00006
1.00016
1.00036
1.00095
1.00215
1.00578
1.01299
1.03492
1.08105
1.2132
1.54786
2.51031
5.21057
9.89426
9.84501
9.58621
9.26196
9.02721
8.72282
8.26914
7.65156
6.9006
1
1.00001
1.00002
1.00005
1.00012
1.00029
1.00076
1.00174
1.00461
1.01041
1.0279
1.06447
1.16909
1.42821
2.17043
4.26514
9.24523
9.60984
9.43754
9.0844
8.80752
8.49772
8.07359
7.52052
6.86803
1
1.00001
1.00002
1.00004
1.0001
1.00023
1.00061
1.00138
1.0037
1.00833
1.02236
1.05146
1.13516
1.33761
1.91984
3.56092
7.88601
9.33254
9.22872
8.95141
8.62569
8.30631
7.90954
7.41069
6.8333
1
1
1.00001
1.00003
1.00007
1.00019
1.00046
1.00113
1.00281
1.0067
1.01715
1.04071
1.10459
1.2611
1.69867
2.9278
6.3253
9.14484
9.0877
8.86048
8.48403
8.14552
7.76909
7.31614
6.79975
1
1
1.00001
1.00002
1.00006
1.00014
1.00034
1.00088
1.00203
1.00534
1.0121
1.03212
1.0748
1.19476
1.49638
2.34367
4.63985
8.79791
8.96579
8.78984
8.40204
8.01972
7.64996
7.23412
6.76818
1
1
1.00001
1.00002
1.00005
1.0001
1.00028
1.00062
1.00165
1.00372
1.00988
1.02265
1.0589
1.14185
1.37064
1.98233
3.7016
7.88601
8.76263
8.64216
8.32727
7.91586
7.54754
7.16173
6.73824
1
1
1
1.00001
1.00003
1.00008
1.00019
1.00049
1.00119
1.00286
1.00727
1.01706
1.04406
1.10564
1.27352
1.71727
2.96872
6.28414
8.49731
8.45577
8.25466
7.84337
7.46427
7.0983
6.71025
1
1
1
1.00001
1.00002
1.00006
1.00014
1.00036
1.00083
1.00218
1.00493
1.01312
1.02978
1.07862
1.188
1.49742
2.31691
4.51727
8.08047
8.32601
8.18076
7.82893
7.41346
7.04914
6.68705
1
1
1
1.00001
1.00002
1.00004
1.0001
1.00026
1.00059
1.00158
1.00352
1.00943
1.02123
1.05606
1.13238
1.34696
1.90362
3.43971
7.09915
8.13835
8.05213
7.7989
7.39114
7.01739
6.6697
1
1
1
1.00001
1.00001
1.00003
1.00007
1.00019
1.00042
1.00112
1.00252
1.00665
1.01527
1.0394
1.09414
1.2422
1.62536
2.68789
5.45866
7.8472
7.87145
7.73668
7.40414
7.01312
6.66416
1
1
1
1
1.00001
1.00002
1.00005
1.00012
1.00032
1.00071
1.00188
1.0042
1.01114
1.02524
1.06579
1.15659
1.40711
2.05322
3.73581
7.23235
7.76973
7.67262
7.41011
7.02254
6.66809
1
1
1
1
1.00001
1.00001
1.00004
1.00008
1.00022
1.00049
1.0013
1.00288
1.00772
1.0173
1.04571
1.10693
1.27833
1.71448
2.91121
5.8946
7.55083
7.5368
7.39498
7.06163
6.68395
1
1
1
1
1
1.00001
1.00002
1.00006
1.00014
1.00034
1.00086
1.00197
1.00514
1.01158
1.03065
1.07041
1.1829
1.45673
2.20182
4.08862
7.07331
7.4426
7.35026
7.10654
6.72237
1
1
1
1
1
1.00001
1.00002
1.00004
1.00009
1.00024
1.00055
1.00136
1.00333
1.00792
1.02
1.04718
1.11982
1.29592
1.77325
3.01576
5.98126
7.24668
7.23395
7.10259
6.80275
1
1
1
1
1
1
1.00001
1.00003
1.00006
1.00016
1.00035
1.00093
1.0021
1.00545
1.01262
1.03175
1.07665
1.19206
1.48776
2.27061
4.24272
6.80669
7.14324
7.07087
6.87408
1
1
1
1
1
1
1.00001
1.00002
1.00004
1.0001
1.00024
1.00058
1.0014
1.00346
1.00814
1.02061
1.04843
1.12251
1.30248
1.78067
3.00271
5.81994
6.95898
6.9816
6.90013
1
1
1
1
1
1
1
1.00001
1.00003
1.00006
1.00016
1.00036
1.00094
1.00209
1.00553
1.01231
1.03256
1.07458
1.19324
1.47855
2.24302
4.12185
6.52662
6.9296
6.91559
1
1
1
1
1
1
1
1.00001
1.00002
1.00004
1.0001
1.00023
1.00059
1.00133
1.00346
1.00786
1.02015
1.0471
1.11874
1.29172
1.74859
2.9011
5.55005
6.77494
6.97752
1
1
1
1
1
1
1
1
1.00001
1.00003
1.00006
1.00015
1.00035
1.00087
1.00209
1.005
1.01241
1.02914
1.07348
1.17686
1.45067
2.14103
3.83555
6.35774
7.0836
1
1
1
1
1
1
1
1
1.00001
1.00002
1.00004
1.00009
1.00023
1.00053
1.00136
1.00305
1.00799
1.01784
1.04703
1.10809
1.28043
1.69882
2.79762
5.36589
7.0714
1
1
1
1
1
1
1
1
1
1.00001
1.00002
1.00006
1.00014
1.00035
1.00081
1.00207
1.00467
1.01218
1.02742
1.07129
1.16716
1.43003
2.08001
3.68104
6.93969
1
1
1
1
1
1
1
1
1
1.00001
1.00002
1.00004
1.0001
1.00023
1.00059
1.00138
1.00336
1.00831
1.0195
1.04973
1.11841
1.30398
1.78347
3.08509
6.38459
1
1
1
1
1
1
1
1
1
1.00001
1.00001
1.00003
1.00007
1.00018
1.00042
1.00111
1.0025
1.00665
1.01494
1.03985
1.09253
1.24246
1.62342
2.71196
5.71212
1
1
1
1
1
1
1
1
1
1
1.00001
1.00003
1.00006
1.00016
1.00036
1.00097
1.00217
1.00588
1.01322
1.03551
1.08316
1.21899
1.56835
2.59187
5.59736
1
1
1
1
1
1
1
1
1
1
1.00001
1.00002
1.00006
1.00014
1.00036
1.00082
1.00222
1.00502
1.01357
1.03116
1.08278
1.20274
1.54765
2.526
5.49026
1
1
1
1
1
1
1
1
1
1
1.00001
1.00002
1.00005
1.00014
1.00032
1.00087
1.00195
1.00528
1.01214
1.03209
1.07701
1.20131
1.5274
2.48807
5.38997
1
1
1
1
1
1
1
1
1
1
1.00001
1.00002
1.00006
1.00013
1.00034
1.00078
1.00203
1.00491
1.01228
1.03074
1.07643
1.19553
1.51824
2.45547
5.29781
1
1
1
1
1
1
1
1
1
1
1.00001
1.00002
1.00005
1.00013
1.00031
1.00083
1.00187
1.00511
1.01155
1.03138
1.07351
1.19506
1.50713
2.4316
5.21509
1
1
1
1
1
1
1
1
1
1
1.00001
1.00002
1.00005
1.00013
1.0003
1.00081
1.00185
1.00504
1.01137
1.03109
1.07244
1.19305
1.5004
2.41142
5.14398
1
1
1
1
1
1
1
1
1
1
1.00001
1.00002
1.00005
1.00013
1.0003
1.0008
1.00187
1.00487
1.01175
1.02973
1.07384
1.18902
1.49771
2.39402
5.0854
1
1
1
1
1
1
1
1
1
1
1.00001
1.00002
1.00005
1.00012
1.00031
1.00078
1.00188
1.00488
1.01145
1.03025
1.0723
1.18907
1.49354
2.38183
5.03637
1
1
1
1
1
1
1
1
1
1
1.00001
1.00002
1.00005
1.00012
1.00031
1.00078
1.00187
1.00489
1.01139
1.03023
1.07193
1.18853
1.49061
2.372
4.9977
1
1
1
1
1
1
1
1
1
1
1.00001
1.00002
1.00005
1.00013
1.00031
1.00077
1.00193
1.00467
1.01202
1.0288
1.07414
1.18528
1.491
2.36289
4.96861
1
1
1
1
1
1
1
1
1
1
1.00001
1.00002
1.00005
1.00012
1.00032
1.00074
1.00199
1.00457
1.01217
1.0286
1.07426
1.18428
1.49016
2.35617
4.9469
1
1
1
1
1
1
1
1
1
1
1.00001
1.00002
1.00005
1.00013
1.0003
1.00081
1.00183
1.00497
1.01124
1.03048
1.0711
1.18819
1.48479
2.3545
4.93254
1
1
1
1
1
1
1
1
1
1
1.00001
1.00002
1.00005
1.00012
1.00032
1.00074
1.00199
1.00459
1.01213
1.02866
1.074
1.18407
1.48817
2.35007
4.92648
3.74677
3.12494
4.09814
4.21816
3.95142
3.85176
3.80476
3.73408
3.63596
3.54029
3.45865
3.3814
3.3012
3.21699
3.13039
3.08175
3.06182
3.05682
3.06789
3.1164
3.20259
3.3189
3.45389
3.59577
3.7363
3.87155
3.99905
4.11718
4.22616
4.32678
4.41973
4.50572
4.58499
4.65808
4.72555
4.78556
4.83797
4.88363
4.9228
4.95511
4.98566
5.01018
5.02735
5.03806
5.04311
5.04331
5.04061
5.03302
5.01925
5.00194
4.98147
4.95823
4.93221
4.90369
4.87271
4.83964
4.80461
4.76789
4.7296
4.69
4.64914
4.60726
4.56441
4.52074
4.47635
4.43131
4.38571
4.33958
4.29302
4.24602
4.19866
4.15095
4.10294
4.05466
4.00616
3.95749
3.9087
3.85987
3.81106
3.76234
3.71378
3.66544
3.61737
3.56961
3.5222
3.47519
3.4286
3.38249
3.33688
3.29186
3.24744
3.20383
3.16107
3.11935
3.07901
3.04051
3.00452
2.97216
2.94495
2.92615
4.63812
4.08594
4.25579
4.15469
3.9298
3.87113
3.85787
3.76287
3.63449
3.52376
3.4437
3.37321
3.29378
3.21426
3.13887
3.08277
3.05661
3.04877
3.05747
3.10517
3.19071
3.30723
3.44343
3.58642
3.72751
3.86284
3.99028
4.10863
4.2174
4.31741
4.40993
4.4954
4.57355
4.6473
4.71556
4.77613
4.82894
4.87503
4.91458
4.94834
4.97757
5.0019
5.01963
5.03101
5.03646
5.03685
5.03488
5.02846
5.01487
4.99699
4.97665
4.95386
4.92828
4.9001
4.86943
4.83663
4.80185
4.76535
4.72728
4.68782
4.64713
4.60534
4.56261
4.51901
4.47468
4.42968
4.38411
4.33801
4.29146
4.24447
4.19712
4.14942
4.10142
4.05314
4.00464
3.95598
3.9072
3.85838
3.80959
3.7609
3.71237
3.66407
3.61603
3.56831
3.52093
3.47396
3.42739
3.38131
3.33572
3.29072
3.24625
3.20264
3.15988
3.11821
3.07784
3.03922
3.00302
2.9703
2.94255
2.92304
5.45093
4.68552
4.43335
4.19085
3.97003
3.8777
3.81296
3.72527
3.61939
3.52029
3.45002
3.37929
3.28852
3.20289
3.12859
3.07216
3.04407
3.03503
3.04674
3.09157
3.17192
3.28599
3.42315
3.56701
3.70809
3.84418
3.97316
4.09247
4.20188
4.30255
4.39579
4.48222
4.56218
4.63636
4.70432
4.76494
4.81825
4.86475
4.90489
4.93911
4.96828
4.99219
5.01012
5.02182
5.02776
5.02826
5.02682
5.02166
5.00977
4.99097
4.97043
4.94791
4.92284
4.89509
4.86488
4.83241
4.79797
4.76173
4.72392
4.68466
4.64415
4.6025
4.55987
4.51634
4.47206
4.42709
4.38152
4.33542
4.28884
4.24184
4.19446
4.14673
4.09869
4.05038
4.00185
3.95316
3.90438
3.85556
3.8068
3.75814
3.70965
3.6614
3.61341
3.56574
3.51843
3.47155
3.42504
3.37899
3.3335
3.2886
3.2444
3.20077
3.15799
3.11623
3.07576
3.03692
3.00037
2.96706
2.93847
2.91789
5.81713
5.00872
4.56174
4.26979
4.05046
3.90479
3.81492
3.7187
3.61352
3.51302
3.43572
3.35988
3.27548
3.1936
3.1237
3.07477
3.04579
3.02939
3.0344
3.07565
3.1594
3.27136
3.40436
3.54709
3.68818
3.82393
3.95255
4.07189
4.18187
4.28326
4.37716
4.46388
4.54422
4.61841
4.68643
4.74729
4.80114
4.84812
4.88875
4.92337
4.95256
4.97634
4.99445
5.00666
5.01313
5.01403
5.013
5.00909
4.99959
4.98113
4.96025
4.93773
4.91311
4.88601
4.85645
4.82458
4.79066
4.75487
4.71746
4.67855
4.63834
4.59695
4.55453
4.51118
4.46702
4.42216
4.37666
4.33062
4.28407
4.2371
4.18972
4.14199
4.09394
4.04562
3.99709
3.94841
3.89965
3.85088
3.80218
3.75362
3.70523
3.65711
3.60925
3.56162
3.51446
3.46774
3.42144
3.37564
3.33024
3.28542
3.24119
3.19765
3.15487
3.11307
3.07245
3.03338
2.99639
2.96241
2.93281
2.91071
6.00333
5.24032
4.72612
4.38328
4.14203
3.96429
3.83881
3.73257
3.62429
3.52265
3.44029
3.36046
3.27853
3.20104
3.13628
3.09035
3.06209
3.05244
3.06088
3.09523
3.17088
3.27437
3.39452
3.52366
3.65825
3.79154
3.92007
4.04063
4.15228
4.25531
4.35059
4.4385
4.51969
4.59451
4.66285
4.72426
4.77873
4.82641
4.86763
4.90275
4.93221
4.95617
4.97461
4.98735
4.99451
4.99597
4.99521
4.99224
4.98475
4.96913
4.94796
4.92515
4.90079
4.8743
4.84548
4.81432
4.78105
4.74584
4.70892
4.67045
4.6306
4.58953
4.54736
4.50423
4.46024
4.4155
4.3701
4.32412
4.27761
4.23065
4.18327
4.13553
4.08746
4.03913
3.9906
3.94194
3.89322
3.84455
3.79596
3.74757
3.69927
3.65134
3.60368
3.55654
3.50956
3.46303
3.41684
3.37118
3.32591
3.28123
3.23708
3.19365
3.15093
3.10915
3.06844
3.02917
2.99178
2.95715
2.92659
2.90299
6.11729
5.42736
4.89954
4.52078
4.24743
4.04545
3.89225
3.76875
3.65515
3.55053
3.45928
3.37693
3.30115
3.23558
3.18534
3.15294
3.13889
3.14054
3.15057
3.17746
3.23307
3.30793
3.39585
3.4968
3.61213
3.73835
3.87004
3.99605
4.11273
4.21924
4.31665
4.40584
4.48786
4.5631
4.63181
4.69378
4.74907
4.79757
4.83956
4.87534
4.90529
4.92967
4.9486
4.96202
4.97
4.97231
4.97177
4.96957
4.96386
4.95162
4.93149
4.90887
4.88469
4.85866
4.83055
4.80022
4.76776
4.73329
4.69702
4.65912
4.61976
4.57911
4.5373
4.49447
4.45073
4.4062
4.36096
4.31511
4.26869
4.22179
4.17445
4.12672
4.07865
4.03033
3.98183
3.93322
3.88461
3.83608
3.78764
3.73948
3.69165
3.64409
3.59675
3.54979
3.50305
3.45672
3.4107
3.36518
3.32008
3.27555
3.23155
3.18822
3.14561
3.10385
3.06313
3.02369
2.98601
2.95079
2.91941
2.89447
6.19065
5.57367
5.05978
4.66286
4.36322
4.13685
3.96267
3.82429
3.70411
3.5962
3.50061
3.41934
3.35627
3.31201
3.28523
3.27571
3.27888
3.29074
3.31401
3.33285
3.3559
3.38489
3.42363
3.48428
3.55371
3.6552
3.78844
3.92446
4.05343
4.16939
4.27236
4.36453
4.44789
4.5238
4.59295
4.65567
4.71208
4.76178
4.80494
4.84179
4.87267
4.8979
4.91766
4.932
4.94104
4.94453
4.9442
4.94265
4.93847
4.92929
4.91157
4.8899
4.86604
4.8404
4.81289
4.78335
4.75172
4.71809
4.68257
4.64534
4.60656
4.56641
4.52503
4.48257
4.43914
4.39486
4.34983
4.30414
4.25784
4.21102
4.16372
4.11601
4.06796
4.01966
3.97121
3.92264
3.87421
3.82603
3.77809
3.73037
3.68286
3.6356
3.58853
3.54178
3.49527
3.44917
3.40339
3.35809
3.31322
3.26889
3.22511
3.18197
3.13953
3.09789
3.05724
3.01776
2.9799
2.94426
2.91227
2.88616
6.23764
5.68498
5.19748
4.79779
4.48178
4.23542
4.04232
3.88913
3.76078
3.6508
3.55891
3.48928
3.44743
3.43054
3.43335
3.44781
3.48529
3.53367
3.5499
3.54755
3.53745
3.51233
3.49131
3.49814
3.52598
3.58773
3.68185
3.81534
3.9586
4.09198
4.20899
4.31025
4.39851
4.4769
4.54688
4.61041
4.66755
4.7185
4.76296
4.80112
4.83329
4.85982
4.88075
4.89629
4.90664
4.91168
4.9116
4.91065
4.90773
4.90092
4.88692
4.86674
4.84368
4.81864
4.79173
4.76291
4.73211
4.69933
4.66464
4.62818
4.59009
4.55053
4.50968
4.46766
4.42462
4.38067
4.33592
4.29043
4.24431
4.1976
4.15038
4.10272
4.05475
4.00652
3.95824
3.91014
3.86216
3.81437
3.76676
3.71935
3.67209
3.62509
3.57829
3.53181
3.4856
3.43979
3.39431
3.3493
3.30472
3.26067
3.21716
3.17427
3.13207
3.09063
3.05014
3.01074
2.97286
2.93701
2.90465
2.87776
6.26779
5.76925
5.31246
4.92039
4.59752
4.33752
4.12986
3.9641
3.82846
3.71941
3.63654
3.58746
3.58077
3.58875
3.618
3.6877
3.79333
3.83925
3.83515
3.81499
3.76426
3.66258
3.57703
3.53974
3.54497
3.56903
3.62598
3.71479
3.83904
3.98036
4.11378
4.23138
4.33226
4.41859
4.49316
4.55888
4.6172
4.66912
4.71466
4.75397
4.78763
4.81554
4.83776
4.85491
4.86666
4.87344
4.8745
4.8739
4.87183
4.86685
4.85642
4.8388
4.81743
4.79347
4.76736
4.7393
4.70929
4.67737
4.64355
4.60794
4.57063
4.53179
4.49156
4.4501
4.40753
4.36398
4.31956
4.27435
4.22842
4.18185
4.13471
4.08715
4.03927
3.99137
3.94356
3.89593
3.84836
3.80095
3.75362
3.70651
3.65955
3.61288
3.5664
3.52029
3.47444
3.42901
3.3839
3.33925
3.29503
3.25134
3.20817
3.16562
3.12375
3.08262
3.04241
3.00325
2.96552
2.92969
2.89722
2.86991
6.28718
5.83408
5.40812
5.02982
4.70751
4.44048
4.22306
4.04879
3.91055
3.8074
3.74341
3.73625
3.74717
3.78494
3.87331
4.04503
4.16474
4.17273
4.15725
4.10582
3.99071
3.8295
3.70009
3.61867
3.59143
3.59662
3.61832
3.67083
3.74908
3.85539
3.98448
4.11332
4.23184
4.33461
4.42132
4.49437
4.55668
4.61067
4.65777
4.69866
4.73402
4.76338
4.78771
4.80702
4.82076
4.82963
4.83296
4.83266
4.83135
4.82793
4.82057
4.80608
4.78699
4.76461
4.73965
4.71253
4.68338
4.65232
4.61937
4.58464
4.54818
4.51015
4.47064
4.42983
4.38783
4.34477
4.30075
4.25586
4.21017
4.16379
4.11676
4.06945
4.02204
3.97466
3.92731
3.88004
3.83281
3.78572
3.73871
3.69194
3.64533
3.59902
3.55293
3.50721
3.46177
3.41673
3.37204
3.32781
3.28402
3.24074
3.198
3.15587
3.11442
3.07371
3.03391
2.99513
2.95777
2.92222
2.88995
2.86268
6.3
5.88534
5.48849
5.12708
4.81087
4.54287
4.32154
4.14472
4.01146
3.92388
3.90557
3.91716
3.95856
4.05752
4.25998
4.47195
4.54357
4.532
4.48775
4.38308
4.18825
4.00056
3.84951
3.74177
3.67712
3.65401
3.65738
3.67314
3.7133
3.77971
3.86288
3.97291
4.09641
4.21512
4.31994
4.40841
4.48178
4.54274
4.59393
4.63734
4.67435
4.70564
4.73175
4.75304
4.76899
4.7802
4.78637
4.78722
4.78658
4.78443
4.77937
4.76889
4.75214
4.73166
4.70827
4.68235
4.65421
4.62404
4.59198
4.5581
4.52252
4.48531
4.44662
4.40652
4.36518
4.32266
4.27911
4.23457
4.18915
4.14298
4.09641
4.0496
4.00271
3.95578
3.90882
3.8619
3.81502
3.76829
3.72167
3.6753
3.62911
3.58323
3.5376
3.49232
3.44735
3.40279
3.35859
3.31485
3.27156
3.22879
3.18657
3.14497
3.10405
3.0639
3.02466
2.98648
2.94971
2.91478
2.88302
2.85639
6.31015
5.92794
5.55758
5.2144
4.90845
4.64527
4.42689
4.25702
4.13901
4.09668
4.10664
4.14665
4.24713
4.45895
4.74133
4.90545
4.90271
4.87235
4.78574
4.60498
4.37795
4.1798
4.02007
3.89726
3.80832
3.75132
3.72058
3.72101
3.72863
3.7529
3.80329
3.86663
3.95457
4.06832
4.18298
4.28823
4.37908
4.45451
4.51597
4.56588
4.60681
4.64074
4.66895
4.69235
4.71054
4.7243
4.7332
4.73716
4.73694
4.73577
4.73262
4.72575
4.71213
4.69411
4.67266
4.64832
4.62148
4.59242
4.56136
4.52844
4.49379
4.45751
4.41968
4.38042
4.33982
4.29796
4.25493
4.2108
4.16574
4.12009
4.07413
4.02792
3.98152
3.93502
3.88846
3.84195
3.79547
3.74917
3.70299
3.65707
3.61134
3.56594
3.52079
3.47601
3.43156
3.38752
3.34387
3.30068
3.25796
3.21578
3.17418
3.1332
3.09295
3.05351
3.01502
2.97766
2.94177
2.90784
2.87698
2.85166
6.31873
5.96438
5.61848
5.29459
5.00259
4.7507
4.54507
4.39378
4.31936
4.3257
4.35981
4.45429
4.66028
4.98949
5.2265
5.27314
5.25084
5.17753
5.01505
4.77977
4.55662
4.36521
4.20568
4.07447
3.96814
3.88558
3.82513
3.78762
3.77175
3.77453
3.78798
3.82006
3.86519
3.93548
4.03308
4.13973
4.24351
4.33629
4.41435
4.47749
4.52771
4.56772
4.59989
4.62597
4.64689
4.66303
4.67459
4.68174
4.68347
4.68296
4.68114
4.67678
4.66764
4.65234
4.63299
4.61042
4.58512
4.5574
4.52751
4.49565
4.462
4.42666
4.38976
4.35136
4.31155
4.27038
4.2279
4.18427
4.13985
4.0949
4.04955
4.0039
3.95801
3.912
3.86591
3.81986
3.77386
3.72803
3.68234
3.63692
3.59171
3.54683
3.50223
3.45801
3.41413
3.37068
3.32765
3.28509
3.24304
3.20154
3.16065
3.12044
3.08101
3.04246
3.00496
2.96871
2.93406
2.90165
2.87222
2.84911
6.32786
5.99677
5.67469
5.37178
5.09885
4.86595
4.68754
4.5746
4.57629
4.60348
4.68857
4.88158
5.23561
5.52305
5.62099
5.606
5.5477
5.411
5.1747
4.94194
4.73579
4.55646
4.39999
4.26308
4.1438
4.04179
3.95738
3.89103
3.84411
3.81407
3.80897
3.8138
3.83031
3.86352
3.91311
3.99236
4.08876
4.18844
4.2811
4.36121
4.42703
4.47933
4.52016
4.55197
4.57678
4.59609
4.61026
4.62016
4.62538
4.62545
4.62473
4.62236
4.61686
4.6056
4.58866
4.56817
4.54471
4.5186
4.49013
4.45951
4.42697
4.39267
4.35675
4.31927
4.2803
4.23982
4.19799
4.15512
4.11151
4.06732
4.02264
3.97761
3.93231
3.88686
3.84132
3.79582
3.75036
3.70508
3.65995
3.61508
3.57045
3.52615
3.48216
3.43855
3.39532
3.35252
3.31018
3.26834
3.22704
3.18633
3.14629
3.107
3.06857
3.03115
2.99493
2.9602
2.92727
2.89707
2.86984
2.84979
6.34105
6.02979
5.73078
5.45182
5.20474
5.00524
4.87148
4.84842
4.87269
4.95369
5.14097
5.50056
5.8157
5.94938
5.94025
5.89411
5.77884
5.55303
5.31936
5.1075
4.91987
4.75116
4.5971
4.45554
4.32614
4.20944
4.1065
4.01826
3.94592
3.88929
3.85121
3.82886
3.82959
3.83664
3.85432
3.89071
3.94974
4.03397
4.1253
4.2153
4.29706
4.36636
4.422
4.46509
4.4978
4.52237
4.54053
4.55324
4.56132
4.5645
4.56423
4.56302
4.55983
4.55292
4.53938
4.52153
4.50026
4.47602
4.44917
4.41999
4.38873
4.35558
4.32071
4.28418
4.24604
4.20631
4.16532
4.12337
4.08064
4.03725
3.99332
3.94898
3.90434
3.85954
3.81463
3.76974
3.72489
3.68022
3.6357
3.59145
3.54746
3.5038
3.46048
3.41756
3.37504
3.33299
3.29142
3.25039
3.20996
3.17018
3.13116
3.09298
3.05581
3.01984
2.98531
2.95264
2.92213
2.89513
2.87068
2.85396
6.36173
6.06839
5.79363
5.54434
5.33648
5.18947
5.14871
5.1708
5.24944
5.43453
5.79736
6.1218
6.27235
6.2662
6.22444
6.11562
5.89876
5.67394
5.46807
5.28146
5.10946
4.94748
4.79353
4.64724
4.50954
4.38155
4.26456
4.15963
4.06777
3.98972
3.92634
3.87818
3.84661
3.83368
3.83562
3.84366
3.86481
3.90834
3.97423
4.05535
4.14166
4.2241
4.29661
4.35625
4.40272
4.43742
4.46248
4.48006
4.49144
4.49801
4.49948
4.49899
4.49728
4.4932
4.48463
4.47
4.45125
4.42917
4.40421
4.3767
4.34693
4.31508
4.28136
4.24584
4.20854
4.16971
4.12975
4.0888
4.04701
4.0045
3.9614
3.91787
3.874
3.82993
3.78573
3.74155
3.6974
3.65341
3.60959
3.56604
3.52276
3.47984
3.43727
3.39512
3.35341
3.31219
3.27151
3.23142
3.192
3.15332
3.11552
3.07872
3.04316
3.00908
2.97684
2.94699
2.92001
2.89673
2.87534
2.86428
6.39827
6.11922
5.87196
5.66379
5.51433
5.4674
5.48935
5.57034
5.76208
6.13221
6.45503
6.60501
6.59791
6.55238
6.43705
6.2195
6.00247
5.80513
5.62623
5.45898
5.29745
5.13919
4.98438
4.83415
4.69007
4.55361
4.42604
4.30844
4.2017
4.10655
4.02371
3.95392
3.89798
3.85731
3.83232
3.82736
3.82849
3.83701
3.86089
3.91082
3.98116
4.0616
4.14312
4.21836
4.28227
4.33271
4.37022
4.3967
4.41443
4.4251
4.43051
4.43067
4.43001
4.4279
4.423
4.41291
4.39713
4.37757
4.35487
4.32935
4.30131
4.27097
4.23855
4.20407
4.1678
4.13011
4.09126
4.05137
4.0106
3.96907
3.92692
3.88428
3.84127
3.79804
3.75464
3.71124
3.66787
3.62465
3.58161
3.53884
3.49636
3.45425
3.41253
3.37125
3.33047
3.2902
3.25056
3.21156
3.17335
3.136
3.09972
3.06468
3.03121
2.99967
2.97055
2.94481
2.92182
2.90294
2.8871
2.8837
6.45982
6.18975
5.97983
5.83465
5.79442
5.81929
5.90993
6.12223
6.50491
6.82331
6.95807
6.94589
6.88736
6.74946
6.52871
6.31233
6.12125
5.95046
5.79066
5.63478
5.47902
5.32276
5.1672
5.01417
4.86545
4.7227
4.58718
4.45994
4.34181
4.23345
4.1355
4.04852
3.9731
3.91045
3.86155
3.82695
3.81247
3.80359
3.80579
3.81735
3.84594
3.90387
3.97555
4.05471
4.13111
4.19852
4.25355
4.29516
4.32442
4.34348
4.3544
4.35881
4.35865
4.35764
4.35491
4.34895
4.33698
4.32046
4.30043
4.27728
4.25134
4.22281
4.19188
4.15868
4.12368
4.08724
4.04959
4.01087
3.97122
3.93078
3.88967
3.84804
3.806
3.7637
3.72122
3.67872
3.63622
3.59389
3.55172
3.50984
3.46827
3.42709
3.38633
3.34605
3.30632
3.26716
3.22872
3.19102
3.15428
3.11859
3.08425
3.05151
3.02086
2.99281
2.96824
2.94707
2.92887
2.91721
2.91124
2.91221
6.54558
6.29566
6.14036
6.11796
6.14981
6.25986
6.51057
6.91604
7.22889
7.3394
7.31957
7.24022
7.06454
6.83252
6.61347
6.42439
6.25929
6.10678
5.95796
5.80729
5.65378
5.49811
5.34165
5.1865
5.03438
4.88699
4.74551
4.61096
4.48408
4.36552
4.2558
4.15538
4.06488
3.98485
3.9162
3.85996
3.81739
3.79228
3.7752
3.76799
3.77204
3.78787
3.82363
3.887
3.95851
4.03396
4.10469
4.16488
4.21183
4.24545
4.2672
4.27909
4.28332
4.283
4.28157
4.27804
4.2706
4.25746
4.24033
4.21986
4.19639
4.17004
4.14094
4.10939
4.07597
4.04098
4.00469
3.96726
3.92885
3.8896
3.84964
3.80913
3.76817
3.72692
3.68547
3.64397
3.60248
3.56112
3.51997
3.47908
3.43855
3.39841
3.35876
3.31962
3.28111
3.24326
3.20626
3.17017
3.13524
3.10168
3.06987
3.04027
3.01347
2.99057
2.97087
2.95554
2.94487
2.945
2.94694
2.9534
6.69733
6.46946
6.43454
6.4762
6.61366
6.91978
7.3651
7.67546
7.75503
7.72397
7.6174
7.39408
7.14111
6.91389
6.72261
6.55913
6.41111
6.26801
6.1235
5.97458
5.82143
5.66529
5.50784
5.35099
5.19637
5.04557
4.89958
4.75952
4.62589
4.49941
4.38048
4.26951
4.16702
4.07339
3.98931
3.9155
3.85293
3.80303
3.76779
3.74452
3.72567
3.72571
3.73199
3.75138
3.79327
3.85788
3.93008
4.00204
4.06694
4.11993
4.15891
4.18446
4.19865
4.20337
4.20301
4.20136
4.19724
4.18861
4.17454
4.15677
4.13592
4.11201
4.08519
4.05579
4.02434
3.9911
3.9564
3.92041
3.88336
3.84541
3.80672
3.76743
3.72767
3.6876
3.64731
3.60694
3.5666
3.52636
3.48635
3.44661
3.40727
3.36832
3.32995
3.29213
3.25507
3.21879
3.18354
3.14946
3.11687
3.08613
3.05778
3.03246
3.01153
2.99373
2.98065
2.97476
2.97595
2.98064
2.99338
3.02222
6.84698
6.77398
6.82102
6.98327
7.34553
7.846
8.1618
8.20651
8.16136
8.02213
7.74137
7.46219
7.22117
7.02291
6.85709
6.70994
6.57006
6.42989
6.28568
6.13611
5.98211
5.82497
5.66646
5.5082
5.35175
5.19828
5.04895
4.90447
4.76562
4.63281
4.50651
4.38718
4.27519
4.17087
4.07463
3.98705
3.90873
3.84069
3.78393
3.74021
3.70975
3.68472
3.66909
3.67112
3.68126
3.70624
3.75703
3.82132
3.89232
3.96007
4.01819
4.06319
4.09412
4.1118
4.11909
4.1188
4.11707
4.11264
4.10334
4.0886
4.07014
4.04855
4.02418
3.99735
3.9683
3.93724
3.90444
3.87015
3.83464
3.79815
3.76084
3.72292
3.68448
3.64573
3.60673
3.56767
3.5286
3.48966
3.45094
3.41252
3.37452
3.33699
3.30009
3.26386
3.22853
3.19418
3.16114
3.12965
3.10019
3.0733
3.04972
3.03102
3.01562
3.00454
3.00352
3.00574
3.01322
3.03094
3.06504
3.13382
7.03097
7.14708
7.39571
7.88263
8.38153
8.68881
8.6912
8.6274
8.44723
8.11406
7.80199
7.54259
7.33303
7.16045
7.01017
6.86982
6.73112
6.58943
6.44297
6.29138
6.1359
5.97764
5.8181
5.65873
5.50078
5.34531
5.19327
5.04533
4.9022
4.7643
4.63215
4.50605
4.38637
4.27343
4.16751
4.06905
3.97839
3.89628
3.82328
3.76072
3.70878
3.67179
3.63905
3.6147
3.60721
3.61106
3.6247
3.65543
3.712
3.77634
3.84403
3.90666
3.95823
3.9956
4.0188
4.02985
4.02981
4.02849
4.02445
4.0156
3.99987
3.98029
3.95818
3.93392
3.90753
3.879
3.84848
3.81623
3.78254
3.74772
3.71198
3.67557
3.63861
3.60132
3.56378
3.52618
3.48855
3.4511
3.41385
3.37697
3.34052
3.30466
3.26949
3.2352
3.20198
3.1701
3.13993
3.11191
3.08677
3.06525
3.049
3.03628
3.02872
3.02963
3.0342
3.04636
3.07212
3.12366
3.17693
3.27491
7.39327
7.84011
8.44695
8.99988
9.26212
9.24314
9.13199
8.87286
8.50679
8.16351
7.88227
7.65838
7.47597
7.31887
7.17428
7.03338
6.8911
6.74512
6.59482
6.44082
6.28327
6.12378
5.96326
5.80296
5.64369
5.4866
5.33224
5.18152
5.03483
4.89282
4.75579
4.62417
4.49822
4.37827
4.26455
4.15738
4.05696
3.96384
3.8783
3.8012
3.73321
3.67518
3.63008
3.5915
3.56063
3.5385
3.53916
3.54523
3.56259
3.59961
3.6573
3.72231
3.78711
3.84426
3.88879
3.91844
3.93416
3.93736
3.93633
3.93271
3.92447
3.90798
3.88829
3.8662
3.84213
3.81606
3.78804
3.75819
3.72673
3.69393
3.66007
3.62539
3.59012
3.55447
3.51856
3.48258
3.44661
3.41083
3.37528
3.34016
3.30555
3.27165
3.23861
3.2067
3.17622
3.14755
3.12126
3.09809
3.07903
3.06581
3.05516
3.05291
3.05518
3.06246
3.0807
3.1181
3.17427
3.25209
3.32232
3.42897
8.08842
9.03812
9.70152
9.92519
9.87775
9.6968
9.31915
8.91205
8.54516
8.24317
8.00296
7.80847
7.64211
7.49
7.34315
7.19653
7.04764
6.89584
6.74103
6.58389
6.42436
6.26368
6.10219
5.94095
5.78051
5.62195
5.46566
5.31257
5.16296
5.0175
4.87643
4.7402
4.60906
4.48333
4.36323
4.24898
4.14083
4.03886
3.94361
3.85523
3.77449
3.7019
3.63858
3.58592
3.54262
3.50365
3.47517
3.46196
3.46404
3.473
3.49485
3.53936
3.59733
3.66165
3.72261
3.77335
3.81022
3.83203
3.84065
3.84006
3.83718
3.83001
3.81528
3.79581
3.77344
3.74921
3.7234
3.69601
3.66708
3.63666
3.60503
3.5724
3.5391
3.5053
3.47126
3.4371
3.40302
3.36911
3.33554
3.30246
3.27004
3.23852
3.20815
3.17929
3.15242
3.12807
3.10728
3.091
3.08064
3.07356
3.07433
3.07869
3.09086
3.11694
3.16664
3.23375
3.31235
3.40381
3.4786
3.57345
9.41889
10.5306
10.7014
10.6076
10.325
9.80977
9.34079
8.94536
8.62301
8.36771
8.16071
7.98367
7.82198
7.66626
7.5117
7.35631
7.19954
7.04134
6.88181
6.72124
6.55961
6.39736
6.23479
6.07249
5.91102
5.75106
5.59322
5.43805
5.28606
5.13768
4.9932
4.85307
4.71762
4.58711
4.46167
4.34154
4.22685
4.1178
4.0146
3.91745
3.82679
3.7429
3.66658
3.59845
3.53961
3.49136
3.44621
3.41038
3.38466
3.38162
3.38497
3.39667
3.42298
3.47409
3.53289
3.59462
3.65067
3.69482
3.7237
3.73942
3.73989
3.73831
3.73322
3.72199
3.70256
3.68009
3.65598
3.63065
3.60403
3.57609
3.54693
3.5167
3.48568
3.45407
3.42215
3.39008
3.35811
3.32637
3.29508
3.26442
3.23467
3.20612
3.17919
3.15436
3.1324
3.11409
3.10156
3.09351
3.09165
3.09388
3.10182
3.12078
3.15938
3.21764
3.2924
3.37948
3.4683
3.556
3.61938
3.68925
11.0134
11.6273
11.4602
11.0146
10.3614
9.80723
9.36678
9.0184
8.75069
8.53335
8.34565
8.17299
8.0063
7.84115
7.67612
7.51118
7.34646
7.18206
7.01781
6.85365
6.68961
6.52529
6.36136
6.19791
6.03531
5.87406
5.71463
5.55754
5.40325
5.2522
5.10488
4.96162
4.82246
4.68789
4.55792
4.43292
4.31285
4.19797
4.08835
3.98414
3.88562
3.79293
3.7066
3.62696
3.55493
3.49073
3.4367
3.38738
3.34431
3.31294
3.29603
3.29686
3.30247
3.31811
3.35141
3.40458
3.46472
3.52365
3.57366
3.61045
3.63213
3.63917
3.63835
3.63482
3.62618
3.60864
3.58718
3.56349
3.53856
3.51271
3.48598
3.45838
3.42997
3.40094
3.3715
3.34189
3.31237
3.28317
3.25457
3.22686
3.20043
3.17572
3.15334
3.13405
3.11879
3.11
3.10602
3.10703
3.11224
3.12592
3.15462
3.20507
3.27249
3.35487
3.44544
3.53669
3.6176
3.68564
3.72757
3.77011
12.0517
12.1202
11.774
11.0153
10.3313
9.81684
9.43162
9.14958
8.92416
8.7275
8.54347
8.3641
8.18625
8.0093
7.8337
7.6599
7.48801
7.31784
7.14895
6.981
6.81382
6.6472
6.48144
6.31657
6.15275
5.99018
5.82935
5.67061
5.51442
5.36119
5.21121
5.06501
4.9226
4.78457
4.65072
4.5216
4.39697
4.27721
4.16225
4.05224
3.94735
3.84764
3.75348
3.66505
3.58289
3.50747
3.43946
3.38072
3.32689
3.2791
3.24064
3.21521
3.20675