/*--------------------------------*- C++ -*----------------------------------*\
  =========                 |
  \\      /  F ield         | OpenFOAM: The Open Source CFD Toolbox
   \\    /   O peration     | Website:  https://openfoam.org
    \\  /    A nd           | Version:  10
     \\/     M anipulation  |
\*---------------------------------------------------------------------------*/
FoamFile
{
    format      ascii;
    class       volScalarField;
    location    "8";
    object      rho;
}
// * * * * * * * * * * * * * * * * * * * * * * * * * * * * * * * * * * * * * //

dimensions      [1 -3 0 0 0 0 0];

internalField   nonuniform List<scalar> 
5250
(
1.40001
1.40003
1.40007
1.4002
1.40046
1.40122
1.40279
1.40746
1.41675
1.44361
1.49826
1.6284
1.89183
2.55104
5.13862
5.75278
5.69163
5.66169
5.68202
5.76099
5.84466
5.89782
5.93693
5.96942
5.99792
1.40001
1.40003
1.40007
1.4002
1.40044
1.40124
1.40273
1.40737
1.41668
1.44296
1.4973
1.6264
1.88698
2.53609
5.0975
5.7524
5.69077
5.65873
5.67931
5.75863
5.84234
5.8958
5.9358
5.96918
5.9987
1.40001
1.40003
1.40007
1.4002
1.40043
1.40123
1.40257
1.40743
1.41571
1.44293
1.49373
1.62276
1.87613
2.50543
5.00585
5.75232
5.68803
5.64923
5.66899
5.74767
5.82964
5.88342
5.92322
5.95763
5.9866
1.40001
1.40002
1.40007
1.40017
1.40046
1.40104
1.40286
1.40623
1.41712
1.43782
1.49527
1.61028
1.86504
2.45675
4.86142
5.7557
5.6851
5.63321
5.65156
5.72722
5.80808
5.85774
5.897
5.92924
5.96041
1.40001
1.40002
1.40007
1.40016
1.40045
1.40097
1.40271
1.40597
1.41602
1.43624
1.49025
1.60044
1.84434
2.39617
4.65972
5.76414
5.68315
5.61162
5.62774
5.69793
5.77753
5.82585
5.86206
5.89464
5.9253
1.40001
1.40002
1.40006
1.40015
1.40041
1.40093
1.40249
1.40556
1.41499
1.43358
1.48454
1.58793
1.81809
2.32304
4.39568
5.7821
5.68399
5.58525
5.59807
5.66225
5.73662
5.78244
5.81411
5.84255
5.87594
1.40001
1.40002
1.40006
1.40015
1.40035
1.40091
1.40209
1.40558
1.41253
1.43283
1.47444
1.57596
1.78393
2.24133
4.06486
5.81224
5.6898
5.55419
5.56204
5.61703
5.68396
5.72252
5.75004
5.77254
5.80541
1.40001
1.40002
1.40005
1.40014
1.40031
1.40081
1.4019
1.40483
1.41159
1.42859
1.46776
1.55792
1.7482
2.15263
3.67617
5.84676
5.70301
5.52429
5.52389
5.56639
5.62326
5.65007
5.66498
5.67579
5.70375
1.40001
1.40002
1.40004
1.40012
1.40026
1.40075
1.40155
1.40454
1.40937
1.42661
1.45706
1.54225
1.7073
2.06714
3.23941
5.85637
5.71378
5.49834
5.48597
5.50711
5.55081
5.55844
5.55376
5.53732
5.5435
1.40001
1.40002
1.40004
1.40011
1.40023
1.40066
1.40137
1.40392
1.40833
1.42306
1.45035
1.52535
1.67271
1.99248
2.90642
5.73138
5.67016
5.47303
5.43835
5.44086
5.4616
5.44981
5.41658
5.34515
5.28828
1.40001
1.40001
1.40004
1.40008
1.40023
1.40051
1.40134
1.40315
1.40793
1.41902
1.44661
1.50807
1.64635
1.92973
2.679
5.39672
5.52935
5.4438
5.3745
5.36596
5.35504
5.32137
5.23018
5.01713
4.41718
1.40001
1.40001
1.40004
1.40007
1.4002
1.40043
1.40123
1.40257
1.40736
1.41561
1.44242
1.49283
1.62019
1.8708
2.4875
4.91998
5.44465
5.40121
5.30831
5.28332
5.25091
5.18239
5.03578
4.73957
4.10043
1.40001
1.40001
1.40003
1.40007
1.40015
1.40043
1.4009
1.40254
1.40549
1.41503
1.43343
1.48448
1.58664
1.8163
2.31543
4.36803
5.40037
5.36375
5.25486
5.19498
5.14562
5.04909
4.86072
4.5532
4.06526
1.40001
1.40001
1.40002
1.40006
1.40013
1.40036
1.40075
1.40214
1.4045
1.41273
1.42747
1.47158
1.55715
1.75595
2.15999
3.75239
5.39298
5.34875
5.21719
5.11787
5.04168
4.92812
4.73874
4.4535
4.07155
1.40001
1.40001
1.40002
1.40004
1.40012
1.40025
1.4007
1.40149
1.40416
1.4091
1.4243
1.45442
1.5325
1.68939
2.02075
3.05885
5.35345
5.32845
5.20786
5.05722
4.95632
4.82821
4.64514
4.39505
4.07535
1.40001
1.40001
1.40002
1.40004
1.4001
1.4002
1.40057
1.40118
1.40338
1.40716
1.41985
1.44324
1.50867
1.6367
1.91649
2.62341
5.08093
5.25411
5.17885
5.00857
4.8861
4.75576
4.57483
4.34741
4.07352
1.40001
1.40001
1.40002
1.40003
1.40008
1.40016
1.40046
1.40095
1.40269
1.40579
1.41583
1.43503
1.48825
1.59429
1.83117
2.3544
4.44398
5.14261
5.10323
4.97488
4.82547
4.69248
4.52303
4.31098
4.06606
1.40001
1.40001
1.40001
1.40003
1.40006
1.40013
1.40035
1.40075
1.40213
1.40448
1.41263
1.4271
1.47093
1.55478
1.75129
2.14324
3.69834
5.08837
5.06313
4.96249
4.78531
4.63805
4.47759
4.28356
4.05948
1.40001
1.40001
1.40001
1.40002
1.40004
1.40011
1.40023
1.40067
1.40138
1.40395
1.40826
1.42296
1.44969
1.52382
1.66805
1.96981
2.85668
4.97562
5.04793
4.96962
4.7826
4.60626
4.44263
4.2623
4.05774
1.40001
1.40001
1.40001
1.40002
1.40004
1.40008
1.4002
1.40045
1.40116
1.40274
1.40675
1.41645
1.43938
1.49316
1.61116
1.8547
2.4315
4.55383
4.98361
4.93125
4.78351
4.58687
4.41735
4.24563
4.05672
1.40001
1.40001
1.40001
1.40001
1.40003
1.40006
1.40015
1.40033
1.40091
1.4019
1.40547
1.41138
1.43164
1.46813
1.56624
1.75551
2.16591
3.76719
4.88934
4.86875
4.77903
4.58234
4.40231
4.23516
4.05923
1.40001
1.40001
1.40001
1.40001
1.40002
1.40005
1.4001
1.40028
1.40057
1.4016
1.40344
1.40939
1.42065
1.45355
1.51793
1.67185
1.95744
2.86332
4.7331
4.84579
4.77894
4.6089
4.40681
4.23338
4.06484
1.40001
1.40001
1.40001
1.40001
1.40002
1.40004
1.40007
1.4002
1.40042
1.40113
1.40253
1.40658
1.41521
1.43803
1.48712
1.60132
1.82638
2.35461
4.26417
4.7902
4.74995
4.63007
4.42679
4.24468
4.07731
1.40001
1.40001
1.40001
1.40001
1.40001
1.40003
1.40005
1.40014
1.40031
1.40078
1.40188
1.40452
1.41128
1.42644
1.46441
1.5466
1.72435
2.07647
3.42664
4.68605
4.68948
4.62789
4.46357
4.2693
4.09928
1.40001
1.40001
1.40001
1.40001
1.40001
1.40002
1.40004
1.40009
1.40023
1.40051
1.40133
1.40307
1.40771
1.41819
1.44433
1.50187
1.63112
1.87146
2.51314
4.42034
4.68439
4.6337
4.50321
4.30304
4.12556
1.40001
1.40001
1.40001
1.40001
1.40001
1.40001
1.40003
1.40006
1.40016
1.40035
1.40094
1.40207
1.40542
1.41244
1.43121
1.47179
1.56717
1.7587
2.16438
3.72551
4.61095
4.59551
4.52695
4.35745
4.16197
1.40001
1.40001
1.40001
1.40001
1.40001
1.40001
1.40002
1.40004
1.40011
1.40023
1.40065
1.40135
1.40379
1.40799
1.42194
1.44728
1.51768
1.65249
1.92128
2.74441
4.40122
4.58657
4.53855
4.41505
4.21218
1.40001
1.40001
1.40001
1.40001
1.40001
1.40001
1.40002
1.40003
1.40007
1.40016
1.40043
1.40092
1.40253
1.40535
1.41476
1.43158
1.48111
1.57484
1.78171
2.21889
3.83748
4.52268
4.50861
4.44389
4.28575
1.40001
1.40001
1.40001
1.40001
1.40001
1.40001
1.40001
1.40002
1.40005
1.40012
1.40027
1.40064
1.40159
1.40367
1.40948
1.42129
1.45381
1.51954
1.67005
1.94294
2.87822
4.32338
4.49565
4.45673
4.35605
1.40001
1.40001
1.40001
1.40001
1.40001
1.40001
1.40001
1.40002
1.40003
1.40008
1.40017
1.40045
1.40094
1.40262
1.40551
1.41518
1.43257
1.48267
1.57924
1.78115
2.23087
3.81064
4.43877
4.43778
4.39334
1.40001
1.40001
1.40001
1.40001
1.40001
1.40001
1.40001
1.40001
1.40003
1.40005
1.40012
1.40025
1.40069
1.4015
1.40393
1.4089
1.42252
1.45149
1.52216
1.66429
1.93655
2.85279
4.23083
4.44258
4.42193
1.40001
1.40001
1.40001
1.40001
1.40001
1.40001
1.40001
1.40001
1.40002
1.40003
1.40008
1.40017
1.40042
1.401
1.40236
1.40593
1.41361
1.434
1.47726
1.57763
1.76724
2.20165
3.70992
4.3868
4.47501
1.40001
1.40001
1.40001
1.40001
1.40001
1.40001
1.40001
1.40001
1.40001
1.40002
1.40005
1.40011
1.40027
1.40059
1.4016
1.40336
1.40935
1.4196
1.45205
1.5112
1.65539
1.90173
2.71093
4.16817
4.54068
1.40001
1.40001
1.40001
1.40001
1.40001
1.40001
1.40001
1.40001
1.40001
1.40002
1.40003
1.40007
1.40018
1.40037
1.40102
1.40213
1.40585
1.4125
1.43309
1.47191
1.5719
1.75054
2.167
3.60128
4.50411
1.40001
1.40001
1.40001
1.40001
1.40001
1.40001
1.40001
1.40001
1.40001
1.40001
1.40002
1.40005
1.4001
1.40027
1.40056
1.40155
1.40326
1.40893
1.41907
1.4498
1.50759
1.64729
1.88811
2.58115
4.33317
1.40001
1.40001
1.40001
1.40001
1.40001
1.40001
1.40001
1.40001
1.40001
1.40001
1.40002
1.40003
1.40007
1.40018
1.4004
1.40106
1.40226
1.40633
1.41314
1.4362
1.47691
1.58717
1.79303
2.27514
3.82734
1.40001
1.40001
1.40001
1.40001
1.40001
1.40001
1.40001
1.40001
1.40001
1.40001
1.40001
1.40003
1.40005
1.40014
1.4003
1.40083
1.40175
1.40487
1.41051
1.42814
1.46235
1.55147
1.72991
2.11513
3.29451
1.40001
1.40001
1.40001
1.40001
1.40001
1.40001
1.40001
1.40001
1.40001
1.40001
1.40001
1.40002
1.40005
1.40012
1.40026
1.4007
1.40157
1.40413
1.40961
1.42441
1.45706
1.53616
1.70309
2.04859
3.13921
1.40001
1.40001
1.40001
1.40001
1.40001
1.40001
1.40001
1.40001
1.40001
1.40001
1.40001
1.40002
1.40005
1.4001
1.40027
1.40059
1.40158
1.40364
1.40946
1.42216
1.45559
1.52731
1.69191
2.0171
3.05467
1.40001
1.40001
1.40001
1.40001
1.40001
1.40001
1.40001
1.40001
1.40001
1.40001
1.40001
1.40002
1.40004
1.40011
1.40023
1.40061
1.40145
1.40362
1.40897
1.42173
1.45335
1.52491
1.68296
2.00501
3.00043
1.40001
1.40001
1.40001
1.40001
1.40001
1.40001
1.40001
1.40001
1.40001
1.40001
1.40001
1.40002
1.40004
1.4001
1.40023
1.40061
1.40135
1.40377
1.40814
1.42263
1.45009
1.52497
1.67594
1.99721
2.95708
1.40001
1.40001
1.40001
1.40001
1.40001
1.40001
1.40001
1.40001
1.40001
1.40001
1.40001
1.40002
1.40004
1.4001
1.40022
1.40061
1.40133
1.40365
1.40825
1.42183
1.45006
1.52279
1.67256
1.98699
2.92459
1.40001
1.40001
1.40001
1.40001
1.40001
1.40001
1.40001
1.40001
1.40001
1.40001
1.40001
1.40002
1.40004
1.4001
1.40021
1.40061
1.40128
1.40368
1.40794
1.42196
1.4489
1.52222
1.66923
1.97721
2.89964
1.40001
1.40001
1.40001
1.40001
1.40001
1.40001
1.40001
1.40001
1.40001
1.40001
1.40001
1.40002
1.40004
1.40009
1.40023
1.40054
1.40144
1.40327
1.40882
1.41997
1.45157
1.51756
1.67071
1.96522
2.8813
1.40001
1.40001
1.40001
1.40001
1.40001
1.40001
1.40001
1.40001
1.40001
1.40001
1.40001
1.40002
1.40004
1.4001
1.40021
1.4006
1.40125
1.40371
1.40768
1.42212
1.44766
1.52131
1.66554
1.95799
2.865
1.40001
1.40001
1.40001
1.40001
1.40001
1.40001
1.40001
1.40001
1.40001
1.40001
1.40001
1.40002
1.40004
1.4001
1.40021
1.4006
1.40125
1.4037
1.40769
1.42199
1.44758
1.52075
1.66437
1.94915
2.85053
1.40001
1.40001
1.40001
1.40001
1.40001
1.40001
1.40001
1.40001
1.40001
1.40001
1.40001
1.40002
1.40004
1.40009
1.40024
1.40052
1.40149
1.40312
1.40902
1.41929
1.45183
1.51501
1.66835
1.93967
2.83748
1.40001
1.40001
1.40001
1.40001
1.40001
1.40001
1.40001
1.40001
1.40001
1.40001
1.40001
1.40002
1.40004
1.40009
1.40023
1.40056
1.40136
1.40346
1.40819
1.42093
1.44908
1.51779
1.66478
1.9392
2.82337
1.40001
1.40001
1.40001
1.40001
1.40001
1.40001
1.40001
1.40001
1.40001
1.40001
1.40001
1.40002
1.40004
1.4001
1.40021
1.4006
1.40128
1.4036
1.40795
1.42136
1.4482
1.51897
1.66254
1.93958
2.81284
1.40001
1.40001
1.40001
1.40001
1.40001
1.40001
1.40001
1.40001
1.40001
1.40001
1.40001
1.40002
1.40004
1.40009
1.40023
1.40056
1.40135
1.4035
1.4081
1.42109
1.44869
1.51786
1.66338
1.93895
2.8073
2.23744
1.76631
2.11179
1.99554
1.86265
1.84347
1.83114
1.80551
1.76971
1.73647
1.70856
1.68117
1.65201
1.62113
1.58926
1.57418
1.56902
1.56804
1.57243
1.5933
1.62794
1.67402
1.72683
1.7817
1.83685
1.88988
1.93961
1.98693
2.02989
2.0704
2.10901
2.14385
2.17751
2.20792
2.23775
2.26454
2.28877
2.31019
2.32943
2.3456
2.36176
2.37539
2.38769
2.39529
2.40275
2.40704
2.41093
2.41222
2.41165
2.40896
2.40594
2.40107
2.3959
2.38862
2.38099
2.37189
2.36224
2.35148
2.34069
2.32829
2.31645
2.30309
2.28989
2.2758
2.26155
2.24682
2.23147
2.21643
2.20023
2.1846
2.16811
2.15164
2.13491
2.11784
2.10061
2.08326
2.06551
2.0479
2.02986
2.012
1.99387
1.97588
1.95769
1.9398
1.92145
1.9039
1.88534
1.86818
1.84959
1.83271
1.81442
1.79773
1.7801
1.76372
1.74704
1.73161
1.71655
1.70331
1.69135
1.68369
2.75458
2.33253
2.31869
2.08563
1.88066
1.82108
1.79254
1.74705
1.69642
1.65068
1.62143
1.59203
1.56133
1.52894
1.50053
1.47938
1.4698
1.46603
1.46556
1.48572
1.51871
1.56651
1.62246
1.68105
1.74246
1.80096
1.8585
1.91304
1.96395
2.01347
2.05985
2.10182
2.14204
2.1803
2.21834
2.25187
2.28475
2.31312
2.34079
2.36425
2.3877
2.40697
2.42568
2.4391
2.45166
2.45966
2.46848
2.47322
2.47703
2.4772
2.47741
2.47509
2.47239
2.46674
2.46137
2.45334
2.4455
2.43592
2.42587
2.41479
2.4028
2.39055
2.37674
2.36368
2.34852
2.33453
2.31863
2.30353
2.28711
2.27109
2.25403
2.23738
2.2196
2.20247
2.18408
2.16648
2.14769
2.12963
2.11061
2.0922
2.07299
2.05448
2.03501
2.01665
1.99693
1.97887
1.95901
1.94124
1.92151
1.90392
1.88461
1.86722
1.84876
1.83178
1.81439
1.79829
1.78248
1.76843
1.75565
1.74695
3.25229
2.76455
2.53125
2.34414
2.12552
1.99385
1.86299
1.77079
1.69455
1.6373
1.59862
1.56509
1.52081
1.48048
1.44676
1.42509
1.41413
1.40877
1.41094
1.42794
1.45824
1.50579
1.56688
1.63278
1.69943
1.76548
1.83015
1.8919
1.94985
2.00556
2.05703
2.10709
2.15411
2.20063
2.24391
2.28551
2.32348
2.35927
2.3913
2.42148
2.4478
2.4729
2.49318
2.51216
2.52601
2.53911
2.54884
2.55848
2.56361
2.56645
2.56694
2.56754
2.56505
2.56263
2.55722
2.55191
2.54398
2.53646
2.52628
2.51695
2.50498
2.49387
2.48062
2.46774
2.45357
2.43915
2.42407
2.40845
2.39242
2.37585
2.35889
2.34151
2.32373
2.30559
2.28712
2.26825
2.24926
2.22977
2.21036
2.19048
2.17067
2.15067
2.13048
2.11052
2.09005
2.07022
2.04968
2.02986
2.00963
1.9899
1.97032
1.95062
1.93168
1.91224
1.89424
1.87559
1.85901
1.8423
1.8286
1.81707
3.50586
3.03083
2.72959
2.51359
2.34123
2.18463
2.0802
1.9423
1.82589
1.71233
1.64203
1.58843
1.5346
1.48336
1.44588
1.421
1.40553
1.40131
1.40761
1.42042
1.453
1.5069
1.57468
1.64781
1.72279
1.79669
1.86837
1.93736
2.00251
2.06554
2.12456
2.18249
2.23616
2.28895
2.33704
2.38343
2.42452
2.46344
2.49761
2.52906
2.55692
2.58138
2.60318
2.62073
2.63636
2.64738
2.6581
2.66611
2.67257
2.67312
2.67352
2.67141
2.66899
2.6642
2.6583
2.6509
2.64202
2.63237
2.62115
2.60947
2.59646
2.583
2.56864
2.55375
2.53821
2.52221
2.50556
2.48869
2.47108
2.45346
2.4351
2.41675
2.39779
2.37872
2.35928
2.33957
2.31976
2.29963
2.27953
2.25923
2.23887
2.21865
2.19808
2.17801
2.15739
2.13774
2.1173
2.09796
2.07779
2.05857
2.0388
2.0198
2.00054
1.982
1.96344
1.94584
1.92846
1.91282
1.89801
1.88729
3.63584
3.22312
2.90916
2.67689
2.50616
2.35391
2.23653
2.12667
2.00986
1.90369
1.80075
1.70359
1.62499
1.55249
1.50027
1.46675
1.44487
1.43816
1.44259
1.46291
1.5065
1.56748
1.64094
1.71846
1.80051
1.88192
1.96059
2.03628
2.10784
2.17592
2.24042
2.30135
2.35934
2.41327
2.46446
2.51072
2.554
2.59243
2.62747
2.65869
2.68577
2.71056
2.73046
2.749
2.76223
2.77435
2.78222
2.79128
2.79508
2.79785
2.79419
2.79261
2.7863
2.78209
2.773
2.76572
2.75413
2.74402
2.73048
2.718
2.70292
2.6885
2.6721
2.65614
2.63858
2.62141
2.60286
2.5847
2.5653
2.54624
2.52612
2.50619
2.48544
2.46471
2.44341
2.42206
2.40021
2.37852
2.35615
2.33439
2.31151
2.28995
2.26686
2.24576
2.22258
2.20165
2.17853
2.15776
2.13493
2.11426
2.09198
2.07153
2.04999
2.02997
2.00943
1.9903
1.97126
1.95394
1.93776
1.92493
3.71731
3.35942
3.06521
2.83015
2.64847
2.50129
2.3745
2.26786
2.16276
2.06285
1.96963
1.88028
1.79456
1.72189
1.65657
1.60825
1.57908
1.56618
1.57273
1.59385
1.63765
1.69539
1.76525
1.83935
1.92031
2.00458
2.08835
2.16996
2.24489
2.31587
2.37956
2.43996
2.49359
2.54464
2.58978
2.63226
2.66948
2.70357
2.73327
2.7597
2.78281
2.80241
2.81953
2.83307
2.8445
2.85223
2.85856
2.86362
2.86687
2.86729
2.8632
2.8582
2.85144
2.84448
2.83544
2.82612
2.8147
2.80303
2.78954
2.77585
2.76063
2.74526
2.72856
2.71179
2.69387
2.67595
2.65704
2.6382
2.61852
2.5989
2.5786
2.55831
2.53749
2.51665
2.49533
2.4741
2.45234
2.43093
2.40877
2.38746
2.36514
2.34401
2.32137
2.30032
2.2775
2.25641
2.23366
2.21252
2.19009
2.16887
2.1469
2.12567
2.10429
2.08324
2.06265
2.0422
2.02286
2.0039
1.9871
1.97214
3.77252
3.46271
3.1896
2.96259
2.77752
2.62723
2.50081
2.39259
2.29206
2.19951
2.1102
2.03061
1.95772
1.89612
1.84675
1.80965
1.78868
1.77985
1.79421
1.81585
1.85139
1.89262
1.94336
1.9978
2.05655
2.12387
2.20349
2.28259
2.35745
2.42391
2.48405
2.53738
2.58576
2.62974
2.67002
2.70677
2.7404
2.77042
2.79765
2.82165
2.84215
2.86082
2.87566
2.88951
2.89903
2.90772
2.91198
2.91784
2.91992
2.92234
2.91807
2.91392
2.90644
2.89965
2.89025
2.88094
2.86946
2.85764
2.84412
2.83008
2.81472
2.79884
2.78189
2.76453
2.74624
2.72765
2.70826
2.6886
2.66829
2.64774
2.62665
2.60532
2.58364
2.56171
2.53961
2.51732
2.49493
2.47281
2.45031
2.42832
2.4055
2.38355
2.36046
2.33854
2.31538
2.29344
2.27038
2.24842
2.22564
2.20369
2.18133
2.15949
2.1377
2.11618
2.09515
2.07431
2.05446
2.03506
2.01764
2.00188
3.80626
3.5386
3.28775
3.07073
2.88832
2.73657
2.6093
2.50108
2.40382
2.31436
2.23505
2.16308
2.10769
2.06361
2.033
2.01021
2.00648
2.0195
2.03196
2.04446
2.0599
2.07407
2.08541
2.10803
2.13779
2.17849
2.23272
2.30495
2.38158
2.45342
2.51767
2.57368
2.62391
2.6688
2.71018
2.74841
2.78339
2.81596
2.84485
2.87117
2.89426
2.91486
2.93171
2.94636
2.95752
2.96667
2.97224
2.97779
2.98151
2.98403
2.98244
2.97802
2.97145
2.96399
2.9553
2.94545
2.93471
2.92244
2.90958
2.89496
2.88004
2.86335
2.84661
2.82825
2.81005
2.79038
2.771
2.75028
2.72991
2.7082
2.68693
2.66437
2.64229
2.61918
2.59653
2.57346
2.55064
2.52767
2.5046
2.48175
2.45848
2.43573
2.41239
2.38969
2.36639
2.3437
2.3206
2.2979
2.27513
2.25246
2.23012
2.20757
2.18575
2.16351
2.14236
2.1208
2.10068
2.08051
2.06265
2.04588
3.83227
3.59541
3.36735
3.1611
2.98349
2.83202
2.70461
2.59597
2.50058
2.419
2.34525
2.2904
2.25491
2.22734
2.21188
2.21457
2.25022
2.26773
2.2711
2.27404
2.27188
2.24279
2.2187
2.21433
2.2303
2.25486
2.29245
2.34365
2.41153
2.48902
2.56263
2.62819
2.68529
2.73506
2.77869
2.81763
2.85192
2.88323
2.9102
2.93459
2.9557
2.97383
2.98875
3.00186
3.01114
3.01941
3.0231
3.02733
3.02913
3.03111
3.02912
3.02467
3.01695
3.00887
2.99864
2.98816
2.97581
2.96304
2.94856
2.93361
2.91715
2.9003
2.88214
2.86369
2.84406
2.82426
2.80342
2.7825
2.76074
2.73895
2.71644
2.69403
2.67101
2.64847
2.62532
2.60286
2.57945
2.55701
2.53324
2.5108
2.48673
2.46428
2.44009
2.41763
2.39355
2.37111
2.34729
2.32486
2.30142
2.27903
2.25609
2.23384
2.2115
2.18959
2.168
2.14675
2.12625
2.10626
2.08803
2.07116
3.85256
3.63974
3.43099
3.23759
3.06568
2.91699
2.78963
2.68216
2.59036
2.51454
2.45491
2.42388
2.40346
2.3904
2.40273
2.46216
2.51137
2.5131
2.51269
2.50307
2.46659
2.40408
2.35407
2.32393
2.32068
2.33323
2.35192
2.38536
2.42914
2.48623
2.55468
2.62253
2.68569
2.74071
2.78817
2.82817
2.86304
2.8934
2.92007
2.94402
2.96438
2.98264
2.99822
3.01135
3.02138
3.02995
3.03457
3.03829
3.04038
3.04236
3.04172
3.03823
3.03169
3.02391
3.0143
3.00383
2.99197
2.97927
2.96534
2.95063
2.93472
2.91811
2.90033
2.88204
2.86268
2.843
2.82236
2.80149
2.77975
2.75786
2.73513
2.71255
2.68943
2.66663
2.64319
2.62031
2.59663
2.57376
2.54993
2.52712
2.5033
2.48057
2.45688
2.43418
2.41071
2.388
2.36479
2.34206
2.31916
2.29646
2.27392
2.25136
2.22928
2.20704
2.18561
2.16396
2.14357
2.12315
2.10494
2.08755
3.87141
3.67665
3.48443
3.30265
3.13781
2.99293
2.86756
2.76261
2.67617
2.60976
2.57877
2.56
2.55411
2.57094
2.64211
2.73113
2.76061
2.75678
2.74507
2.71132
2.63029
2.55161
2.48778
2.44337
2.41855
2.41437
2.42436
2.43818
2.4641
2.50228
2.54699
2.60529
2.67025
2.73381
2.79033
2.83865
2.87935
2.91349
2.94275
2.96796
2.99012
3.00919
3.02588
3.03997
3.05123
3.0606
3.06656
3.07034
3.07222
3.07412
3.07393
3.07174
3.06579
3.05817
3.04883
3.03822
3.02651
3.01347
2.99965
2.9844
2.96858
2.95132
2.93369
2.91467
2.89553
2.87505
2.85466
2.83296
2.81141
2.78872
2.76639
2.74332
2.72042
2.69715
2.67376
2.65034
2.6265
2.60299
2.57887
2.55537
2.53116
2.50772
2.48364
2.46031
2.43649
2.41332
2.38985
2.36686
2.34378
2.321
2.29833
2.27585
2.25368
2.23162
2.21014
2.18876
2.16836
2.14826
2.13007
2.11313
3.89043
3.71033
3.53125
3.36113
3.20315
3.06398
2.9419
2.84343
2.76434
2.72385
2.71047
2.70664
2.72786
2.80118
2.92155
2.99683
2.99186
2.98214
2.95299
2.88065
2.78044
2.69227
2.62099
2.56773
2.52981
2.50783
2.49726
2.50468
2.51343
2.52936
2.55901
2.59273
2.63801
2.69779
2.75782
2.81356
2.86174
2.90246
2.93569
2.96344
2.98611
3.0056
3.02205
3.03577
3.04736
3.05669
3.06341
3.06814
3.06969
3.07169
3.07186
3.07119
3.06636
3.05984
3.05107
3.04122
3.02973
3.01725
3.00338
2.98857
2.97257
2.95574
2.93789
2.91935
2.89994
2.87993
2.85914
2.83783
2.81582
2.79365
2.77098
2.7484
2.72522
2.70241
2.67886
2.65593
2.63212
2.60916
2.58521
2.56226
2.53831
2.51539
2.49159
2.46871
2.44513
2.42232
2.39904
2.37632
2.3534
2.33084
2.30835
2.28605
2.26411
2.24227
2.22108
2.20003
2.18
2.1604
2.14259
2.12649
3.90995
3.74128
3.573
3.4132
3.26384
3.13185
3.01777
2.92769
2.87259
2.85915
2.85691
2.87829
2.94643
3.08784
3.19668
3.21587
3.20699
3.18037
3.11565
3.01182
2.91007
2.8236
2.75142
2.6933
2.64594
2.61064
2.58467
2.57077
2.56631
2.57318
2.58235
2.60243
2.6269
2.66319
2.71395
2.7697
2.8245
2.87394
2.91621
2.95086
2.97904
3.00188
3.0206
3.03627
3.04909
3.05982
3.06813
3.0744
3.07731
3.07939
3.08036
3.0805
3.07818
3.07284
3.06529
3.056
3.04527
3.03297
3.0196
3.00479
2.98923
2.9724
2.95501
2.9365
2.91748
2.89746
2.87687
2.85545
2.83364
2.81133
2.78868
2.76576
2.74243
2.71913
2.69532
2.67186
2.64775
2.62428
2.60007
2.57666
2.55253
2.52921
2.50531
2.48209
2.45855
2.43547
2.41232
2.38943
2.3667
2.34407
2.3218
2.29956
2.27788
2.25624
2.23539
2.2147
2.19516
2.17619
2.15896
2.14416
3.93549
3.77425
3.61541
3.46417
3.32433
3.20084
3.10145
3.02603
3.01395
3.01136
3.02865
3.09149
3.24492
3.37452
3.4195
3.41247
3.39051
3.33668
3.23084
3.12614
3.03195
2.95059
2.8792
2.81752
2.76342
2.71766
2.67981
2.65039
2.63117
2.61817
2.62053
2.6259
2.63693
2.6561
2.68123
2.72201
2.7724
2.82484
2.87424
2.91724
2.95322
2.98194
3.0053
3.02331
3.03851
3.05006
3.05959
3.06684
3.0715
3.07357
3.07486
3.07572
3.07495
3.07153
3.06499
3.05653
3.04649
3.0348
3.02188
3.00748
2.99222
2.97567
2.95851
2.94017
2.9213
2.90131
2.8808
2.8595
2.83785
2.81572
2.79317
2.77044
2.74718
2.72408
2.70033
2.67708
2.65309
2.62981
2.6058
2.58256
2.55872
2.53555
2.51201
2.48896
2.46575
2.44288
2.42004
2.39742
2.37496
2.35267
2.33069
2.30886
2.28752
2.26638
2.24601
2.22602
2.20719
2.18931
2.17303
2.16016
3.96227
3.80926
3.6585
3.51728
3.38778
3.28007
3.19784
3.17346
3.17018
3.18577
3.24783
3.40137
3.54313
3.60693
3.59991
3.58139
3.5362
3.43746
3.33157
3.23458
3.1491
3.0721
3.00219
2.93754
2.8786
2.82513
2.77817
2.73815
2.70585
2.6804
2.66554
2.65502
2.66044
2.66549
2.67672
2.69616
2.72647
2.77076
2.81912
2.8672
2.91133
2.94922
2.98018
3.00451
3.02326
3.03811
3.04931
3.0582
3.06455
3.06856
3.07027
3.0718
3.0721
3.07086
3.06603
3.0588
3.04974
3.03878
3.02658
3.01272
2.998
2.98184
2.96504
2.94698
2.92829
2.90843
2.88804
2.86693
2.84531
2.82327
2.80067
2.77797
2.75463
2.7315
2.70771
2.68438
2.66041
2.63703
2.61311
2.58979
2.56606
2.54286
2.51943
2.49639
2.47332
2.4505
2.42779
2.40525
2.38297
2.36084
2.3391
2.31759
2.29665
2.27606
2.25641
2.23731
2.21967
2.20338
2.18857
2.17774
3.99665
3.84763
3.70817
3.57793
3.46522
3.37521
3.34131
3.33749
3.35254
3.41347
3.56682
3.71258
3.78337
3.77688
3.76006
3.71731
3.62291
3.5207
3.42739
3.34215
3.2648
3.19061
3.121
3.05379
2.99111
2.93218
2.87886
2.83061
2.78902
2.75285
2.72446
2.70201
2.68918
2.68399
2.68877
2.69423
2.70654
2.72942
2.76407
2.80718
2.85329
2.8979
2.93785
2.97095
2.99767
3.01774
3.03337
3.04438
3.0526
3.05822
3.0608
3.06237
3.06321
3.06298
3.06057
3.05485
3.04704
3.03717
3.02593
3.01286
2.99883
2.98318
2.96682
2.94901
2.93053
2.91088
2.8908
2.8699
2.84855
2.82667
2.80429
2.78171
2.75855
2.73553
2.71186
2.68861
2.66472
2.64143
2.61758
2.59437
2.57076
2.5477
2.52447
2.50161
2.47881
2.45619
2.43384
2.41156
2.38972
2.36792
2.34676
2.32568
2.30553
2.28564
2.26707
2.24923
2.23334
2.21896
2.20554
2.19831
4.04098
3.89447
3.76212
3.6504
3.55982
3.52129
3.51546
3.5289
3.59132
3.7477
3.89164
3.96168
3.95421
3.93547
3.88962
3.79293
3.69552
3.60527
3.52502
3.44917
3.37668
3.30469
3.23461
3.16588
3.09989
3.03743
2.97876
2.92491
2.87547
2.83122
2.79307
2.76025
2.73497
2.71594
2.70561
2.70579
2.70957
2.71542
2.72869
2.75515
2.7931
2.83655
2.88104
2.92239
2.95806
2.98686
3.00868
3.02506
3.03624
3.04416
3.04919
3.05111
3.05266
3.0534
3.05296
3.04971
3.04359
3.03487
3.02473
3.01238
2.99905
2.98378
2.96781
2.95012
2.93191
2.91248
2.89263
2.87196
2.85079
2.82913
2.80691
2.78451
2.76157
2.73867
2.71529
2.69211
2.66855
2.64528
2.62175
2.59851
2.57516
2.55208
2.52903
2.50619
2.48352
2.46104
2.43885
2.41685
2.39532
2.37394
2.35341
2.33294
2.3139
2.29501
2.27822
2.26233
2.24872
2.23659
2.22604
2.22393
4.10016
3.95441
3.83487
3.74352
3.707
3.70001
3.7165
3.7853
3.94784
4.08717
4.14885
4.13977
4.11486
4.05716
3.95902
3.86048
3.77362
3.69591
3.62423
3.55425
3.4841
3.41371
3.34279
3.27319
3.205
3.13978
3.07753
3.01866
2.96408
2.91352
2.86825
2.82732
2.79252
2.76315
2.74073
2.725
2.72034
2.71875
2.72203
2.72995
2.74513
2.77698
2.81558
2.85928
2.90173
2.93963
2.97118
2.99545
3.01338
3.02545
3.03365
3.03806
3.03995
3.04108
3.0416
3.0402
3.03601
3.02859
3.01981
3.00844
2.99621
2.98162
2.96638
2.94914
2.93143
2.91237
2.89288
2.8725
2.85158
2.83023
2.80818
2.78611
2.76319
2.74061
2.71712
2.69424
2.67051
2.64752
2.62386
2.60088
2.57757
2.55467
2.53194
2.50919
2.48716
2.46468
2.44343
2.42139
2.401
2.37981
2.36051
2.3408
2.32315
2.30595
2.2913
2.27796
2.26652
2.25811
2.25305
2.2544
4.17154
4.02769
3.92723
3.89525
3.88714
3.9114
3.99217
4.16395
4.3008
4.34816
4.33803
4.30415
4.22692
4.12259
4.02284
3.93622
3.86088
3.79221
3.72511
3.65797
3.58851
3.51884
3.44737
3.37743
3.30779
3.2409
3.17571
3.11403
3.05531
3.00024
2.94914
2.90173
2.85919
2.82123
2.78874
2.76265
2.7423
2.73303
2.72629
2.726
2.72973
2.73969
2.75874
2.79398
2.83353
2.87532
2.91506
2.94939
2.97672
2.99726
3.01113
3.01997
3.02445
3.02593
3.02703
3.02681
3.02485
3.01941
3.01172
3.00193
2.99052
2.97717
2.96245
2.94597
2.92878
2.91023
2.89124
2.87117
2.8507
2.82947
2.80782
2.78579
2.76327
2.74073
2.71764
2.69481
2.67152
2.64852
2.62537
2.60236
2.57957
2.55673
2.5344
2.51194
2.49016
2.46831
2.44718
2.42623
2.40595
2.38634
2.36746
2.3499
2.33346
2.31958
2.30689
2.29714
2.28877
2.28793
2.28708
2.2922
4.27853
4.13276
4.08965
4.07751
4.11006
4.21218
4.39946
4.53649
4.56772
4.55337
4.50929
4.40899
4.29285
4.18782
4.09932
4.02382
3.95664
3.89244
3.82783
3.76129
3.69246
3.62198
3.55045
3.47917
3.40856
3.33984
3.27264
3.20865
3.14645
3.08808
3.03216
2.97989
2.93145
2.88671
2.84693
2.81168
2.78199
2.75891
2.74269
2.73446
2.7258
2.72966
2.73432
2.74565
2.76834
2.80423
2.84482
2.88557
2.92274
2.95394
2.97738
2.99364
3.00356
3.00792
3.00971
3.00991
3.00982
3.00606
3.00052
2.99131
2.98174
2.969
2.95582
2.93998
2.92393
2.90589
2.88765
2.86796
2.84793
2.82703
2.80569
2.78394
2.76179
2.73942
2.7169
2.69406
2.67149
2.64831
2.62594
2.60265
2.58065
2.55762
2.53611
2.51367
2.49276
2.47125
2.45106
2.43095
2.41179
2.3936
2.37637
2.361
2.34764
2.33641
2.32687
2.32198
2.32117
2.3212
2.32686
2.34589
4.37254
4.30472
4.28827
4.32132
4.44483
4.65419
4.79398
4.80528
4.78433
4.72688
4.60023
4.47132
4.35928
4.26662
4.18947
4.12153
4.0581
3.9948
3.9303
3.86289
3.79372
3.72238
3.65073
3.57861
3.5077
3.43744
3.36954
3.30274
3.23871
3.17656
3.11726
3.06089
3.00761
2.95773
2.91165
2.86974
2.83198
2.79978
2.77229
2.75221
2.7393
2.72875
2.72227
2.72569
2.73296
2.74674
2.77519
2.81101
2.8512
2.88984
2.92367
2.95032
2.96967
2.9816
2.98794
2.98889
2.98977
2.98836
2.98526
2.9778
2.96928
2.95776
2.94556
2.93105
2.91581
2.89895
2.88116
2.8624
2.84259
2.82245
2.80125
2.78018
2.75809
2.7364
2.71387
2.69177
2.66922
2.64687
2.62457
2.60216
2.58034
2.55808
2.53697
2.51519
2.49495
2.47412
2.45502
2.43567
2.41837
2.40149
2.38703
2.37484
2.36488
2.35621
2.35447
2.35392
2.35622
2.36242
2.37845
2.42439
4.47407
4.48758
4.55226
4.73713
4.93854
5.07198
5.06388
5.03512
4.96104
4.80947
4.66435
4.54165
4.44216
4.36014
4.28971
4.22456
4.16156
4.09761
4.03193
3.96364
3.89368
3.82212
3.75017
3.67781
3.60632
3.53504
3.46559
3.39689
3.33081
3.26591
3.20403
3.14404
3.08694
3.0331
2.98178
2.93474
2.89047
2.85097
2.81529
2.78504
2.75964
2.74285
2.72805
2.71613
2.71464
2.71775
2.72621
2.74251
2.77451
2.81116
2.85
2.88645
2.91702
2.93996
2.95461
2.9629
2.96402
2.96426
2.96328
2.95971
2.95209
2.94198
2.93037
2.91747
2.9032
2.88782
2.87102
2.85333
2.8344
2.81504
2.79455
2.77412
2.75253
2.73141
2.70915
2.68774
2.66521
2.64386
2.62139
2.60027
2.57825
2.55742
2.53622
2.51597
2.4959
2.47681
2.45845
2.44135
2.42577
2.41201
2.40159
2.39266
2.38654
2.38554
2.38643
2.39004
2.40216
2.42846
2.45352
2.51896
4.64833
4.80124
5.04467
5.26989
5.38073
5.35861
5.3098
5.19879
5.03126
4.87054
4.73687
4.62915
4.54264
4.46805
4.40091
4.33585
4.27074
4.20471
4.1363
4.06701
3.99512
3.92325
3.84956
3.77715
3.70341
3.63208
3.56009
3.49107
3.42212
3.3561
3.29109
3.22874
3.16844
3.11075
3.05571
3.00368
2.95441
2.90891
2.86625
2.82822
2.79384
2.76466
2.74259
2.72353
2.70871
2.69643
2.6992
2.70372
2.7135
2.73356
2.76592
2.80322
2.84047
2.87436
2.90097
2.91976
2.93024
2.93332
2.9338
2.93267
2.92958
2.92106
2.91081
2.89869
2.88563
2.87116
2.85565
2.83896
2.8212
2.80272
2.78328
2.76353
2.74296
2.7224
2.70113
2.68024
2.65866
2.63784
2.61639
2.59583
2.57495
2.55484
2.53486
2.51572
2.49702
2.47955
2.46301
2.44841
2.43572
2.42689
2.41867
2.41609
2.41571
2.41702
2.4254
2.44248
2.47202
2.51433
2.54939
2.62066
4.94438
5.34395
5.63233
5.72423
5.69883
5.61898
5.44955
5.26513
5.09366
4.94733
4.83079
4.73567
4.65594
4.58298
4.51318
4.4449
4.37578
4.3069
4.23579
4.16526
4.09189
4.02002
3.94546
3.87329
3.79882
3.72732
3.65431
3.58406
3.5135
3.44529
3.37804
3.31298
3.2498
3.18889
3.13038
3.07423
3.02074
2.96957
2.92189
2.87658
2.83577
2.79777
2.76539
2.73767
2.71626
2.69588
2.68095
2.67416
2.6765
2.68199
2.6934
2.71823
2.7507
2.78783
2.82299
2.85315
2.87488
2.88904
2.8949
2.89532
2.8947
2.89141
2.88426
2.87344
2.86148
2.84753
2.83349
2.81761
2.80173
2.78397
2.76647
2.74723
2.72857
2.70837
2.68884
2.66828
2.64828
2.62792
2.60799
2.58816
2.56879
2.54986
2.53152
2.514
2.49751
2.48229
2.46903
2.45809
2.45075
2.44493
2.44401
2.44444
2.44926
2.45988
2.48621
2.52081
2.56312
2.61434
2.65328
2.71695
5.5225
6.04021
6.10452
6.06677
5.95204
5.71676
5.50152
5.31903
5.16629
5.04197
4.94006
4.85352
4.77621
4.70323
4.63172
4.5602
4.48773
4.41513
4.34164
4.26836
4.19443
4.12051
4.0464
3.97218
3.89816
3.82403
3.75064
3.67723
3.60524
3.53393
3.46434
3.39633
3.33009
3.26603
3.20361
3.14378
3.08594
3.03067
2.97803
2.92779
2.88107
2.83676
2.797
2.7603
2.72922
2.70371
2.67949
2.6596
2.64438
2.64341
2.64557
2.65151
2.66446
2.69291
2.72581
2.76072
2.7935
2.81908
2.83736
2.84724
2.84818
2.84789
2.84574
2.84071
2.82997
2.81754