/*--------------------------------*- C++ -*----------------------------------*\
  =========                 |
  \\      /  F ield         | OpenFOAM: The Open Source CFD Toolbox
   \\    /   O peration     | Website:  https://openfoam.org
    \\  /    A nd           | Version:  10
     \\/     M anipulation  |
\*---------------------------------------------------------------------------*/
FoamFile
{
    format      ascii;
    class       volScalarField;
    location    "8";
    object      T;
}
// * * * * * * * * * * * * * * * * * * * * * * * * * * * * * * * * * * * * * //

dimensions      [0 0 0 1 0 0 0];

internalField   nonuniform List<scalar> 
5250
(
1.00001
1.00002
1.00006
1.00012
1.00037
1.00074
1.00222
1.0046
1.01317
1.02995
1.08133
1.20973
1.56913
2.31906
2.70613
2.74462
2.73841
2.73961
2.75108
2.76685
2.77964
2.78785
2.79504
2.79988
2.80201
1.00001
1.00002
1.00005
1.00013
1.00032
1.00084
1.00193
1.00518
1.01181
1.03167
1.07757
1.21009
1.56007
2.31022
2.70256
2.74428
2.73788
2.73885
2.75026
2.76592
2.77859
2.78674
2.79389
2.79863
2.80063
1.00001
1.00002
1.00005
1.00012
1.00034
1.00075
1.00204
1.00469
1.01219
1.02969
1.07723
1.20276
1.54714
2.28709
2.69443
2.74316
2.73619
2.7365
2.74778
2.76294
2.77575
2.78326
2.79032
2.79441
2.79662
1.00001
1.00002
1.00004
1.00014
1.00028
1.00084
1.00171
1.00497
1.01093
1.02979
1.07236
1.1966
1.5229
2.25262
2.68121
2.74158
2.73343
2.73261
2.74341
2.75823
2.77044
2.77886
2.78541
2.78997
2.79124
1.00001
1.00002
1.00005
1.00012
1.0003
1.00071
1.00184
1.00423
1.01137
1.0265
1.07065
1.18281
1.49534
2.20092
2.66265
2.73943
2.7296
2.72718
2.73739
2.7522
2.76337
2.77082
2.77749
2.78103
2.78291
1
1.00002
1.00004
1.00012
1.00024
1.00074
1.0015
1.00443
1.00952
1.02636
1.06306
1.17165
1.45579
2.13383
2.63721
2.73635
2.72438
2.71964
2.7292
2.74316
2.75438
2.76045
2.7669
2.77062
2.7713
1
1.00001
1.00004
1.00009
1.00027
1.00055
1.00167
1.00339
1.00991
1.0219
1.06013
1.15159
1.41455
2.04366
2.60388
2.73143
2.71688
2.70992
2.71902
2.73229
2.7434
2.74871
2.75271
2.75515
2.75477
1
1.00001
1.00003
1.00009
1.00021
1.00058
1.00125
1.00358
1.0077
1.02151
1.05033
1.13683
1.36142
1.93644
2.56022
2.72192
2.70529
2.69609
2.70525
2.71703
2.72757
2.73185
2.73416
2.73332
2.72898
1
1.00001
1.00003
1.00007
1.00021
1.00045
1.00124
1.00278
1.00737
1.01753
1.04533
1.11533
1.31055
1.8074
2.50476
2.7049
2.68759
2.67815
2.68724
2.69869
2.70752
2.71075
2.70963
2.70333
2.68713
1
1.00001
1.00003
1.00007
1.00017
1.00042
1.00103
1.00257
1.00612
1.01592
1.03833
1.10074
1.2657
1.70187
2.44432
2.68586
2.66917
2.65997
2.66612
2.67659
2.68316
2.68345
2.67571
2.65438
2.59797
1
1.00001
1.00002
1.00006
1.00016
1.00035
1.00097
1.00207
1.0059
1.0128
1.0355
1.08562
1.23342
1.61716
2.36527
2.6569
2.65561
2.64796
2.64724
2.65324
2.65669
2.65223
2.63344
2.58744
2.48155
1
1.00001
1.00002
1.00006
1.00012
1.00034
1.00075
1.00201
1.00467
1.01201
1.0294
1.07595
1.19937
1.53531
2.25251
2.61347
2.6467
2.63728
2.63168
2.63125
2.62866
2.6173
2.58791
2.52481
2.41545
1
1.00001
1.00002
1.00004
1.00011
1.00027
1.00067
1.00169
1.00396
1.01046
1.02458
1.06507
1.16755
1.45274
2.11157
2.5561
2.63737
2.62761
2.61673
2.61162
2.60287
2.58349
2.5484
2.48583
2.38959
1
1.00001
1.00002
1.00003
1.0001
1.00021
1.00059
1.00132
1.00349
1.00826
1.02108
1.05249
1.13799
1.36774
1.94181
2.48087
2.61988
2.61195
2.59936
2.58865
2.57747
2.55468
2.51561
2.45869
2.38043
1
1
1.00001
1.00003
1.00007
1.00018
1.00045
1.00109
1.0028
1.00645
1.01727
1.0406
1.10831
1.28271
1.73918
2.38482
2.58749
2.58669
2.57702
2.56402
2.5499
2.5293
2.49225
2.43734
2.37056
1
1
1.00001
1.00003
1.00006
1.00015
1.00036
1.00089
1.00219
1.00528
1.01354
1.03259
1.08489
1.22167
1.58551
2.27613
2.54744
2.56063
2.55126
2.53929
2.52361
2.50156
2.47071
2.42185
2.36043
1
1
1.00001
1.00002
1.00005
1.00012
1.00029
1.00071
1.00177
1.00418
1.01094
1.02579
1.06785
1.1746
1.4678
2.11744
2.48436
2.54066
2.53178
2.51906
2.50255
2.47819
2.44822
2.40665
2.35281
1
1
1.00001
1.00002
1.00003
1.0001
1.00021
1.0006
1.00129
1.0035
1.00806
1.02095
1.05133
1.13556
1.35794
1.91249
2.39444
2.5161
2.51284
2.49969
2.48211
2.45874
2.42916
2.39115
2.34505
1
1
1
1.00001
1.00003
1.00007
1.00018
1.0004
1.00105
1.00252
1.00616
1.01547
1.03796
1.09768
1.25592
1.66572
2.2739
2.47549
2.48659
2.47621
2.45952
2.43747
2.41073
2.37614
2.33516
1
1
1
1.00001
1.00002
1.00005
1.00014
1.0003
1.00083
1.00176
1.00504
1.01077
1.02993
1.07062
1.19101
1.49635
2.1313
2.42443
2.46162
2.45355
2.43717
2.41608
2.39207
2.36159
2.32542
1
1
1
1.00001
1.00001
1.00004
1.00009
1.00026
1.00054
1.00151
1.00336
1.00886
1.02099
1.05434
1.13835
1.36951
1.91892
2.33538
2.43311
2.43145
2.41818
2.39632
2.37376
2.34646
2.31433
1
1
1
1
1.00001
1.00003
1.00007
1.00017
1.00042
1.00104
1.00247
1.00637
1.01482
1.03889
1.09571
1.25394
1.65711
2.20869
2.39012
2.40548
2.39658
2.37813
2.35519
2.33119
2.30314
1
1
1
1
1.00001
1.00002
1.00005
1.00013
1.00029
1.00078
1.00171
1.00471
1.01025
1.02814
1.06604
1.17762
1.45922
2.04519
2.33078
2.37855
2.3733
2.35817
2.3375
2.31452
2.29014
1
1
1
1
1.00001
1.00001
1.00004
1.00009
1.0002
1.00056
1.00119
1.00341
1.00716
1.02014
1.04602
1.12446
1.31964
1.81224
2.23022
2.34443
2.34995
2.34046
2.32232
2.29977
2.27597
1
1
1
1
1
1.00001
1.00003
1.00006
1.00015
1.00034
1.00093
1.002
1.0056
1.01209
1.03308
1.07815
1.20774
1.53598
2.08112
2.29062
2.32211
2.31817
2.30373
2.2848
2.26281
1
1
1
1
1
1.00001
1.00002
1.00004
1.0001
1.00024
1.00063
1.0014
1.00384
1.00834
1.02291
1.05294
1.14197
1.36481
1.88308
2.21513
2.29263
2.29606
2.28697
2.26883
2.24835
1
1
1
1
1
1.00001
1.00001
1.00003
1.00006
1.00018
1.0004
1.00101
1.00243
1.00584
1.01475
1.03545
1.09118
1.23415
1.60444
2.08573
2.24998
2.27178
2.26733
2.25347
2.23432
1
1
1
1
1
1
1.00001
1.00002
1.00004
1.00012
1.00025
1.00071
1.00153
1.00409
1.00936
1.02408
1.05851
1.15205
1.39336
1.90278
2.18211
2.24323
2.24627
2.2376
2.22222
1
1
1
1
1
1
1.00001
1.00001
1.00003
1.00008
1.00017
1.00048
1.00096
1.00282
1.00581
1.0163
1.0368
1.09828
1.24719
1.63611
2.06372
2.20416
2.2245
2.22119
2.20928
1
1
1
1
1
1
1
1.00001
1.00002
1.00004
1.00013
1.00026
1.00073
1.00159
1.00418
1.00967
1.02459
1.05992
1.15466
1.39963
1.88438
2.13821
2.19489
2.20251
2.19883
1
1
1
1
1
1
1
1.00001
1.00001
1.00003
1.00007
1.00018
1.00045
1.00102
1.00272
1.00592
1.01621
1.03647
1.09748
1.24376
1.62156
2.0228
2.1597
2.18374
2.18951
1
1
1
1
1
1
1
1
1.00001
1.00002
1.00005
1.00011
1.0003
1.00062
1.00177
1.00361
1.01033
1.02227
1.06024
1.14628
1.38523
1.84478
2.09441
2.16216
2.18291
1
1
1
1
1
1
1
1
1
1.00001
1.00003
1.00008
1.00016
1.00045
1.00094
1.00259
1.0057
1.01493
1.03501
1.09026
1.22687
1.57617
1.98079
2.13544
2.18405
1
1
1
1
1
1
1
1
1
1.00001
1.00002
1.00005
1.00011
1.00027
1.00063
1.00153
1.0038
1.00884
1.02286
1.05396
1.1404
1.35865
1.80742
2.086
2.19799
1
1
1
1
1
1
1
1
1
1
1.00001
1.00003
1.00007
1.00016
1.00041
1.00097
1.00234
1.00577
1.01361
1.0345
1.08387
1.21536
1.5423
1.99658
2.24215
1
1
1
1
1
1
1
1
1
1
1.00001
1.00002
1.00005
1.0001
1.0003
1.00062
1.00174
1.00377
1.01003
1.02328
1.06017
1.15021
1.39254
1.8984
2.33542
1
1
1
1
1
1
1
1
1
1
1.00001
1.00001
1.00004
1.00008
1.00022
1.00052
1.00126
1.00317
1.00738
1.01937
1.04595
1.12116
1.31383
1.79505
2.42737
1
1
1
1
1
1
1
1
1
1
1.00001
1.00001
1.00003
1.00008
1.00018
1.00047
1.00105
1.00292
1.00631
1.01776
1.04075
1.11095
1.28924
1.77128
2.49627
1
1
1
1
1
1
1
1
1
1
1
1.00001
1.00003
1.00007
1.00017
1.0004
1.00109
1.00242
1.00677
1.0151
1.04143
1.10249
1.28063
1.75321
2.51627
1
1
1
1
1
1
1
1
1
1
1
1.00001
1.00003
1.00007
1.00015
1.00043
1.00092
1.00269
1.0057
1.01632
1.03748
1.10291
1.2706
1.7373
2.51497
1
1
1
1
1
1
1
1
1
1
1
1.00001
1.00003
1.00006
1.00018
1.00035
1.00107
1.00221
1.00643
1.01435
1.03926
1.09756
1.26827
1.72123
2.5082
1
1
1
1
1
1
1
1
1
1
1
1.00001
1.00003
1.00006
1.00015
1.0004
1.00093
1.0025
1.00563
1.01554
1.03646
1.09871
1.26153
1.71328
2.49647
1
1
1
1
1
1
1
1
1
1
1
1.00001
1.00003
1.00006
1.00016
1.00038
1.00094
1.00241
1.00567
1.01517
1.03625
1.09726
1.2584
1.70745
2.48362
1
1
1
1
1
1
1
1
1
1
1
1.00001
1.00002
1.00007
1.00014
1.00042
1.00085
1.00254
1.00542
1.01525
1.03569
1.09692
1.25503
1.70548
2.47097
1
1
1
1
1
1
1
1
1
1
1
1.00001
1.00003
1.00005
1.00016
1.00035
1.00098
1.00223
1.00594
1.01422
1.03701
1.09426
1.25543
1.70306
2.46106
1
1
1
1
1
1
1
1
1
1
1
1.00001
1.00003
1.00006
1.00016
1.00035
1.00097
1.00224
1.00587
1.0143
1.0367
1.09417
1.25384
1.70372
2.45457
1
1
1
1
1
1
1
1
1
1
1
1.00001
1.00002
1.00007
1.00014
1.00041
1.00087
1.00244
1.00555
1.01481
1.0358
1.09531
1.25118
1.70548
2.4515
1
1
1
1
1
1
1
1
1
1
1
1.00001
1.00003
1.00006
1.00016
1.00035
1.00102
1.0021
1.00629
1.01345
1.03788
1.09237
1.25316
1.70104
2.45298
1
1
1
1
1
1
1
1
1
1
1
1.00001
1.00002
1.00006
1.00015
1.00038
1.00091
1.0024
1.00554
1.015
1.03545
1.09513
1.25033
1.6995
2.45502
1
1
1
1
1
1
1
1
1
1
1
1.00001
1.00003
1.00006
1.00016
1.00034
1.00103
1.00209
1.00631
1.0134
1.03791
1.09214
1.25254
1.69685
2.45684
2.34442
2.47687
2.71686
2.95932
2.96996
2.92519
2.90895
2.89544
2.87638
2.85432
2.83404
2.81589
2.79763
2.77819
2.75762
2.74077
2.732
2.72925
2.73148
2.73833
2.75419
2.77565
2.8002
2.82545
2.84772
2.86801
2.88651
2.901
2.91477
2.92576
2.93391
2.94238
2.94786
2.95361
2.95644
2.95857
2.95931
2.95955
2.95864
2.95753
2.9554
2.95289
2.94776
2.94465
2.93846
2.93334
2.92703
2.92107
2.91376
2.90696
2.89869
2.89102
2.88206
2.87412
2.86511
2.85658
2.8475
2.83867
2.82886
2.82011
2.80983
2.80067
2.79061
2.78103
2.77107
2.76117
2.75155
2.74108
2.73164
2.72107
2.71119
2.7009
2.69058
2.68034
2.67001
2.65953
2.64933
2.63872
2.6285
2.61794
2.60765
2.59714
2.58689
2.57628
2.56635
2.55543
2.54599
2.53482
2.52577
2.51465
2.50572
2.49502
2.4861
2.47607
2.46738
2.45824
2.45047
2.44291
2.43766
2.43313
2.35731
2.45241
2.56961
2.78888
2.92543
2.97603
3.01306
3.01539
2.99943
2.98864
2.97342
2.96634
2.95345
2.94321
2.92859
2.91737
2.91146
2.91146
2.9207
2.92602
2.94132
2.9557
2.97129
2.98682
2.99491
3.00284
3.00587
3.00678
3.00638
3.00198
2.99727
2.99434
2.9892
2.9841
2.97601
2.96936
2.95899
2.95059
2.93936
2.93019
2.91856
2.90934
2.89713
2.88772
2.87604
2.86691
2.85555
2.84644
2.83438
2.82408
2.81235
2.80209
2.79067
2.78107
2.76968
2.76003
2.74897
2.7388
2.72818
2.71782
2.70767
2.69708
2.68758
2.6766
2.66746
2.65645
2.64716
2.63649
2.62692
2.61649
2.60688
2.59643
2.58696
2.57639
2.567
2.5564
2.54696
2.53647
2.52697
2.51662
2.50717
2.49685
2.48768
2.4772
2.46845
2.45775
2.44939
2.43858
2.4304
2.41975
2.41151
2.40128
2.39287
2.38321
2.3749
2.36609
2.35865
2.35148
2.34647
2.34253
2.34645
2.37281
2.45203
2.50293
2.61492
2.72278
2.86538
2.94525
2.99028
3.0101
3.02138
3.02285
3.02731
3.02879
3.02749
3.01808
3.01366
3.01615
3.02313
3.0311
3.04526
3.05515
3.05858
3.05847
3.05475
3.04839
3.03934
3.02843
3.01697
3.00344
2.99175
2.97811
2.96506
2.94957
2.93509
2.9188
2.90322
2.88678
2.8716
2.8556
2.84158
2.82628
2.81336
2.79862
2.78657
2.77246
2.76109
2.74786
2.73587
2.72259
2.71087
2.69796
2.68689
2.67427
2.66338
2.65111
2.64042
2.62825
2.61789
2.60575
2.59557
2.58374
2.57348
2.56222
2.55176
2.54103
2.53052
2.52013
2.50977
2.49957
2.48942
2.47935
2.46939
2.45948
2.44963
2.43996
2.4302
2.42079
2.41116
2.40194
2.3926
2.38344
2.37449
2.36531
2.35679
2.34767
2.33942
2.33051
2.32228
2.31371
2.3053
2.29727
2.28879
2.28148
2.27326
2.26687
2.25955
2.25474
2.24975
2.24816
2.32297
2.31363
2.33972
2.37816
2.42209
2.50236
2.5675
2.68043
2.77068
2.87225
2.92931
2.96133
2.98819
3.01415
3.02458
3.02934
3.03382
3.02657
3.01801
3.03145
3.04416
3.0393
3.02672
3.01367
2.99715
2.97965
2.96172
2.94249
2.92365
2.90315
2.88438
2.86345
2.84503
2.82478
2.80741
2.78851
2.77236
2.75525
2.74033
2.72541
2.7117
2.69891
2.68604
2.67458
2.66216
2.65155
2.64031
2.63033
2.61899
2.60879
2.59746
2.58771
2.57715
2.56754
2.55767
2.54798
2.53857
2.52884
2.51968
2.51009
2.50098
2.49158
2.48239
2.4731
2.46389
2.45461
2.4455
2.43618
2.42716
2.41779
2.40878
2.39942
2.39034
2.38106
2.37189
2.36274
2.35349
2.3444
2.33517
2.32605
2.31694
2.30769
2.29881
2.28938
2.28065
2.27102
2.26233
2.25263
2.2439
2.23437
2.22566
2.21642
2.20783
2.19895
2.19078
2.18248
2.17529
2.16821
2.16329
2.15919
2.31163
2.2762
2.2744
2.29244
2.31385
2.35779
2.40299
2.45718
2.52456
2.59062
2.67468
2.76162
2.8246
2.88663
2.92668
2.94972
2.96702
2.97146
2.97054
2.96213
2.94673
2.92452
2.8961
2.87067
2.84451
2.82062
2.79922
2.77805
2.7579
2.7379
2.71862
2.70012
2.68193
2.66541
2.64886
2.6343
2.61952
2.60643
2.59364
2.58167
2.571
2.55986
2.55066
2.53995
2.53141
2.52109
2.51358
2.50393
2.49678
2.48648
2.47913
2.4691
2.46245
2.45285
2.44633
2.43701
2.43035
2.42134
2.41441
2.40568
2.39847
2.38994
2.38252
2.3741
2.36656
2.35816
2.35055
2.34216
2.3345
2.32615
2.31842
2.31019
2.30239
2.29431
2.2865
2.27853
2.27085
2.26292
2.25553
2.24753
2.24053
2.23232
2.22562
2.21714
2.21067
2.2021
2.19579
2.18731
2.181
2.17274
2.16634
2.15837
2.15188
2.14427
2.13783
2.13076
2.12479
2.11881
2.11442
2.11135
2.30388
2.2618
2.23781
2.23632
2.24523
2.26429
2.29487
2.32654
2.36606
2.40966
2.45885
2.51437
2.57535
2.63073
2.692
2.74468
2.78293
2.80732
2.80456
2.791
2.76392
2.7316
2.69323
2.66156
2.63343
2.61088
2.59443
2.57815
2.56487
2.55064
2.53968
2.528
2.51967
2.51052
2.5039
2.49645
2.49065
2.48435
2.47886
2.47327
2.4678
2.46273
2.45717
2.45206
2.44613
2.44064
2.43497
2.42959
2.42405
2.41771
2.41133
2.40447
2.39829
2.39135
2.3851
2.37794
2.37144
2.3641
2.35733
2.34984
2.34283
2.33522
2.32806
2.32034
2.31305
2.30524
2.29781
2.28988
2.28228
2.27425
2.26644
2.2583
2.25031
2.24207
2.234
2.22566
2.21767
2.20925
2.20142
2.19283
2.18521
2.1765
2.16918
2.16045
2.15336
2.14474
2.13774
2.12937
2.12235
2.11436
2.10731
2.09982
2.0928
2.08589
2.07907
2.07285
2.0666
2.06154
2.05686
2.05475
2.29739
2.25349
2.22088
2.20349
2.19928
2.20445
2.21839
2.23775
2.26249
2.28901
2.32246
2.35747
2.40014
2.44543
2.49051
2.5342
2.56639
2.58845
2.58589
2.5696
2.53771
2.50387
2.46639
2.44169
2.4192
2.40942
2.40702
2.40703
2.40719
2.40816
2.40789
2.40813
2.40821
2.40836
2.40827
2.40802
2.40729
2.40632
2.4045
2.40233
2.40021
2.39689
2.39414
2.38962
2.38613
2.38068
2.37705
2.37153
2.36783
2.36147
2.35643
2.34937
2.34393
2.33703
2.33131
2.32449
2.31836
2.31147
2.30497
2.29799
2.29125
2.28416
2.27725
2.27004
2.26302
2.25573
2.24859
2.24124
2.23401
2.2266
2.21927
2.2118
2.20432
2.19679
2.1892
2.18157
2.17397
2.16614
2.15865
2.15068
2.14343
2.13541
2.12838
2.12034
2.11344
2.10551
2.09866
2.09095
2.08413
2.07673
2.06992
2.06288
2.05612
2.04948
2.04288
2.03677
2.03064
2.02548
2.02077
2.01843
2.29431
2.24919
2.21321
2.18741
2.17238
2.1668
2.16888
2.17698
2.19032
2.20844
2.22925
2.25835
2.28991
2.32737
2.36434
2.40122
2.43183
2.4497
2.44585
2.42928
2.40422
2.37083
2.34383
2.32321
2.30911
2.30565
2.30866
2.3174
2.32705
2.33502
2.3405
2.34465
2.34686
2.3485
2.3488
2.34849
2.34771
2.34589
2.34395
2.34106
2.33795
2.33417
2.33074
2.32654
2.32266
2.31788
2.3135
2.30874
2.30448
2.29935
2.294
2.28792
2.28211
2.27602
2.26998
2.26386
2.25745
2.25123
2.24449
2.23819
2.23127
2.22494
2.21792
2.21153
2.20441
2.19789
2.19065
2.184
2.17665
2.16995
2.16252
2.15579
2.14839
2.14157
2.13421
2.12718
2.11988
2.11267
2.10552
2.09816
2.09111
2.08362
2.07662
2.06912
2.06215
2.05475
2.04777
2.04058
2.03357
2.02666
2.01964
2.01307
2.00614
1.99994
1.99323
1.98749
1.98128
1.97635
1.9715
1.96926
2.28975
2.24647
2.2087
2.17917
2.15739
2.14424
2.13777
2.13784
2.14344
2.15262
2.17084
2.19283
2.22319
2.25573
2.29001
2.33129
2.36007
2.37019
2.36415
2.34868
2.31965
2.28627
2.25711
2.23799
2.22525
2.21595
2.2144
2.21907
2.22874
2.23884
2.24743
2.25401
2.25867
2.26176
2.26382
2.26519
2.26658
2.26718
2.26807
2.26797
2.26772
2.26704
2.26613
2.26423
2.26271
2.25966
2.25739
2.25396
2.25167
2.24789
2.24455
2.2397
2.23551
2.23036
2.22579
2.22045
2.21554
2.21
2.2048
2.19904
2.19355
2.18754
2.18179
2.17557
2.16963
2.16326
2.15715
2.15062
2.14428
2.13754
2.13096
2.12397
2.11717
2.10988
2.10299
2.09551
2.08871
2.08108
2.07445
2.06673
2.06029
2.05255
2.04623
2.03854
2.03223
2.02463
2.01827
2.01086
2.00444
1.99729
1.99082
1.98398
1.97751
1.971
1.96466
1.95857
1.95261
1.94733
1.94256
1.93992
2.28474
2.24404
2.20677
2.17501
2.14978
2.1312
2.11939
2.11334
2.11353
2.11982
2.13482
2.15802
2.18271
2.21676
2.25688
2.30003
2.3217
2.32456
2.31631
2.29644
2.26507
2.23009
2.20051
2.18
2.16662
2.15808
2.15384
2.15446
2.16074
2.17098
2.18356
2.19584
2.20599
2.21419
2.22005
2.22481
2.22818
2.23093
2.23314
2.23441
2.23577
2.23586
2.2356
2.23483
2.23378
2.23156
2.22969
2.22682
2.22469
2.22167
2.21875
2.21462
2.21058
2.20591
2.20135
2.19638
2.19145
2.18619
2.18091
2.17531
2.16971
2.16381
2.158
2.15188
2.14588
2.13954
2.13334
2.1268
2.12042
2.11371
2.10721
2.10033
2.09371
2.08673
2.08016
2.07306
2.06651
2.05925
2.05269
2.0453
2.0387
2.03125
2.02457
2.01715
2.0104
2.00312
1.99632
1.98925
1.98246
1.97567
1.96894
1.96247
1.95587
1.94977
1.94339
1.93774
1.93177
1.92692
1.92212
1.91985
2.27825
2.24104
2.20521
2.17339
2.14648
2.12502
2.10987
2.10041
2.09855
2.10497
2.12032
2.1422
2.16984
2.20952
2.25729
2.29237
2.30421
2.30153
2.28878
2.26323
2.22924
2.19501
2.16632
2.14396
2.12854
2.11882
2.11204
2.10912
2.10976
2.11472
2.12331
2.13493
2.14774
2.15859
2.16746
2.1742
2.17914
2.1829
2.18555
2.18746
2.18858
2.18927
2.18927
2.18893
2.18817
2.1866
2.18517
2.18286
2.18123
2.17891
2.17674
2.17351
2.17008
2.16612
2.16201
2.15762
2.15295
2.14824
2.14318
2.13823
2.13286
2.12768
2.122
2.11659
2.11059
2.10492
2.0986
2.09266
2.08608
2.07988
2.0731
2.06664
2.05991
2.05332
2.04669
2.04
2.03353
2.02675
2.02041
2.01358
2.00729
2.00044
1.99411
1.98726
1.98084
1.97401
1.9675
1.96075
1.9542
1.94757
1.94107
1.93465
1.92826
1.92214
1.91597
1.91025
1.90449
1.89954
1.89488
1.89244
2.27076
2.23677
2.20337
2.17194
2.14534
2.12253
2.10669
2.09601
2.09621
2.10561
2.12115
2.14484
2.17973
2.22854
2.27204
2.29164
2.29417
2.28739
2.2689
2.23804
2.20438
2.17354
2.14732
2.12491
2.10754
2.09419
2.08582
2.07988
2.07688
2.07724
2.08074
2.08788
2.09871
2.11124
2.12349
2.13379
2.14231
2.14864
2.15362
2.15704
2.15985
2.16165
2.16295
2.16397
2.1641
2.16379
2.16311
2.16159
2.16039
2.15845
2.1569
2.15424
2.15141
2.14775
2.14408
2.13982
2.13553
2.13088
2.12625
2.12136
2.11646
2.11132
2.10613
2.10068
2.09514
2.08935
2.08347
2.07734
2.07118
2.06473
2.05841
2.05178
2.04539
2.03857
2.03216
2.02518
2.01879
2.0117
2.00533
1.9982
1.99183
1.98471
1.97831
1.97125
1.9648
1.95785
1.95137
1.94459
1.93812
1.93154
1.92512
1.91881
1.91252
1.90651
1.90045
1.89485
1.88922
1.88437
1.87987
1.87743
2.2625
2.2319
2.20148
2.1717
2.14583
2.12366
2.10855
2.10108
2.10511
2.11811
2.13649
2.16657
2.21435
2.2622
2.28898
2.29562
2.29224
2.27916
2.2535
2.22181
2.19214
2.16437
2.13998
2.11795
2.09959
2.08372
2.07191
2.06269
2.05761
2.05363
2.05363
2.05504
2.05995
2.06884
2.08049
2.09252
2.10336
2.11237
2.11923
2.1243
2.1278
2.13028
2.13199
2.13301
2.13364
2.13355
2.13304
2.13195
2.13072
2.12905
2.12755
2.12547
2.12292
2.11964
2.11602
2.11211
2.10792
2.10368
2.09913
2.09464
2.08977
2.08496
2.07975
2.07455
2.06898
2.06338
2.05747
2.05152
2.04536
2.0392
2.033
2.02674
2.02056
2.01418
2.00803
2.00154
1.99543
1.98883
1.98275
1.97609
1.96998
1.96329
1.9571
1.95046
1.94416
1.9376
1.93122
1.92479
1.9184
1.91213
1.90582
1.89977
1.89362
1.88786
1.88198
1.87664
1.87125
1.86671
1.86252
1.8603
2.25106
2.22442
2.19743
2.17094
2.14732
2.1283
2.11597
2.11646
2.12572
2.14019
2.16731
2.21066
2.25888
2.29137
2.30133
2.29993
2.29075
2.27035
2.24233
2.21319
2.18676
2.16196
2.13948
2.11829
2.09933
2.08213
2.06744
2.05534
2.04539
2.03949
2.03492
2.03333
2.0336
2.03642
2.04324
2.05339
2.06474
2.07581
2.08527
2.09298
2.09868
2.10302
2.10569
2.10788
2.10877
2.10965
2.10956
2.10909
2.10827
2.10689
2.10567
2.104
2.10203
2.09924
2.09598
2.09239
2.08851
2.08451
2.08022
2.07593
2.0713
2.06668
2.06167
2.05668
2.05129
2.0459
2.04013
2.03434
2.02834
2.02231
2.01625
2.01004
2.00397
1.9976
1.99156
1.98507
1.97903
1.97244
1.96636
1.95974
1.95357
1.94696
1.94069
1.93414
1.92779
1.92131
1.91496
1.90859
1.90229
1.89609
1.88992
1.88397
1.87802
1.87242
1.86683
1.86175
1.85675
1.8526
1.84893
1.84696
2.24051
2.21611
2.19301
2.17002
2.15087
2.13635
2.13272
2.13893
2.15186
2.17693
2.21605
2.26403
2.29797
2.30921
2.31017
2.30407
2.28788
2.26163
2.23532
2.21065
2.18724
2.16518
2.14375
2.12347
2.10402
2.08601
2.06939
2.05452
2.04162
2.03142
2.02275
2.01897
2.01525
2.01513
2.01593
2.02029
2.02814
2.03828
2.04867
2.05826
2.06638
2.07273
2.07733
2.08059
2.08283
2.08397
2.08466
2.08441
2.08379
2.08252
2.08123
2.07965
2.07799
2.07567
2.07276
2.06949
2.06588
2.06216
2.05806
2.05396
2.04945
2.04499
2.04011
2.03526
2.03002
2.02476
2.01918
2.01357
2.00784
2.00199
1.99619
1.99016
1.98434
1.97817
1.97233
1.96606
1.96017
1.95383
1.94787
1.94149
1.93544
1.92907
1.92293
1.91661
1.91042
1.90419
1.89803
1.89193
1.88587
1.87995
1.87407
1.8684
1.86278
1.8575
1.85225
1.84763
1.84307
1.83954
1.83634
1.83472
2.22848
2.20805
2.18736
2.16944
2.15603
2.15254
2.1573
2.16904
2.19214
2.22892
2.27551
2.30851
2.32103
2.32274
2.31759
2.30325
2.27947
2.25624
2.23357
2.21237
2.19103
2.1709
2.15026
2.13052
2.11072
2.09202
2.07388
2.05733
2.0419
2.02903
2.01761
2.00942
2.00257
1.9997
1.99715
1.99729
1.99915
2.00471
2.01295
2.0225
2.03216
2.0407
2.04751
2.05281
2.05621
2.05863
2.05959
2.06023
2.05989
2.05912
2.05805
2.05678
2.05543
2.05372
2.05141
2.04855
2.04519
2.04165
2.0377
2.03375
2.02936
2.02506
2.02032
2.01565
2.01055
2.00545
2.00002
1.99462
1.98902
1.98337
1.97768
1.97182
1.96611
1.96011
1.95439
1.94828
1.94256
1.93637
1.93058
1.92435
1.91845
1.91223
1.90622
1.90005
1.89397
1.88792
1.88186
1.87597
1.87002
1.86436
1.85862
1.85332
1.84792
1.84313
1.83831
1.83432
1.83046
1.82762
1.82517
1.82413
2.21669
2.19977
2.18514
2.17218
2.16868
2.17374
2.18609
2.2099
2.24623
2.29077
2.32218
2.33412
2.33602
2.33094
2.31691
2.29568
2.27397
2.25426
2.23453
2.21578
2.19638
2.17718
2.15734
2.13774
2.11818
2.09884
2.08022
2.06223
2.04572
2.03064
2.01685
2.00543
1.99534
1.98836
1.98301
1.98032
1.97814
1.97827
1.9809
1.98725
1.99551
2.00464
2.0133
2.02085
2.02673
2.03083
2.03356
2.0348
2.03549
2.03509
2.03422
2.03302
2.03168
2.03022
2.02826
2.0258
2.02261
2.0194
2.01566
2.01207
2.00792
2.00396
1.99945
1.99508
1.99015
1.98531
1.98013
1.97494
1.96958
1.96411
1.95863
1.95295
1.94737
1.94155
1.9359
1.92999
1.92428
1.91834
1.91257
1.90663
1.90082
1.89492
1.88909
1.88325
1.87744
1.87169
1.86596
1.86036
1.85474
1.84942
1.84397
1.83912
1.83401
1.82987
1.82546
1.82235
1.81906
1.81711
1.81576
1.81534
2.20572
2.1914
2.18307
2.18205
2.18835
2.2019
2.22627
2.26433
2.30681
2.33723
2.34796
2.34899
2.3433
2.32904
2.30871
2.28917
2.27097
2.25402
2.23688
2.21952
2.20161
2.18293
2.16409
2.14465
2.12532
2.10582
2.08676
2.06844
2.05074
2.03425
2.01855
2.0047
1.99188
1.98131
1.97254
1.96615
1.96206
1.95864
1.95741
1.95766
1.96141
1.96813
1.97678
1.98533
1.99315
1.99956
2.00425
2.00746
2.00911
2.00991
2.00952
2.00864
2.00732
2.0061
2.00451
2.00268
1.99992
1.99719
1.99371
1.99047
1.98648
1.9828
1.97839
1.97419
1.9694
1.96478
1.9598
1.95482
1.9497
1.9444
1.93918
1.93362
1.92836
1.92264
1.91737
1.91157
1.90627
1.90044
1.89508
1.88929
1.88379
1.87811
1.87243
1.86693
1.8611
1.85584
1.84995
1.84499
1.83924
1.83461
1.82925
1.82507
1.82046
1.81702
1.81362
1.81123
1.80913
1.80864
1.80899
1.80852
2.19675
2.18834
2.18896
2.19888
2.21494
2.24059
2.28318
2.32531
2.35316
2.36312
2.36223
2.35501
2.33986
2.32028
2.30158
2.28498
2.2697
2.25449
2.23917
2.22261
2.20574
2.18748
2.16929
2.1499
2.13078
2.11108
2.09205
2.07299
2.05469
2.03708
2.0203
2.00486
1.99037
1.97744
1.96602
1.95608
1.94886
1.94261
1.93865
1.93514
1.93458
1.93563
1.94042
1.94769
1.95584
1.96415
1.97134
1.97697
1.9809
1.98303
1.98401
1.98371
1.98273
1.98161
1.98023
1.97874
1.97658
1.97405
1.97113
1.96801
1.96453
1.96095
1.95694
1.95289
1.94838
1.94397
1.93916
1.93447
1.92949
1.92455
1.91947
1.91429
1.90914
1.90377
1.89859
1.89311
1.88787
1.88241
1.87706
1.87166
1.8662
1.86089
1.85539
1.85015
1.84469
1.83955
1.83427
1.82928
1.82437
1.81968
1.81538
1.81131
1.80799
1.80499
1.80296
1.80127
1.80133
1.80207
1.80393
1.80385
2.19147
2.19158
2.20273
2.22359
2.2528
2.29993
2.34374
2.36872
2.37691
2.37486
2.36498
2.34787
2.32889
2.31134
2.29591
2.28211
2.26849
2.25443
2.23963
2.22382
2.20721
2.18981
2.17184
2.15322
2.13432
2.11502
2.096
2.07669
2.05828
2.03984
2.02255
2.00589
1.99009
1.97553
1.96178
1.94962
1.93894
1.92985
1.92326
1.91714
1.91355
1.91087
1.91082
1.91282
1.91833
1.92604
1.93408
1.94169
1.94808
1.95262
1.95558
1.95691
1.95705
1.95641
1.95508
1.95419
1.95233
1.95075
1.94778
1.94547
1.94192
1.93898
1.93492
1.93135
1.92689
1.92284
1.91816
1.91376
1.90901
1.90433
1.8995
1.89459
1.88963
1.88458
1.87944
1.8744
1.86909
1.86418
1.85873
1.85398
1.84845
1.84377
1.83823
1.83358
1.82814
1.8235
1.81839
1.8138
1.80929
1.80506
1.80144
1.79816
1.79591
1.79388
1.79337
1.79359
1.79493
1.79774
1.80103
1.80363
2.19228
2.20307
2.22688
2.26242
2.31365
2.36012
2.38352
2.39095
2.3882
2.37599
2.35596
2.33647
2.31911
2.30443
2.29145
2.27924
2.26661
2.2534
2.23901
2.22387
2.20759
2.1908
2.17301
2.15489
2.13601
2.11716
2.09778
2.07896
2.06005
2.04182
2.02394
2.00663
1.99005
1.97423
1.9592
1.94509
1.9323
1.9205
1.91088
1.90259
1.89598
1.89047
1.88694
1.88561
1.88579
1.88906
1.89532
1.90318
1.91122
1.91848
1.92412
1.92809
1.93011
1.93069
1.93001
1.92926
1.92788
1.92672
1.92436
1.92224
1.91905
1.91631
1.91266
1.90932
1.90535
1.90143
1.89723
1.8929
1.8886
1.88397
1.87959
1.87473
1.87024
1.86524
1.8606
1.85556
1.85075
1.84578
1.84081
1.83599
1.8309
1.82629
1.82112
1.81673
1.81164
1.80746
1.80268
1.7989
1.79471
1.79165
1.78868
1.78684
1.78524
1.78523
1.78594
1.78768
1.79038
1.79618
1.80414
1.80967
2.2001
2.2297
2.27448
2.32962
2.37604
2.39835
2.40285
2.39883
2.38381
2.36195
2.34177
2.32507
2.3111
2.29916
2.28786
2.27664
2.26444
2.25137
2.23719
2.22219
2.20622
2.18955
2.172
2.15407
2.13545
2.11694
2.09794
2.0794
2.06049
2.04232
2.02403
2.0065
1.98933
1.97251
1.95672
1.94112
1.92694
1.91332
1.90126
1.89047
1.88151
1.87416
1.86752
1.86316
1.86032
1.86018
1.86141
1.86603
1.87306
1.88068
1.8883
1.89484
1.89973
1.9027
1.90426
1.90415
1.90342
1.90264
1.90136
1.89946
1.89691
1.89411
1.89105
1.88777
1.88432
1.88053
1.87665
1.87246
1.86832
1.86386
1.85961
1.85494
1.85069
1.84588
1.84165
1.83674
1.8325
1.82747
1.82323
1.81819
1.81392
1.80906
1.80477
1.80022
1.79606
1.79188
1.78808
1.78454
1.78149
1.77917
1.77742
1.7766
1.77672
1.778
1.78002
1.78446
1.79046
1.80078
1.81279
1.82015
2.22674
2.28612
2.34421
2.39092
2.4099
2.41489
2.40778
2.38941
2.36711
2.34655
2.32964
2.31614
2.30404
2.29327
2.28226
2.27101
2.25899
2.24586
2.23213
2.21715
2.20184
2.18526
2.16871
2.15087
2.13349
2.11484
2.0969
2.07792
2.05977
2.04105
2.02308
2.00507
1.98758
1.97046
1.95385
1.93774
1.92247
1.90772
1.89434
1.88165
1.87073
1.86109
1.85304
1.84617
1.84032
1.83721
1.83567
1.83575
1.83809
1.84356
1.85119
1.85902
1.86658
1.87241
1.87672
1.87887
1.87965
1.87921
1.87841
1.87741
1.87545
1.87301
1.87014
1.86729
1.86407
1.86075
1.85712
1.85331
1.84937
1.84518
1.84103
1.83662
1.8324
1.8279
1.82369
1.8191
1.81493
1.81026
1.80608
1.80145
1.79724
1.7928
1.78869
1.78454
1.78081
1.77717
1.77416
1.77149
1.76977
1.76858
1.76842
1.76901
1.77061
1.77386
1.77826
1.78726
1.79772
1.8108
1.82446
1.83181
2.29024
2.3678
2.41147
2.42745
2.42662
2.41602
2.39412
2.36972
2.34866
2.33267
2.31933
2.30841
2.29792
2.28804
2.27787
2.26668
2.25485
2.24157
2.22803
2.21294
2.19804
2.18138
2.1653
2.14736
2.13033
2.11164
2.09395
2.07519
2.05726
2.03887
2.021
2.00312
1.98557
1.9683
1.95137
1.93499
1.91913
1.90413
1.88955
1.87631
1.86345
1.85243
1.84206
1.83379
1.82592
1.81949
1.81475
1.81244
1.81195
1.81292
1.8166
1.82292
1.83091
1.83883
1.84615
1.85154
1.85549
1.85697
1.85738
1.85683
1.85583
1.85447
1.85192
1.84941
1.84619
1.84332
1.83971
1.83646
1.83241
1.8288
1.82437
1.82052
1.81588
1.81195
1.80739
1.80339
1.79899
1.79487
1.79057
1.78639
1.78219
1.77812
1.7742
1.77049
1.76712
1.76422
1.76191
1.76048
1.75983
1.75997
1.76107
1.76326
1.76675
1.77396
1.78316
1.79596
1.80924
1.82277
1.83549
1.84135
2.38778
2.4408
2.45424
2.44788
2.4286
2.40236
2.37701
2.35448
2.33674
2.32347
2.31273
2.3029
2.29278
2.28201
2.27052
2.25842
2.24599
2.23276
2.21911
2.20454
2.18945
2.1736
2.15716
2.14026
2.12292
2.1055
2.08779
2.07039
2.05271
2.03535
2.01785
2.00049
1.98334
1.96629
1.94979
1.9334
1.9176
1.9022
1.88731
1.87324
1.85956
1.8472
1.83526
1.82511
1.81571
1.80785
1.80061
1.79522
1.79193
1.79098
1.79129
1.79345
1.79856
1.80613
1.81453
1.82289
1.82959
1.83491
1.83735
1.8387
1.83832
1.83773
1.83661
1.83433
1.83168
1.8286
1.82539
1.82205
1.81833
1.81477
1.81061
1.80689
1.80241
1.7985
1.79397
1.78992
1.78557
1.78151
1.77735
1.7734
1.76946
1.76572
1.76225
1.759
1.75642
1.75429
1.75323
1.75285
1.75332
1.75464
1.75722
1.76254
1.77024
1.78152
1.79423
1.8084
1.82171
1.8333
1.84298
1.84652
2.51044
2.51313
2.49206
2.45768
2.42066
2.39045
2.36548
2.34535
2.3302
2.31877
2.30916
2.29976
2.28943
2.27812
2.26592
2.25299
2.23981
2.22611
2.2123
2.19794
2.18317
2.16778
2.15188
2.13546
2.11871
2.10176
2.08478
2.06755
2.05048
2.03319
2.01613
1.999
1.9823
1.96543
1.9492
1.93292
1.9173
1.9019
1.88699
1.87272
1.85876
1.84583
1.83321
1.82193
1.8112
1.80214
1.79369
1.78584
1.7797
1.77521
1.7737
1.77404
1.77562
1.77948
1.78596
1.79459
1.80346
1.81167
1.8177
1.82222
1.824
1.82469
1.82424
1.82315
1.82156
1.8183
1.8155
1.81156
1.80843
1.80424
1.80067
1.79628
1.79233
1.78788
1.78375
1.77945
1.77525
1.77123
1.76707
1.76339
1.75954
1.7563
1.75317
1.75074
1.74898
1.74818
1.74807
1.74878
1.7505
1.75428
1.76027
1.7701
1.78147
1.79513
1.80877
1.82179
1.83247
1.84049
1.84627
1.84757
2.63908
2.60077
2.55078
2.48769
2.43941
2.40451
2.37782
2.3571
2.34073
2.32742
2.31562
2.30407
2.29176
2.27878
2.26528
2.25123
2.23723
2.22281
2.20843
2.19369
2.17864
2.16331
2.14755
2.13165
2.11526
2.09887
2.08214
2.06551
2.04886
2.0321
2.01589
1.99911
1.98341
1.96687
1.95169
1.9357
1.92082
1.90564
1.89104
1.87681
1.86273
1.84946
1.83634
1.8242
1.81258
1.80196
1.79251
1.78409
1.77672
1.77009
1.76576
1.76317
1.7626
1.76376
1.76646
1.7715
1.78011
1.78896
1.79851
1.80567
1.81188
1.81452
1.81617
1.81558
1.81465
1.81308
1.8102
1.80673
1.80284
1.79898