/*--------------------------------*- C++ -*----------------------------------*\
  =========                 |
  \\      /  F ield         | OpenFOAM: The Open Source CFD Toolbox
   \\    /   O peration     | Website:  https://openfoam.org
    \\  /    A nd           | Version:  10
     \\/     M anipulation  |
\*---------------------------------------------------------------------------*/
FoamFile
{
    format      ascii;
    class       volVectorField;
    location    "8";
    object      U;
}
// * * * * * * * * * * * * * * * * * * * * * * * * * * * * * * * * * * * * * //

dimensions      [0 1 -1 0 0 0 0];

internalField   nonuniform List<vector> 
5250
(
(2.99999 1.57984e-08 0)
(2.99998 2.55377e-08 0)
(2.99996 3.84774e-07 0)
(2.99989 1.65131e-07 0)
(2.99972 2.66759e-06 0)
(2.99932 1.79606e-06 0)
(2.9983 1.29397e-05 0)
(2.99583 2.05468e-05 0)
(2.98958 6.15441e-05 0)
(2.97397 0.000169287 0)
(2.93286 0.000423993 0)
(2.81812 0.00112905 0)
(2.48286 0.00320708 0)
(1.54833 0.0093372 0)
(0.693372 0.0227873 0)
(0.535133 0.0231266 0)
(0.563047 0.0237993 0)
(0.557787 0.025482 0)
(0.504514 0.0273063 0)
(0.418328 0.0293307 0)
(0.336355 0.0317957 0)
(0.267494 0.0346642 0)
(0.197905 0.0376968 0)
(0.118734 0.0412344 0)
(0.0519881 0.046275 0)
(2.99999 4.27204e-08 0)
(2.99998 1.77179e-07 0)
(2.99996 8.95844e-07 0)
(2.99989 1.69014e-06 0)
(2.99972 6.56026e-06 0)
(2.99932 1.14938e-05 0)
(2.99832 4.03069e-05 0)
(2.99587 7.58394e-05 0)
(2.9897 0.000232766 0)
(2.97429 0.000500782 0)
(2.9336 0.00140347 0)
(2.8206 0.00350806 0)
(2.48925 0.010005 0)
(1.5642 0.0289408 0)
(0.70277 0.069251 0)
(0.532999 0.066809 0)
(0.562022 0.0659101 0)
(0.557531 0.0685975 0)
(0.504226 0.0716273 0)
(0.418179 0.0752282 0)
(0.336219 0.0794912 0)
(0.266813 0.0841315 0)
(0.196256 0.0884841 0)
(0.115822 0.0927222 0)
(0.0486723 0.0969243 0)
(3 3.89102e-08 0)
(2.99998 4.32777e-07 0)
(2.99996 1.04881e-06 0)
(2.99989 4.25086e-06 0)
(2.99973 8.12714e-06 0)
(2.99934 2.81252e-05 0)
(2.99835 5.06943e-05 0)
(2.99599 0.00017517 0)
(2.98993 0.000315029 0)
(2.97495 0.00101767 0)
(2.93534 0.00216875 0)
(2.82536 0.00627263 0)
(2.50396 0.0168664 0)
(1.59877 0.0495942 0)
(0.72514 0.119768 0)
(0.530488 0.113062 0)
(0.562573 0.110412 0)
(0.560355 0.115316 0)
(0.507542 0.121051 0)
(0.42225 0.128202 0)
(0.340649 0.13611 0)
(0.270831 0.144483 0)
(0.199281 0.152522 0)
(0.117413 0.15989 0)
(0.0483505 0.165407 0)
(3 5.4665e-08 0)
(2.99998 6.15192e-07 0)
(2.99996 1.42049e-06 0)
(2.9999 6.01487e-06 0)
(2.99974 1.08324e-05 0)
(2.99936 3.88422e-05 0)
(2.99844 6.88422e-05 0)
(2.99609 0.000236576 0)
(2.9904 0.000442211 0)
(2.97583 0.00140156 0)
(2.93798 0.00306403 0)
(2.83289 0.00877322 0)
(2.52542 0.023745 0)
(1.65333 0.0695773 0)
(0.759198 0.171265 0)
(0.526328 0.158978 0)
(0.564461 0.154043 0)
(0.566451 0.161318 0)
(0.514704 0.169952 0)
(0.430722 0.180983 0)
(0.349661 0.19293 0)
(0.279556 0.205579 0)
(0.206919 0.218083 0)
(0.122791 0.229382 0)
(0.0502284 0.236684 0)
(3 1.08115e-07 0)
(2.99999 6.67718e-07 0)
(2.99996 2.32593e-06 0)
(2.9999 6.4539e-06 0)
(2.99976 1.73151e-05 0)
(2.99939 4.26823e-05 0)
(2.99852 0.00011023 0)
(2.9963 0.000262988 0)
(2.9909 0.000675919 0)
(2.97713 0.00164193 0)
(2.9415 0.00419861 0)
(2.84259 0.0110063 0)
(2.55487 0.0306456 0)
(1.72692 0.0888309 0)
(0.805864 0.224122 0)
(0.520729 0.204801 0)
(0.567866 0.196979 0)
(0.575924 0.206519 0)
(0.525682 0.217956 0)
(0.443538 0.23286 0)
(0.363256 0.24911 0)
(0.293012 0.266551 0)
(0.219101 0.284254 0)
(0.131761 0.300531 0)
(0.053974 0.310597 0)
(3 1.39959e-07 0)
(2.99999 7.7256e-07 0)
(2.99996 2.93081e-06 0)
(2.99991 7.42404e-06 0)
(2.99977 2.18467e-05 0)
(2.99944 4.92431e-05 0)
(2.99862 0.000138641 0)
(2.99656 0.000306225 0)
(2.99155 0.000850158 0)
(2.97877 0.00192404 0)
(2.94578 0.00519229 0)
(2.85496 0.0131583 0)
(2.59067 0.0370724 0)
(1.82224 0.106869 0)
(0.866029 0.277825 0)
(0.515462 0.250585 0)
(0.574537 0.239626 0)
(0.590162 0.251412 0)
(0.541556 0.265631 0)
(0.461678 0.284604 0)
(0.382368 0.30567 0)
(0.312123 0.328834 0)
(0.236891 0.353223 0)
(0.145408 0.376621 0)
(0.0603216 0.391842 0)
(3 1.51209e-07 0)
(2.99999 8.75117e-07 0)
(2.99997 3.21462e-06 0)
(2.99992 8.57028e-06 0)
(2.99979 2.39553e-05 0)
(2.99949 5.71592e-05 0)
(2.99873 0.000152503 0)
(2.9969 0.000355291 0)
(2.99225 0.000942469 0)
(2.98075 0.00223571 0)
(2.95087 0.00586722 0)
(2.86915 0.0150849 0)
(2.63366 0.0421262 0)
(1.93805 0.121773 0)
(0.942603 0.327528 0)
(0.515301 0.296718 0)
(0.587469 0.2829 0)
(0.611218 0.296072 0)
(0.564029 0.312705 0)
(0.486736 0.336125 0)
(0.408668 0.362772 0)
(0.338762 0.392978 0)
(0.262552 0.426144 0)
(0.166354 0.460247 0)
(0.0709905 0.485581 0)
(3 1.59985e-07 0)
(2.99999 9.34808e-07 0)
(2.99997 3.43382e-06 0)
(2.99993 9.22127e-06 0)
(2.99981 2.55585e-05 0)
(2.99954 6.20978e-05 0)
(2.99887 0.000162446 0)
(2.99722 0.000389253 0)
(2.99312 0.00100207 0)
(2.98287 0.00243617 0)
(2.95649 0.00628113 0)
(2.88524 0.0162087 0)
(2.68033 0.0451067 0)
(2.07333 0.130587 0)
(1.03872 0.367051 0)
(0.530546 0.345612 0)
(0.610652 0.331453 0)
(0.641305 0.342831 0)
(0.595518 0.360187 0)
(0.521188 0.387708 0)
(0.444523 0.4205 0)
(0.375461 0.459194 0)
(0.299339 0.503683 0)
(0.199293 0.553868 0)
(0.0898263 0.600001 0)
(3 1.54055e-07 0)
(2.99999 9.22133e-07 0)
(2.99997 3.25354e-06 0)
(2.99994 9.07087e-06 0)
(2.99984 2.40694e-05 0)
(2.9996 6.01211e-05 0)
(2.99901 0.000153985 0)
(2.9976 0.000371927 0)
(2.99396 0.000960429 0)
(2.98516 0.00230636 0)
(2.96235 0.00599037 0)
(2.90166 0.0152867 0)
(2.72979 0.0421492 0)
(2.22206 0.121503 0)
(1.16832 0.355431 0)
(0.584595 0.382739 0)
(0.653667 0.383155 0)
(0.684236 0.390608 0)
(0.639647 0.409329 0)
(0.568347 0.439666 0)
(0.493174 0.47928 0)
(0.425592 0.526847 0)
(0.352231 0.584962 0)
(0.253566 0.66038 0)
(0.125264 0.749838 0)
(3 1.1881e-07 0)
(2.99999 8.66223e-07 0)
(2.99998 2.69514e-06 0)
(2.99994 8.44826e-06 0)
(2.99986 2.00489e-05 0)
(2.99965 5.58037e-05 0)
(2.99913 0.000125767 0)
(2.99789 0.000344036 0)
(2.99473 0.00077394 0)
(2.98707 0.00208664 0)
(2.96732 0.00490891 0)
(2.9154 0.0130313 0)
(2.76937 0.0344294 0)
(2.3409 0.0979859 0)
(1.30365 0.291857 0)
(0.640463 0.413256 0)
(0.686491 0.441219 0)
(0.718934 0.440673 0)
(0.6848 0.460653 0)
(0.622034 0.49191 0)
(0.552629 0.537945 0)
(0.489844 0.593722 0)
(0.427785 0.669936 0)
(0.346234 0.787239 0)
(0.193835 0.993982 0)
(3 1.04491e-07 0)
(2.99999 7.92457e-07 0)
(2.99998 2.39416e-06 0)
(2.99995 7.71826e-06 0)
(2.99988 1.78686e-05 0)
(2.99969 5.08432e-05 0)
(2.99925 0.000111719 0)
(2.99814 0.000311779 0)
(2.99541 0.000679447 0)
(2.9886 0.0018743 0)
(2.97147 0.00425647 0)
(2.9262 0.0114182 0)
(2.80011 0.0293803 0)
(2.4304 0.0827678 0)
(1.45447 0.244069 0)
(0.717669 0.46044 0)
(0.700514 0.493486 0)
(0.730445 0.490131 0)
(0.719051 0.509205 0)
(0.673033 0.541295 0)
(0.617253 0.590782 0)
(0.568682 0.654803 0)
(0.536815 0.746702 0)
(0.534192 0.890472 0)
(0.568299 1.13222 0)
(3 1.2123e-07 0)
(2.99999 6.5578e-07 0)
(2.99998 2.56242e-06 0)
(2.99996 6.43675e-06 0)
(2.99989 1.88238e-05 0)
(2.99973 4.33432e-05 0)
(2.99935 0.000117055 0)
(2.99837 0.000269115 0)
(2.99603 0.000704381 0)
(2.99005 0.00165915 0)
(2.97527 0.00427344 0)
(2.9363 0.0105264 0)
(2.8284 0.0281614 0)
(2.51443 0.0777975 0)
(1.63765 0.227553 0)
(0.827604 0.509392 0)
(0.707819 0.52701 0)
(0.738462 0.529025 0)
(0.745977 0.547594 0)
(0.718722 0.583182 0)
(0.682393 0.634292 0)
(0.655011 0.704246 0)
(0.655235 0.801753 0)
(0.708023 0.938279 0)
(0.834529 1.11635 0)
(3 1.16587e-07 0)
(2.99999 6.52994e-07 0)
(2.99999 2.43595e-06 0)
(2.99996 6.39566e-06 0)
(2.99991 1.80652e-05 0)
(2.99977 4.23189e-05 0)
(2.99943 0.00011465 0)
(2.99863 0.000259536 0)
(2.99657 0.000703486 0)
(2.99158 0.00159407 0)
(2.97885 0.00427381 0)
(2.94614 0.0102454 0)
(2.85594 0.0276311 0)
(2.5952 0.0757076 0)
(1.84157 0.220144 0)
(0.963752 0.549008 0)
(0.719602 0.554448 0)
(0.750345 0.558004 0)
(0.772643 0.575899 0)
(0.762829 0.615501 0)
(0.745145 0.668759 0)
(0.740157 0.738813 0)
(0.763782 0.829916 0)
(0.837162 0.940938 0)
(0.978055 1.04993 0)
(3 9.54243e-08 0)
(3 6.89767e-07 0)
(2.99999 2.13726e-06 0)
(2.99997 6.7545e-06 0)
(2.99992 1.60468e-05 0)
(2.99981 4.46244e-05 0)
(2.99953 0.000102062 0)
(2.99886 0.000275494 0)
(2.99714 0.000633988 0)
(2.99302 0.00168215 0)
(2.98248 0.00398436 0)
(2.95575 0.0104308 0)
(2.88302 0.0266791 0)
(2.67453 0.0743592 0)
(2.06035 0.214881 0)
(1.12661 0.581313 0)
(0.750627 0.58959 0)
(0.775091 0.591701 0)
(0.806084 0.60202 0)
(0.810299 0.640425 0)
(0.805853 0.693966 0)
(0.816247 0.759454 0)
(0.85405 0.83695 0)
(0.931744 0.922255 0)
(1.06425 0.992896 0)
(3 8.70055e-08 0)
(3 6.07278e-07 0)
(2.99999 1.95616e-06 0)
(2.99997 5.94167e-06 0)
(2.99994 1.45958e-05 0)
(2.99985 3.94995e-05 0)
(2.99963 9.17984e-05 0)
(2.99907 0.000245703 0)
(2.99774 0.000564863 0)
(2.99437 0.00150617 0)
(2.98614 0.00352424 0)
(2.96504 0.00927373 0)
(2.90937 0.0233179 0)
(2.75289 0.0643242 0)
(2.29495 0.184326 0)
(1.34314 0.533644 0)
(0.836362 0.613273 0)
(0.826946 0.62893 0)
(0.851883 0.6344 0)
(0.8655 0.664269 0)
(0.867633 0.712299 0)
(0.884674 0.770329 0)
(0.928205 0.834494 0)
(1.00422 0.899921 0)
(1.12333 0.950852 0)
(3 7.87169e-08 0)
(3 4.82924e-07 0)
(2.99999 1.69934e-06 0)
(2.99998 4.7033e-06 0)
(2.99995 1.25923e-05 0)
(2.99988 3.11089e-05 0)
(2.9997 7.89095e-05 0)
(2.99925 0.000191807 0)
(2.99819 0.000478913 0)
(2.99549 0.0011675 0)
(2.98896 0.00290649 0)
(2.97225 0.00719398 0)
(2.9289 0.0182961 0)
(2.80862 0.0485448 0)
(2.46044 0.136122 0)
(1.5678 0.407229 0)
(0.931392 0.636853 0)
(0.874045 0.666884 0)
(0.893275 0.676166 0)
(0.916257 0.691942 0)
(0.926102 0.729191 0)
(0.946529 0.777539 0)
(0.990838 0.829863 0)
(1.06256 0.880665 0)
(1.16773 0.919443 0)
(3 6.68496e-08 0)
(3 3.99299e-07 0)
(2.99999 1.43813e-06 0)
(2.99998 3.89854e-06 0)
(2.99996 1.06407e-05 0)
(2.9999 2.58512e-05 0)
(2.99976 6.65055e-05 0)
(2.9994 0.000158929 0)
(2.99855 0.000401504 0)
(2.99639 0.000967611 0)
(2.99116 0.00242236 0)
(2.97786 0.00594621 0)
(2.9437 0.0149938 0)
(2.84971 0.0391577 0)
(2.57949 0.107814 0)
(1.81998 0.31745 0)
(1.06475 0.67401 0)
(0.904699 0.700817 0)
(0.919858 0.712101 0)
(0.951362 0.717592 0)
(0.975071 0.744642 0)
(1.0005 0.783784 0)
(1.04427 0.826097 0)
(1.11093 0.865798 0)
(1.20343 0.895707 0)
(3 5.92226e-08 0)
(3 3.41104e-07 0)
(2.99999 1.25373e-06 0)
(2.99999 3.33419e-06 0)
(2.99997 9.29358e-06 0)
(2.99992 2.20987e-05 0)
(2.99981 5.87297e-05 0)
(2.99953 0.000135999 0)
(2.99887 0.00035874 0)
(2.99717 0.000832426 0)
(2.99311 0.00218057 0)
(2.98272 0.00517349 0)
(2.95649 0.0134487 0)
(2.88537 0.034288 0)
(2.68263 0.0949304 0)
(2.08915 0.274708 0)
(1.24589 0.697856 0)
(0.944971 0.733015 0)
(0.948189 0.739907 0)
(0.981841 0.739947 0)
(1.01736 0.756692 0)
(1.04795 0.788124 0)
(1.09065 0.822925 0)
(1.15201 0.854528 0)
(1.23366 0.877795 0)
(3 4.60529e-08 0)
(3 2.94111e-07 0)
(3 9.93289e-07 0)
(2.99999 2.87138e-06 0)
(2.99998 7.3834e-06 0)
(2.99994 1.8878e-05 0)
(2.99986 4.70014e-05 0)
(2.99965 0.00011531 0)
(2.99913 0.000289526 0)
(2.99791 0.000696734 0)
(2.99478 0.00177258 0)
(2.98725 0.00427602 0)
(2.96794 0.0109513 0)
(2.91756 0.0277454 0)
(2.77784 0.0754341 0)
(2.37036 0.216001 0)
(1.50567 0.61332 0)
(1.04303 0.741558 0)
(1.00056 0.760365 0)
(1.02085 0.764468 0)
(1.05965 0.770766 0)
(1.09407 0.793395 0)
(1.13412 0.821224 0)
(1.18918 0.846446 0)
(1.26096 0.864605 0)
(3 3.48358e-08 0)
(3 2.30145e-07 0)
(3 7.72072e-07 0)
(2.99999 2.24309e-06 0)
(2.99998 5.70076e-06 0)
(2.99996 1.48667e-05 0)
(2.99989 3.53674e-05 0)
(2.99973 9.15131e-05 0)
(2.99935 0.000212667 0)
(2.99841 0.000554002 0)
(2.99609 0.00127943 0)
(2.99037 0.003335 0)
(2.97605 0.00787039 0)
(2.93894 0.0204633 0)
(2.83782 0.052776 0)
(2.54718 0.147404 0)
(1.77705 0.437959 0)
(1.15612 0.743799 0)
(1.04821 0.778933 0)
(1.05716 0.792126 0)
(1.09515 0.79142 0)
(1.13509 0.803284 0)
(1.17411 0.823127 0)
(1.22353 0.842283 0)
(1.28667 0.855939 0)
(3 2.99597e-08 0)
(3 1.74877e-07 0)
(3 6.37957e-07 0)
(2.99999 1.70409e-06 0)
(2.99999 4.71336e-06 0)
(2.99997 1.12967e-05 0)
(2.99992 2.94141e-05 0)
(2.9998 6.93786e-05 0)
(2.99952 0.00017718 0)
(2.9988 0.000421922 0)
(2.9971 0.0010613 0)
(2.99274 0.0025693 0)
(2.98219 0.00643326 0)
(2.95482 0.0159469 0)
(2.8814 0.0415825 0)
(2.67327 0.113011 0)
(2.07114 0.331657 0)
(1.32597 0.759387 0)
(1.09193 0.808577 0)
(1.08767 0.819409 0)
(1.12125 0.815417 0)
(1.16757 0.815266 0)
(1.20893 0.827127 0)
(1.25475 0.840969 0)
(1.31086 0.850832 0)
(3 2.28504e-08 0)
(3 1.38688e-07 0)
(3 4.88508e-07 0)
(3 1.35598e-06 0)
(2.99999 3.62303e-06 0)
(2.99998 8.93166e-06 0)
(2.99994 2.28397e-05 0)
(2.99986 5.44482e-05 0)
(2.99965 0.00013939 0)
(2.99914 0.000327968 0)
(2.99788 0.000844135 0)
(2.99485 0.00199017 0)
(2.98719 0.00512013 0)
(2.9682 0.012425 0)
(2.918 0.0323546 0)
(2.77986 0.086427 0)
(2.37669 0.24873 0)
(1.5849 0.674387 0)
(1.18315 0.814556 0)
(1.13538 0.834683 0)
(1.15273 0.837636 0)
(1.19707 0.830397 0)
(1.24176 0.833467 0)
(1.28487 0.841844 0)
(1.33474 0.848371 0)
(3 1.64118e-08 0)
(3 1.05635e-07 0)
(3 3.59477e-07 0)
(3 1.02848e-06 0)
(2.99999 2.65851e-06 0)
(2.99998 6.79101e-06 0)
(2.99996 1.65676e-05 0)
(2.9999 4.16001e-05 0)
(2.99975 9.99147e-05 0)
(2.99938 0.000250146 0)
(2.99848 0.000599552 0)
(2.99631 0.00150501 0)
(2.99089 0.0036217 0)
(2.97749 0.00914035 0)
(2.94283 0.0226674 0)
(2.84943 0.0597502 0)
(2.58229 0.165435 0)
(1.88243 0.485498 0)
(1.308 0.804145 0)
(1.18576 0.844711 0)
(1.1867 0.858858 0)
(1.22292 0.851605 0)
(1.2699 0.844322 0)
(1.31292 0.845562 0)
(1.35832 0.848312 0)
(3 1.20023e-08 0)
(3 8.13627e-08 0)
(3 2.64216e-07 0)
(3 7.91617e-07 0)
(2.99999 1.95903e-06 0)
(2.99999 5.18991e-06 0)
(2.99997 1.2269e-05 0)
(2.99993 3.15983e-05 0)
(2.99982 7.45019e-05 0)
(2.99956 0.00018901 0)
(2.99893 0.000449626 0)
(2.99737 0.00112913 0)
(2.99355 0.0027257 0)
(2.98404 0.00681205 0)
(2.95997 0.0168658 0)
(2.896 0.043564 0)
(2.71623 0.117771 0)
(2.19704 0.343997 0)
(1.49518 0.78803 0)
(1.2426 0.864517 0)
(1.22247 0.877549 0)
(1.24439 0.873179 0)
(1.29023 0.859757 0)
(1.33674 0.853506 0)
(1.38072 0.85156 0)
(3 8.82515e-09 0)
(3 5.9569e-08 0)
(3 1.94197e-07 0)
(3 5.79344e-07 0)
(3 1.43854e-06 0)
(2.99999 3.79884e-06 0)
(2.99998 9.01511e-06 0)
(2.99995 2.31066e-05 0)
(2.99988 5.47166e-05 0)
(2.9997 0.000137966 0)
(2.99927 0.000330605 0)
(2.9982 0.000821905 0)
(2.99563 0.00200117 0)
(2.98925 0.00494341 0)
(2.97343 0.0122543 0)
(2.93245 0.0311128 0)
(2.82198 0.0824952 0)
(2.50202 0.235002 0)
(1.78472 0.64378 0)
(1.35169 0.853557 0)
(1.27498 0.881542 0)
(1.27782 0.888865 0)
(1.31356 0.876926 0)
(1.35951 0.86428 0)
(1.40245 0.857925 0)
(3 6.68144e-09 0)
(3 4.05886e-08 0)
(3 1.44233e-07 0)
(3 3.93931e-07 0)
(3 1.06212e-06 0)
(2.99999 2.59184e-06 0)
(2.99999 6.58423e-06 0)
(2.99996 1.58248e-05 0)
(2.99992 3.93337e-05 0)
(2.99979 9.5082e-05 0)
(2.9995 0.000233025 0)
(2.99876 0.000568572 0)
(2.99699 0.00138397 0)
(2.99258 0.00341047 0)
(2.98175 0.00831936 0)
(2.95408 0.0208424 0)
(2.88058 0.0534153 0)
(2.67333 0.145576 0)
(2.10013 0.42408 0)
(1.49837 0.830153 0)
(1.32425 0.891175 0)
(1.31069 0.902664 0)
(1.33344 0.894926 0)
(1.3779 0.877488 0)
(1.42235 0.86636 0)
(3 4.78942e-09 0)
(3 2.86066e-08 0)
(3 1.02658e-07 0)
(3 2.78105e-07 0)
(3 7.56084e-07 0)
(3 1.82904e-06 0)
(2.99999 4.69565e-06 0)
(2.99998 1.11347e-05 0)
(2.99994 2.8076e-05 0)
(2.99986 6.69025e-05 0)
(2.99966 0.000166546 0)
(2.99916 0.000400623 0)
(2.99799 0.00098863 0)
(2.99503 0.00241086 0)
(2.98793 0.00592129 0)
(2.96986 0.0147208 0)
(2.92334 0.0372331 0)
(2.7963 0.0993379 0)
(2.42745 0.284668 0)
(1.7507 0.720112 0)
(1.40937 0.881899 0)
(1.35447 0.906365 0)
(1.36032 0.910085 0)
(1.39653 0.894223 0)
(1.44106 0.876087 0)
(3 3.28405e-09 0)
(3 2.00481e-08 0)
(3 7.02137e-08 0)
(3 1.94925e-07 0)
(3 5.15843e-07 0)
(3 1.27517e-06 0)
(2.99999 3.21486e-06 0)
(2.99998 7.69624e-06 0)
(2.99996 1.93254e-05 0)
(2.99991 4.57092e-05 0)
(2.99977 0.000114948 0)
(2.99944 0.000271588 0)
(2.99866 0.00068175 0)
(2.99669 0.00161867 0)
(2.992 0.00405511 0)
(2.98013 0.00982035 0)
(2.95033 0.0247418 0)
(2.87061 0.0638137 0)
(2.64529 0.175815 0)
(2.05964 0.501614 0)
(1.54014 0.853287 0)
(1.40369 0.910331 0)
(1.39116 0.921173 0)
(1.41266 0.911801 0)
(1.45421 0.888896 0)
(3 2.17467e-09 0)
(3 1.41007e-08 0)
(3 4.70146e-08 0)
(3 1.37011e-07 0)
(3 3.46259e-07 0)
(3 8.91879e-07 0)
(3 2.16527e-06 0)
(2.99999 5.35814e-06 0)
(2.99997 1.30589e-05 0)
(2.99994 3.16496e-05 0)
(2.99985 7.81203e-05 0)
(2.99964 0.000186348 0)
(2.99912 0.000466093 0)
(2.99784 0.00110155 0)
(2.99476 0.00278067 0)
(2.98706 0.00661606 0)
(2.96802 0.0167822 0)
(2.91833 0.0418936 0)
(2.7824 0.112576 0)
(2.39172 0.322879 0)
(1.76511 0.759232 0)
(1.47587 0.902817 0)
(1.42832 0.925052 0)
(1.43354 0.92585 0)
(1.46599 0.905575 0)
(3 1.4414e-09 0)
(3 9.53979e-09 0)
(3 3.15855e-08 0)
(3 9.2546e-08 0)
(3 2.32575e-07 0)
(3 6.04604e-07 0)
(3 1.44345e-06 0)
(2.99999 3.65311e-06 0)
(2.99998 8.64542e-06 0)
(2.99996 2.16357e-05 0)
(2.9999 5.15338e-05 0)
(2.99977 0.000127546 0)
(2.99942 0.00030661 0)
(2.99862 0.000751693 0)
(2.99659 0.00183157 0)
(2.99178 0.00446465 0)
(2.97964 0.0110408 0)
(2.94916 0.0274746 0)
(2.86816 0.0713448 0)
(2.63829 0.197608 0)
(2.06895 0.548613 0)
(1.60099 0.871718 0)
(1.47636 0.926992 0)
(1.46079 0.934044 0)
(1.47582 0.920453 0)
(3 9.85992e-10 0)
(3 6.1814e-09 0)
(3 2.14086e-08 0)
(3 6.00044e-08 0)
(3 1.57214e-07 0)
(3 3.93673e-07 0)
(3 9.68741e-07 0)
(3 2.38894e-06 0)
(2.99999 5.75553e-06 0)
(2.99997 1.42123e-05 0)
(2.99994 3.39629e-05 0)
(2.99985 8.43287e-05 0)
(2.99964 0.000200116 0)
(2.99911 0.000498403 0)
(2.99785 0.00118501 0)
(2.99473 0.0029527 0)
(2.98716 0.00710442 0)
(2.96815 0.0177432 0)
(2.91916 0.044634 0)
(2.78532 0.118949 0)
(2.40433 0.340563 0)
(1.81744 0.769385 0)
(1.5439 0.913711 0)
(1.49273 0.933239 0)
(1.48989 0.924567 0)
(3 6.63645e-10 0)
(3 4.03237e-09 0)
(3 1.41618e-08 0)
(3 3.91506e-08 0)
(3 1.03947e-07 0)
(3 2.55094e-07 0)
(3 6.43923e-07 0)
(3 1.53356e-06 0)
(2.99999 3.84131e-06 0)
(2.99998 9.09184e-06 0)
(2.99996 2.26461e-05 0)
(2.9999 5.37723e-05 0)
(2.99977 0.00013315 0)
(2.99944 0.00031851 0)
(2.99864 0.000782033 0)
(2.99671 0.00189158 0)
(2.99195 0.00462768 0)
(2.98032 0.0113775 0)
(2.95084 0.0282528 0)
(2.87292 0.0732265 0)
(2.65338 0.201709 0)
(2.11535 0.551499 0)
(1.66466 0.87697 0)
(1.53066 0.930979 0)
(1.50395 0.921057 0)
(3 4.28242e-10 0)
(3 2.57973e-09 0)
(3 9.17611e-09 0)
(3 2.50102e-08 0)
(3 6.71568e-08 0)
(3 1.63401e-07 0)
(3 4.13522e-07 0)
(3 9.84634e-07 0)
(3 2.44789e-06 0)
(2.99999 5.84438e-06 0)
(2.99998 1.43483e-05 0)
(2.99994 3.45296e-05 0)
(2.99986 8.39147e-05 0)
(2.99965 0.000204037 0)
(2.99916 0.000490321 0)
(2.99794 0.00120516 0)
(2.99506 0.00288377 0)
(2.98781 0.00714758 0)
(2.97017 0.0173762 0)
(2.92443 0.0441061 0)
(2.80107 0.116341 0)
(2.452 0.331627 0)
(1.88337 0.749829 0)
(1.58853 0.903807 0)
(1.51218 0.907955 0)
(3 2.55534e-10 0)
(3 1.6804e-09 0)
(3 5.56e-09 0)
(3 1.6246e-08 0)
(3 4.08913e-08 0)
(3 1.05085e-07 0)
(3 2.53084e-07 0)
(3 6.27268e-07 0)
(3 1.50635e-06 0)
(2.99999 3.67223e-06 0)
(2.99998 8.90835e-06 0)
(2.99996 2.13832e-05 0)
(2.99991 5.24929e-05 0)
(2.99978 0.000124543 0)
(2.99947 0.000309155 0)
(2.9987 0.000726422 0)
(2.9969 0.00182001 0)
(2.99238 0.00428703 0)
(2.98149 0.0107873 0)
(2.95368 0.0262031 0)
(2.8812 0.0680195 0)
(2.67765 0.185374 0)
(2.17054 0.507555 0)
(1.69287 0.851011 0)
(1.50473 0.884451 0)
(3 1.57482e-10 0)
(3 1.02397e-09 0)
(3 3.41343e-09 0)
(3 9.89458e-09 0)
(3 2.50107e-08 0)
(3 6.37596e-08 0)
(3 1.54159e-07 0)
(3 3.78336e-07 0)
(3 9.136e-07 0)
(3 2.19976e-06 0)
(2.99999 5.37046e-06 0)
(2.99998 1.274e-05 0)
(2.99994 3.14081e-05 0)
(2.99986 7.3836e-05 0)
(2.99966 0.000183506 0)
(2.9992 0.000428183 0)
(2.99803 0.00107154 0)
(2.99527 0.00250311 0)
(2.98839 0.00628724 0)
(2.97166 0.0149871 0)
(2.92857 0.0383101 0)
(2.81388 0.0998382 0)
(2.49282 0.285435 0)
(1.89371 0.668165 0)
(1.47936 0.799616 0)
(3 9.2106e-11 0)
(3 5.73867e-10 0)
(3 1.98794e-09 0)
(3 5.53403e-09 0)
(3 1.44494e-08 0)
(3 3.57259e-08 0)
(3 8.76289e-08 0)
(3 2.11648e-07 0)
(3 5.09653e-07 0)
(3 1.22858e-06 0)
(2.99999 2.93028e-06 0)
(2.99998 7.0832e-06 0)
(2.99996 1.67763e-05 0)
(2.99991 4.06448e-05 0)
(2.99977 9.60087e-05 0)
(2.99944 0.000232325 0)
(2.99863 0.000548062 0)
(2.99672 0.00132719 0)
(2.99187 0.00314354 0)
(2.98022 0.0076418 0)
(2.95025 0.0185114 0)
(2.87129 0.0469054 0)
(2.65305 0.126129 0)
(2.09763 0.350248 0)
(1.41204 0.623923 0)
(3 5.1798e-11 0)
(3 3.05288e-10 0)
(3 1.09173e-09 0)
(3 2.93304e-09 0)
(3 7.89551e-09 0)
(3 1.87424e-08 0)
(3 4.77822e-08 0)
(3 1.0924e-07 0)
(3 2.75189e-07 0)
(3 6.24138e-07 0)
(2.99999 1.56014e-06 0)
(2.99999 3.5427e-06 0)
(2.99997 8.74752e-06 0)
(2.99993 2.01317e-05 0)
(2.99982 4.85941e-05 0)
(2.99957 0.000114305 0)
(2.99894 0.000268052 0)
(2.99744 0.000646993 0)
(2.99364 0.00148222 0)
(2.98443 0.00365192 0)
(2.96082 0.0084987 0)
(2.89873 0.0212545 0)
(2.72636 0.054243 0)
(2.24847 0.150749 0)
(1.32898 0.361623 0)
(3 2.53962e-11 0)
(3 1.58344e-10 0)
(3 5.54175e-10 0)
(3 1.51334e-09 0)
(3 3.97741e-09 0)
(3 9.69344e-09 0)
(3 2.32729e-08 0)
(3 5.66903e-08 0)
(3 1.28988e-07 0)
(3 3.24302e-07 0)
(3 7.04506e-07 0)
(2.99999 1.82733e-06 0)
(2.99997 3.82551e-06 0)
(2.99994 1.01514e-05 0)
(2.99985 2.08867e-05 0)
(2.99963 5.54201e-05 0)
(2.99907 0.000113896 0)
(2.99773 0.000298658 0)
(2.99437 0.000622786 0)
(2.98605 0.00159347 0)
(2.96476 0.00345585 0)
(2.90823 0.0086167 0)
(2.74852 0.0204982 0)
(2.28645 0.0518326 0)
(1.23049 0.129207 0)
(3 1.33694e-11 0)
(3 8.09618e-11 0)
(3 2.85786e-10 0)
(3 7.66982e-10 0)
(3 2.0445e-09 0)
(3 4.78427e-09 0)
(3 1.19818e-08 0)
(3 2.75308e-08 0)
(3 6.62639e-08 0)
(3 1.54644e-07 0)
(3 3.60094e-07 0)
(2.99999 8.58972e-07 0)
(2.99998 1.9526e-06 0)
(2.99994 4.72031e-06 0)
(2.99986 1.06197e-05 0)
(2.99965 2.56857e-05 0)
(2.99914 5.72818e-05 0)
(2.99786 0.00014027 0)
(2.99472 0.000306535 0)
(2.98677 0.00076114 0)
(2.96664 0.00169139 0)
(2.91248 0.00418666 0)
(2.75912 0.010148 0)
(2.30407 0.0256443 0)
(1.19545 0.0619685 0)
(3 6.81051e-12 0)
(3 4.81918e-11 0)
(3 1.4615e-10 0)
(3 4.63312e-10 0)
(3 1.03517e-09 0)
(3 2.849e-09 0)
(3 6.2312e-09 0)
(3 1.5662e-08 0)
(3 3.64372e-08 0)
(3 8.24002e-08 0)
(3 2.08094e-07 0)
(2.99999 4.30934e-07 0)
(2.99998 1.18356e-06 0)
(2.99995 2.26482e-06 0)
(2.99986 6.63724e-06 0)
(2.99967 1.21965e-05 0)
(2.99917 3.72735e-05 0)
(2.99794 6.48579e-05 0)
(2.99489 0.000209756 0)
(2.9872 0.000359548 0)
(2.96759 0.00111458 0)
(2.91514 0.0022988 0)
(2.7654 0.0063944 0)
(2.31983 0.0164545 0)
(1.20523 0.0446857 0)
(3 4.07743e-12 0)
(3 2.8335e-11 0)
(3 8.90484e-11 0)
(3 2.75864e-10 0)
(3 6.31823e-10 0)
(3 1.76096e-09 0)
(3 3.74516e-09 0)
(3 9.912e-09 0)
(3 2.14705e-08 0)
(3 5.42695e-08 0)
(3 1.22522e-07 0)
(2.99999 2.90482e-07 0)
(2.99998 7.01518e-07 0)
(2.99995 1.52991e-06 0)
(2.99987 4.01288e-06 0)
(2.99968 8.19594e-06 0)
(2.99918 2.24074e-05 0)
(2.998 4.40863e-05 0)
(2.99496 0.000129413 0)
(2.98753 0.000246508 0)
(2.96825 0.00073928 0)
(2.91683 0.00161115 0)
(2.77062 0.00451646 0)
(2.33308 0.0123051 0)
(1.22627 0.0365749 0)
(3 4.13316e-12 0)
(3 1.91231e-11 0)
(3 7.98399e-11 0)
(3 1.78505e-10 0)
(3 5.77537e-10 0)
(3 1.07313e-09 0)
(3 3.55673e-09 0)
(3 5.84088e-09 0)
(3 2.07946e-08 0)
(3 3.11934e-08 0)
(3 1.18031e-07 0)
(2.99999 1.7e-07 0)
(2.99998 6.48676e-07 0)
(2.99995 9.63889e-07 0)
(2.99987 3.44466e-06 0)
(2.99968 5.5295e-06 0)
(2.9992 1.79267e-05 0)
(2.99803 3.43518e-05 0)
(2.99505 8.93392e-05 0)
(2.98771 0.000209864 0)
(2.96873 0.000503948 0)
(2.91825 0.00125362 0)
(2.77424 0.00336033 0)
(2.34537 0.00953929 0)
(1.24798 0.0300893 0)
(3 3.09953e-12 0)
(3 1.44215e-11 0)
(3 6.73083e-11 0)
(3 1.33637e-10 0)
(3 4.7326e-10 0)
(3 8.77128e-10 0)
(3 2.6515e-09 0)
(3 5.47359e-09 0)
(3 1.36822e-08 0)
(3 3.31011e-08 0)
(3 6.71369e-08 0)
(2.99999 1.95249e-07 0)
(2.99998 3.16566e-07 0)
(2.99995 1.16877e-06 0)
(2.99987 1.38858e-06 0)
(2.99969 6.6457e-06 0)
(2.99921 7.25332e-06 0)
(2.99806 3.76882e-05 0)
(2.99511 3.75592e-05 0)
(2.98788 0.000208417 0)
(2.9691 0.000268835 0)
(2.91926 0.00104777 0)
(2.77727 0.0023364 0)
(2.35521 0.00730928 0)
(1.26802 0.0238634 0)
(3 1.61254e-12 0)
(3 1.48196e-11 0)
(3 4.04518e-11 0)
(3 1.44393e-10 0)
(3 2.80734e-10 0)
(3 9.24946e-10 0)
(3 1.54666e-09 0)
(3 5.41508e-09 0)
(3 7.85116e-09 0)
(3 2.98122e-08 0)
(3 4.00171e-08 0)
(2.99999 1.54852e-07 0)
(2.99998 2.04305e-07 0)
(2.99995 7.54725e-07 0)
(2.99987 1.15555e-06 0)
(2.99969 3.38236e-06 0)
(2.99922 6.90128e-06 0)
(2.99806 1.53257e-05 0)
(2.9952 4.38454e-05 0)
(2.9879 7.90423e-05 0)
(2.96942 0.000254738 0)
(2.91997 0.000567668 0)
(2.77939 0.00165059 0)
(2.36334 0.00514939 0)
(1.2847 0.0179857 0)
(3 7.27137e-13 0)
(3 1.8769e-11 0)
(3 2.46003e-11 0)
(3 1.76697e-10 0)
(3 1.80271e-10 0)
(3 1.02328e-09 0)
(3 1.05377e-09 0)
(3 5.22153e-09 0)
(3 6.21434e-09 0)
(3 2.39237e-08 0)
(3 3.67182e-08 0)
(2.99999 1.01074e-07 0)
(2.99998 2.30485e-07 0)
(2.99995 3.0029e-07 0)
(2.99987 1.57049e-06 0)
(2.99969 4.13383e-07 0)
(2.99922 9.99574e-06 0)
(2.99809 -4.1227e-06 0)
(2.99516 6.17035e-05 0)
(2.98805 -2.93954e-05 0)
(2.96952 0.000270457 0)
(2.92038 0.000161765 0)
(2.78126 0.00113272 0)
(2.36888 0.00329927 0)
(1.29859 0.0127483 0)
(3 2.84227e-12 0)
(3 3.43833e-12 0)
(3 5.27115e-11 0)
(3 3.11483e-11 0)
(3 3.51408e-10 0)
(3 2.17702e-10 0)
(3 1.77747e-09 0)
(3 1.09374e-09 0)
(3 7.9908e-09 0)
(3 6.8634e-09 0)
(3 2.70491e-08 0)
(2.99999 5.00949e-08 0)
(2.99998 4.8614e-08 0)
(2.99995 3.73792e-07 0)
(2.99987 -4.12184e-07 0)
(2.99969 3.12803e-06 0)
(2.99922 -6.48347e-06 0)
(2.9981 2.22695e-05 0)
(2.99518 -4.52876e-05 0)
(2.98808 0.000119341 0)
(2.96959 -0.000132816 0)
(2.92065 0.000352598 0)
(2.78227 0.000288123 0)
(2.37322 0.00208957 0)
(1.30837 0.00837373 0)
(3 8.9802e-13 0)
(3 6.69943e-12 0)
(3 2.24338e-11 0)
(3 6.67272e-11 0)
(3 1.40767e-10 0)
(3 4.32972e-10 0)
(3 5.01215e-10 0)
(3 2.43177e-09 0)
(3 6.8005e-10 0)
(3 1.32784e-08 0)
(3 -7.63803e-09 0)
(2.99999 6.51601e-08 0)
(2.99998 -9.7913e-08 0)
(2.99995 3.44099e-07 0)
(2.99988 -8.04937e-07 0)
(2.99969 1.72415e-06 0)
(2.99923 -5.21096e-06 0)
(2.99806 8.27749e-06 0)
(2.99524 -2.56188e-05 0)
(2.98798 3.77628e-05 0)
(2.9697 -6.71699e-05 0)
(2.92079 0.000129462 0)
(2.78268 0.000157564 0)
(2.37667 0.00129688 0)
(1.31499 0.00531216 0)
(3 4.86645e-13 0)
(3 7.62192e-12 0)
(3 8.07874e-12 0)
(3 6.91428e-11 0)
(3 5.87403e-11 0)
(3 3.2983e-10 0)
(3 4.27487e-10 0)
(3 1.0066e-09 0)
(3 2.72823e-09 0)
(3 5.08774e-11 0)
(3 1.94603e-08 0)
(2.99999 -3.50974e-08 0)
(2.99998 1.25913e-07 0)
(2.99995 -3.71211e-07 0)
(2.99988 8.96504e-07 0)
(2.99969 -3.05489e-06 0)
(2.99923 6.27786e-06 0)
(2.99808 -1.99102e-05 0)
(2.9952 3.53132e-05 0)
(2.98804 -9.12988e-05 0)
(2.96968 0.000129718 0)
(2.92083 -0.000171277 0)
(2.78349 0.00034184 0)
(2.37829 0.00074835 0)
(1.32028 0.00321244 0)
(3 6.00477e-13 0)
(3 4.77967e-12 0)
(3 1.31957e-11 0)
(3 4.07628e-11 0)
(3 8.49425e-11 0)
(3 2.02907e-10 0)
(3 4.27337e-10 0)
(3 9.2152e-10 0)
(3 1.93933e-09 0)
(3 4.03287e-09 0)
(3 7.13199e-09 0)
(2.99999 1.35001e-08 0)
(2.99998 2.18002e-08 0)
(2.99995 2.81968e-08 0)
(2.99987 2.36576e-08 0)
(2.99969 -2.20681e-07 0)
(2.99922 -1.14716e-08 0)
(2.99809 -2.49501e-06 0)
(2.99518 -1.44208e-07 0)
(2.98806 -1.1456e-05 0)
(2.96964 2.00596e-06 0)
(2.92099 -2.02415e-05 0)
(2.78361 9.49327e-05 0)
(2.37981 0.000426281 0)
(1.32314 0.00158705 0)
(3 -7.64628e-13 0)
(3 5.94986e-12 0)
(3 -3.86579e-12 0)
(3 5.62622e-11 0)
(3 -3.43137e-11 0)
(3 3.69761e-10 0)
(3 -4.37756e-10 0)
(3 2.51866e-09 0)
(3 -3.62183e-09 0)
(3 1.62155e-08 0)
(3 -2.60694e-08 0)
(2.99999 9.1198e-08 0)
(2.99998 -1.52029e-07 0)
(2.99995 4.77664e-07 0)
(2.99988 -8.28172e-07 0)
(2.99969 2.03692e-06 0)
(2.99922 -3.37068e-06 0)
(2.99808 6.49434e-06 0)
(2.99519 -9.79239e-06 0)
(2.98804 1.67142e-05 0)
(2.96968 -2.4314e-05 0)
(2.92092 4.30537e-05 0)
(2.78397 -2.78146e-05 0)
(2.3801 0.000177247 0)
(1.32462 0.000469938 0)
(1.13235 1.00404 0)
(1.04587 0.715849 0)
(0.182485 0.455221 0)
(-0.429552 0.033606 0)
(-0.522199 -0.013295 0)
(-0.686021 -0.0242538 0)
(-0.74362 -0.0154662 0)
(-0.788148 0.00761435 0)
(-0.848606 0.0197282 0)
(-0.914147 0.0191755 0)
(-0.971379 0.0129605 0)
(-1.02091 0.00750033 0)
(-1.06842 0.00455916 0)
(-1.11645 0.00190534 0)
(-1.16514 0.000838088 0)
(-1.2034 0.00352554 0)
(-1.22248 0.0038441 0)
(-1.22875 0.00211231 0)
(-1.22632 -0.000574979 0)
(-1.20887 -0.00403014 0)
(-1.17195 -0.00778873 0)
(-1.11836 -0.0116279 0)
(-1.05308 -0.0150243 0)
(-0.981722 -0.0174231 0)
(-0.908559 -0.0188224 0)
(-0.836034 -0.0195175 0)
(-0.765343 -0.0198087 0)
(-0.697512 -0.0198293 0)
(-0.632579 -0.0196203 0)
(-0.57027 -0.0193995 0)
(-0.510169 -0.0194179 0)
(-0.452039 -0.0196322 0)
(-0.395347 -0.0202384 0)
(-0.338418 -0.021933 0)
(-0.282787 -0.0230359 0)
(-0.228792 -0.0236379 0)
(-0.176588 -0.0238703 0)
(-0.125707 -0.0242359 0)
(-0.0760507 -0.0247657 0)
(-0.0285489 -0.0262628 0)
(0.0227512 -0.0275333 0)
(0.0723892 -0.025621 0)
(0.116427 -0.0235783 0)
(0.159921 -0.0224764 0)
(0.201543 -0.0215302 0)
(0.240322 -0.0204814 0)
(0.277343 -0.0196879 0)
(0.314997 -0.0194184 0)
(0.352864 -0.0192625 0)
(0.389443 -0.0186155 0)
(0.424716 -0.0178968 0)
(0.458815 -0.0172362 0)
(0.491939 -0.0166156 0)
(0.524215 -0.016009 0)
(0.555712 -0.0154205 0)
(0.58645 -0.0148465 0)
(0.616484 -0.0142791 0)
(0.645853 -0.013725 0)
(0.674585 -0.013184 0)
(0.702725 -0.0126463 0)
(0.730307 -0.0121309 0)
(0.75735 -0.0116188 0)
(0.783899 -0.011129 0)
(0.809964 -0.0106483 0)
(0.83558 -0.0101884 0)
(0.86076 -0.00973973 0)
(0.885533 -0.00930909 0)
(0.909908 -0.0088932 0)
(0.93391 -0.00849018 0)
(0.957554 -0.00810311 0)
(0.98085 -0.00772709 0)
(1.00382 -0.00736354 0)
(1.02646 -0.00701054 0)
(1.04879 -0.00666624 0)
(1.07082 -0.00633033 0)
(1.09253 -0.0060015 0)
(1.11393 -0.00567885 0)
(1.13502 -0.00536303 0)
(1.15578 -0.00505302 0)
(1.17621 -0.00475046 0)
(1.19631 -0.00445454 0)
(1.21608 -0.00416667 0)
(1.23552 -0.0038855 0)
(1.25463 -0.00361245 0)
(1.2734 -0.00334454 0)
(1.29185 -0.00308435 0)
(1.30998 -0.00282529 0)
(1.32778 -0.00257051 0)
(1.34524 -0.00231699 0)
(1.36237 -0.00206474 0)
(1.37912 -0.0017956 0)
(1.39547 -0.00152542 0)
(1.41138 -0.00125037 0)
(1.42675 -0.000982759 0)
(1.44147 -0.000706287 0)
(1.45535 -0.000399132 0)
(1.46804 -3.61066e-05 0)