/*--------------------------------*- C++ -*----------------------------------*\
  =========                 |
  \\      /  F ield         | OpenFOAM: The Open Source CFD Toolbox
   \\    /   O peration     | Website:  https://openfoam.org
    \\  /    A nd           | Version:  10
     \\/     M anipulation  |
\*---------------------------------------------------------------------------*/
FoamFile
{
    format      ascii;
    class       volScalarField;
    location    "0.78";
    object      Exp1;
}
// * * * * * * * * * * * * * * * * * * * * * * * * * * * * * * * * * * * * * //

dimensions      [0 0 0 0 0 0 0];

internalField   uniform 0;

boundaryField
{
    frontAndBack
    {
        type            empty;
    }
    inlet
    {
        type            calculated;
        value           uniform 0;
    }
    outlet
    {
        type            calculated;
        value           uniform 0;
    }
    substrate
    {
        type            calculated;
        value           nonuniform List<scalar> 
400
(
6.22884e-14
1.86538e-13
3.10026e-13
4.32419e-13
5.53427e-13
6.72797e-13
7.90309e-13
9.05767e-13
1.019e-12
1.12987e-12
1.23825e-12
1.34403e-12
1.44714e-12
1.5475e-12
1.64506e-12
1.7398e-12
1.83168e-12
1.92071e-12
2.00688e-12
2.09021e-12
2.17072e-12
2.24844e-12
2.32341e-12
2.39566e-12
2.46525e-12
2.53223e-12
2.59666e-12
2.65859e-12
2.71808e-12
2.7752e-12
2.83001e-12
2.88256e-12
2.93294e-12
2.98119e-12
3.02739e-12
3.07159e-12
3.11386e-12
3.15425e-12
3.19283e-12
3.22966e-12
3.26479e-12
3.29828e-12
3.33017e-12
3.36053e-12
3.38941e-12
3.41684e-12
3.44288e-12
3.46757e-12
3.49096e-12
3.51309e-12
3.534e-12
3.55373e-12
3.57231e-12
3.58978e-12
3.60618e-12
3.62154e-12
3.63589e-12
3.64925e-12
3.66167e-12
3.67316e-12
3.68376e-12
3.69349e-12
3.70237e-12
3.71043e-12
3.71769e-12
3.72417e-12
3.72989e-12
3.73487e-12
3.73914e-12
3.7427e-12
3.74559e-12
3.7478e-12
3.74937e-12
3.7503e-12
3.75061e-12
3.75032e-12
3.74944e-12
3.74797e-12
3.74595e-12
3.74337e-12
3.74026e-12
3.73661e-12
3.73245e-12
3.72778e-12
3.72262e-12
3.71697e-12
3.71085e-12
3.70426e-12
3.69722e-12
3.68973e-12
3.68181e-12
3.67345e-12
3.66468e-12
3.65549e-12
3.64591e-12
3.63592e-12
3.62555e-12
3.6148e-12
3.60368e-12
3.5922e-12
3.58035e-12
3.56816e-12
3.55563e-12
3.54276e-12
3.52956e-12
3.51604e-12
3.50221e-12
3.48807e-12
3.47363e-12
3.45889e-12
3.44386e-12
3.42856e-12
3.41297e-12
3.39712e-12
3.38101e-12
3.36464e-12
3.34801e-12
3.33115e-12
3.31404e-12
3.29671e-12
3.27914e-12
3.26136e-12
3.24336e-12
3.22516e-12
3.20675e-12
3.18814e-12
3.16935e-12
3.15036e-12
3.1312e-12
3.11187e-12
3.09236e-12
3.07269e-12
3.05287e-12
3.03289e-12
3.01277e-12
2.9925e-12
2.9721e-12
2.95157e-12
2.93092e-12
2.91014e-12
2.88925e-12
2.86825e-12
2.84715e-12
2.82595e-12
2.80466e-12
2.78327e-12
2.7618e-12
2.74026e-12
2.71864e-12
2.69695e-12
2.6752e-12
2.65338e-12
2.63152e-12
2.6096e-12
2.58764e-12
2.56564e-12
2.5436e-12
2.52153e-12
2.49943e-12
2.47731e-12
2.45518e-12
2.43303e-12
2.41087e-12
2.3887e-12
2.36654e-12
2.34437e-12
2.32222e-12
2.30007e-12
2.27794e-12
2.25583e-12
2.23375e-12
2.21169e-12
2.18966e-12
2.16766e-12
2.1457e-12
2.12378e-12
2.10191e-12
2.08009e-12
2.05832e-12
2.0366e-12
2.01494e-12
1.99334e-12
1.97181e-12
1.95035e-12
1.92895e-12
1.90764e-12
1.88639e-12
1.86523e-12
1.84415e-12
1.82316e-12
1.80225e-12
1.78143e-12
1.76071e-12
1.74008e-12
1.71955e-12
1.69912e-12
1.6788e-12
1.65858e-12
1.63846e-12
1.61846e-12
1.59857e-12
1.57879e-12
1.55913e-12
1.53958e-12
1.52015e-12
1.50085e-12
1.48167e-12
1.46261e-12
1.44368e-12
1.42487e-12
1.4062e-12
1.38766e-12
1.36925e-12
1.35097e-12
1.33282e-12
1.31482e-12
1.29695e-12
1.27922e-12
1.26162e-12
1.24417e-12
1.22686e-12
1.20969e-12
1.19267e-12
1.17579e-12
1.15905e-12
1.14246e-12
1.12602e-12
1.10972e-12
1.09357e-12
1.07757e-12
1.06171e-12
1.04601e-12
1.03045e-12
1.01505e-12
9.9979e-13
9.84683e-13
9.69727e-13
9.54921e-13
9.40265e-13
9.25761e-13
9.11407e-13
8.97203e-13
8.83151e-13
8.69249e-13
8.55498e-13
8.41897e-13
8.28446e-13
8.15146e-13
8.01995e-13
7.88993e-13
7.76141e-13
7.63438e-13
7.50883e-13
7.38476e-13
7.26217e-13
7.14105e-13
7.0214e-13
6.90321e-13
6.78647e-13
6.67119e-13
6.55735e-13
6.44495e-13
6.33398e-13
6.22443e-13
6.11631e-13
6.00959e-13
5.90428e-13
5.80036e-13
5.69784e-13
5.59669e-13
5.49691e-13
5.3985e-13
5.30144e-13
5.20573e-13
5.11136e-13
5.01832e-13
4.92659e-13
4.83618e-13
4.74706e-13
4.65924e-13
4.5727e-13
4.48743e-13
4.40342e-13
4.32067e-13
4.23915e-13
4.15887e-13
4.07981e-13
4.00195e-13
3.9253e-13
3.84984e-13
3.77556e-13
3.70244e-13
3.63048e-13
3.55967e-13
3.49e-13
3.42145e-13
3.35401e-13
3.28768e-13
3.22244e-13
3.15828e-13
3.09519e-13
3.03316e-13
2.97218e-13
2.91224e-13
2.85332e-13
2.79542e-13
2.73853e-13
2.68262e-13
2.6277e-13
2.57375e-13
2.52077e-13
2.46873e-13
2.41763e-13
2.36746e-13
2.3182e-13
2.26986e-13
2.22241e-13
2.17584e-13
2.13015e-13
2.08533e-13
2.04136e-13
1.99823e-13
1.95593e-13
1.91446e-13
1.8738e-13
1.83395e-13
1.79489e-13
1.75661e-13
1.7191e-13
1.68236e-13
1.64638e-13
1.61113e-13
1.57662e-13
1.54284e-13
1.50978e-13
1.47742e-13
1.44576e-13
1.41478e-13
1.38449e-13
1.35487e-13
1.32592e-13
1.29761e-13
1.26996e-13
1.24294e-13
1.21655e-13
1.19079e-13
1.16563e-13
1.14108e-13
1.11714e-13
1.09378e-13
1.071e-13
1.0488e-13
1.02717e-13
1.00611e-13
9.85593e-14
9.65628e-14
9.46204e-14
9.27316e-14
9.08956e-14
8.91119e-14
8.73797e-14
8.56987e-14
8.40681e-14
8.24873e-14
8.0956e-14
7.94734e-14
7.80391e-14
7.66525e-14
7.53132e-14
7.40207e-14
7.27746e-14
7.15743e-14
7.04194e-14
6.93095e-14
6.82443e-14
6.72232e-14
6.62459e-14
6.53122e-14
6.44215e-14
6.35736e-14
6.27681e-14
6.20049e-14
6.12834e-14
6.06036e-14
5.99651e-14
5.93677e-14
5.88111e-14
5.82952e-14
5.78198e-14
5.73846e-14
5.69895e-14
5.66343e-14
5.63189e-14
5.60433e-14
5.58072e-14
5.56106e-14
5.54534e-14
5.53355e-14
5.5257e-14
5.52178e-14
)
;
    }
    Wall
    {
        type            calculated;
        value           nonuniform List<scalar> 
400
(
6.22885e-14
1.86538e-13
3.10027e-13
4.3242e-13
5.53428e-13
6.72798e-13
7.9031e-13
9.05768e-13
1.019e-12
1.12987e-12
1.23825e-12
1.34403e-12
1.44714e-12
1.5475e-12
1.64506e-12
1.7398e-12
1.83169e-12
1.92071e-12
2.00688e-12
2.09021e-12
2.17072e-12
2.24844e-12
2.3234e-12
2.39566e-12
2.46525e-12
2.53223e-12
2.59666e-12
2.65859e-12
2.71808e-12
2.7752e-12
2.83e-12
2.88256e-12
2.93294e-12
2.98119e-12
3.02738e-12
3.07159e-12
3.11385e-12
3.15425e-12
3.19283e-12
3.22966e-12
3.26479e-12
3.29827e-12
3.33017e-12
3.36053e-12
3.3894e-12
3.41683e-12
3.44287e-12
3.46757e-12
3.49096e-12
3.51309e-12
3.534e-12
3.55372e-12
3.5723e-12
3.58978e-12
3.60618e-12
3.62153e-12
3.63588e-12
3.64925e-12
3.66166e-12
3.67316e-12
3.68375e-12
3.69348e-12
3.70236e-12
3.71042e-12
3.71768e-12
3.72416e-12
3.72988e-12
3.73486e-12
3.73913e-12
3.74269e-12
3.74558e-12
3.74779e-12
3.74936e-12
3.75029e-12
3.7506e-12
3.75031e-12
3.74942e-12
3.74796e-12
3.74594e-12
3.74336e-12
3.74025e-12
3.7366e-12
3.73244e-12
3.72777e-12
3.72261e-12
3.71696e-12
3.71084e-12
3.70425e-12
3.69721e-12
3.68972e-12
3.68179e-12
3.67344e-12
3.66467e-12
3.65548e-12
3.64589e-12
3.63591e-12
3.62554e-12
3.61479e-12
3.60367e-12
3.59218e-12
3.58034e-12
3.56815e-12
3.55562e-12
3.54275e-12
3.52955e-12
3.51603e-12
3.5022e-12
3.48806e-12
3.47361e-12
3.45888e-12
3.44385e-12
3.42854e-12
3.41296e-12
3.39711e-12
3.381e-12
3.36462e-12
3.348e-12
3.33114e-12
3.31403e-12
3.2967e-12
3.27913e-12
3.26135e-12
3.24335e-12
3.22515e-12
3.20674e-12
3.18813e-12
3.16934e-12
3.15035e-12
3.13119e-12
3.11185e-12
3.09235e-12
3.07268e-12
3.05286e-12
3.03288e-12
3.01276e-12
2.99249e-12
2.97209e-12
2.95156e-12
2.93091e-12
2.91013e-12
2.88924e-12
2.86824e-12
2.84714e-12
2.82594e-12
2.80465e-12
2.78326e-12
2.76179e-12
2.74025e-12
2.71863e-12
2.69694e-12
2.67519e-12
2.65337e-12
2.63151e-12
2.60959e-12
2.58763e-12
2.56563e-12
2.54359e-12
2.52152e-12
2.49942e-12
2.47731e-12
2.45517e-12
2.43302e-12
2.41086e-12
2.38869e-12
2.36653e-12
2.34437e-12
2.32221e-12
2.30007e-12
2.27794e-12
2.25583e-12
2.23374e-12
2.21168e-12
2.18965e-12
2.16765e-12
2.14569e-12
2.12378e-12
2.1019e-12
2.08008e-12
2.05831e-12
2.03659e-12
2.01493e-12
1.99334e-12
1.9718e-12
1.95034e-12
1.92895e-12
1.90763e-12
1.88639e-12
1.86522e-12
1.84414e-12
1.82315e-12
1.80224e-12
1.78143e-12
1.7607e-12
1.74008e-12
1.71955e-12
1.69912e-12
1.67879e-12
1.65857e-12
1.63846e-12
1.61845e-12
1.59856e-12
1.57878e-12
1.55912e-12
1.53957e-12
1.52015e-12
1.50084e-12
1.48166e-12
1.4626e-12
1.44367e-12
1.42487e-12
1.4062e-12
1.38765e-12
1.36924e-12
1.35096e-12
1.33282e-12
1.31481e-12
1.29694e-12
1.27921e-12
1.26162e-12
1.24417e-12
1.22686e-12
1.20969e-12
1.19267e-12
1.17578e-12
1.15905e-12
1.14246e-12
1.12601e-12
1.10972e-12
1.09357e-12
1.07756e-12
1.06171e-12
1.04601e-12
1.03045e-12
1.01504e-12
9.99786e-13
9.84679e-13
9.69723e-13
9.54917e-13
9.40262e-13
9.25757e-13
9.11403e-13
8.972e-13
8.83148e-13
8.69246e-13
8.55495e-13
8.41894e-13
8.28443e-13
8.15143e-13
8.01992e-13
7.8899e-13
7.76138e-13
7.63435e-13
7.5088e-13
7.38474e-13
7.26214e-13
7.14103e-13
7.02137e-13
6.90318e-13
6.78645e-13
6.67117e-13
6.55733e-13
6.44492e-13
6.33396e-13
6.22441e-13
6.11629e-13
6.00957e-13
5.90426e-13
5.80034e-13
5.69782e-13
5.59667e-13
5.49689e-13
5.39848e-13
5.30143e-13
5.20572e-13
5.11134e-13
5.0183e-13
4.92657e-13
4.83616e-13
4.74705e-13
4.65922e-13
4.57268e-13
4.48741e-13
4.40341e-13
4.32065e-13
4.23914e-13
4.15885e-13
4.07979e-13
4.00194e-13
3.92529e-13
3.84982e-13
3.77554e-13
3.70243e-13
3.63047e-13
3.55966e-13
3.48998e-13
3.42143e-13
3.354e-13
3.28767e-13
3.22243e-13
3.15827e-13
3.09518e-13
3.03315e-13
2.97217e-13
2.91223e-13
2.85331e-13
2.79541e-13
2.73852e-13
2.68261e-13
2.62769e-13
2.57374e-13
2.52076e-13
2.46872e-13
2.41762e-13
2.36745e-13
2.3182e-13
2.26985e-13
2.2224e-13
2.17583e-13
2.13014e-13
2.08532e-13
2.04135e-13
1.99822e-13
1.95593e-13
1.91446e-13
1.8738e-13
1.83394e-13
1.79488e-13
1.7566e-13
1.7191e-13
1.68236e-13
1.64637e-13
1.61113e-13
1.57662e-13
1.54284e-13
1.50977e-13
1.47741e-13
1.44575e-13
1.41478e-13
1.38449e-13
1.35487e-13
1.32591e-13
1.29761e-13
1.26995e-13
1.24294e-13
1.21655e-13
1.19078e-13
1.16563e-13
1.14108e-13
1.11713e-13
1.09377e-13
1.071e-13
1.0488e-13
1.02717e-13
1.0061e-13
9.85589e-14
9.65624e-14
9.46201e-14
9.27313e-14
9.08953e-14
8.91115e-14
8.73794e-14
8.56984e-14
8.40678e-14
8.24871e-14
8.09557e-14
7.94731e-14
7.80388e-14
7.66523e-14
7.5313e-14
7.40205e-14
7.27743e-14
7.1574e-14
7.04192e-14
6.93093e-14
6.8244e-14
6.7223e-14
6.62457e-14
6.53119e-14
6.44213e-14
6.35734e-14
6.27679e-14
6.20047e-14
6.12832e-14
6.06034e-14
5.99649e-14
5.93675e-14
5.8811e-14
5.8295e-14
5.78196e-14
5.73844e-14
5.69893e-14
5.66341e-14
5.63187e-14
5.6043e-14
5.58069e-14
5.56103e-14
5.54532e-14
5.53354e-14
5.52569e-14
5.52176e-14
)
;
    }
}


// ************************************************************************* //
