/*--------------------------------*- C++ -*----------------------------------*\
  =========                 |
  \\      /  F ield         | OpenFOAM: The Open Source CFD Toolbox
   \\    /   O peration     | Website:  https://openfoam.org
    \\  /    A nd           | Version:  10
     \\/     M anipulation  |
\*---------------------------------------------------------------------------*/
FoamFile
{
    format      ascii;
    class       volScalarField;
    location    "0.7";
    object      growth;
}
// * * * * * * * * * * * * * * * * * * * * * * * * * * * * * * * * * * * * * //

dimensions      [0 0 0 0 0 0 0];

internalField   uniform 0;

boundaryField
{
    frontAndBack
    {
        type            empty;
    }
    inlet
    {
        type            calculated;
        value           uniform 0;
    }
    outlet
    {
        type            calculated;
        value           uniform 0;
    }
    substrate
    {
        type            calculated;
        value           nonuniform List<scalar> 
400
(
0.734673
0.712425
0.691347
0.670899
0.650825
0.631001
0.611366
0.591896
0.572588
0.553452
0.534506
0.515774
0.497281
0.479053
0.461116
0.443497
0.426218
0.409302
0.392768
0.376634
0.360915
0.345622
0.330766
0.316355
0.302393
0.288885
0.27583
0.26323
0.251081
0.239379
0.22812
0.217296
0.206902
0.196927
0.187364
0.178202
0.16943
0.161039
0.153017
0.145352
0.138033
0.131048
0.124386
0.118035
0.111983
0.106218
0.100731
0.0955082
0.09054
0.0858157
0.0813246
0.0770567
0.0730021
0.0691513
0.065495
0.0620244
0.0587308
0.055606
0.0526418
0.0498307
0.0471653
0.0446385
0.0422434
0.0399737
0.0378231
0.0357856
0.0338556
0.0320277
0.0302966
0.0286574
0.0271054
0.0256362
0.0242455
0.0229291
0.0216833
0.0205043
0.0193887
0.0183331
0.0173344
0.0163895
0.0154957
0.0146502
0.0138504
0.013094
0.0123786
0.011702
0.0110621
0.010457
0.00988478
0.00934371
0.00883211
0.00834839
0.00789103
0.00745862
0.0070498
0.0066633
0.00629792
0.0059525
0.00562596
0.00531728
0.00502548
0.00474966
0.00448893
0.00424248
0.00400953
0.00378934
0.00358122
0.0033845
0.00319857
0.00302284
0.00285675
0.00269976
0.0025514
0.00241117
0.00227864
0.00215339
0.00203501
0.00192313
0.0018174
0.00171747
0.00162304
0.00153379
0.00144945
0.00136973
0.00129441
0.00122322
0.00115594
0.00109236
0.00103227
0.000975494
0.000921834
0.000871125
0.000823204
0.000777918
0.000735122
0.00069468
0.000656462
0.000620345
0.000586215
0.000553962
0.000523484
0.000494681
0.000467463
0.000441742
0.000417436
0.000394468
0.000372762
0.000352251
0.000332869
0.000314552
0.000297244
0.000280887
0.000265431
0.000250825
0.000237022
0.000223979
0.000211654
0.000200007
0.000189001
0.0001786
0.000168772
0.000159484
0.000150708
0.000142414
0.000134577
0.000127171
0.000120173
0.000113559
0.00010731
0.000101405
9.58241e-05
9.05507e-05
8.55675e-05
8.08585e-05
7.64087e-05
7.22037e-05
6.82302e-05
6.44753e-05
6.0927e-05
5.7574e-05
5.44056e-05
5.14115e-05
4.85822e-05
4.59085e-05
4.3382e-05
4.09946e-05
3.87385e-05
3.66066e-05
3.4592e-05
3.26883e-05
3.08894e-05
2.91894e-05
2.7583e-05
2.6065e-05
2.46306e-05
2.32751e-05
2.19942e-05
2.07837e-05
1.96399e-05
1.85591e-05
1.75377e-05
1.65725e-05
1.56605e-05
1.47986e-05
1.39842e-05
1.32146e-05
1.24874e-05
1.18001e-05
1.11507e-05
1.05371e-05
9.95716e-06
9.40918e-06
8.89136e-06
8.40203e-06
7.93963e-06
7.50268e-06
7.08978e-06
6.6996e-06
6.3309e-06
5.98248e-06
5.65324e-06
5.34212e-06
5.04812e-06
4.7703e-06
4.50777e-06
4.25969e-06
4.02526e-06
3.80374e-06
3.5944e-06
3.39659e-06
3.20966e-06
3.03302e-06
2.8661e-06
2.70836e-06
2.55931e-06
2.41846e-06
2.28536e-06
2.15959e-06
2.04074e-06
1.92843e-06
1.8223e-06
1.72201e-06
1.62724e-06
1.53768e-06
1.45306e-06
1.37309e-06
1.29752e-06
1.22611e-06
1.15864e-06
1.09487e-06
1.03461e-06
9.77675e-07
9.23869e-07
8.73024e-07
8.24977e-07
7.79574e-07
7.36671e-07
6.96128e-07
6.57816e-07
6.21613e-07
5.87403e-07
5.55075e-07
5.24526e-07
4.95659e-07
4.6838e-07
4.42603e-07
4.18244e-07
3.95226e-07
3.73474e-07
3.5292e-07
3.33497e-07
3.15142e-07
2.97798e-07
2.81409e-07
2.65921e-07
2.51286e-07
2.37456e-07
2.24387e-07
2.12038e-07
2.00368e-07
1.89341e-07
1.7892e-07
1.69073e-07
1.59768e-07
1.50975e-07
1.42665e-07
1.34814e-07
1.27394e-07
1.20382e-07
1.13757e-07
1.07496e-07
1.0158e-07
9.5989e-08
9.0706e-08
8.57138e-08
8.09963e-08
7.65385e-08
7.2326e-08
6.83453e-08
6.45837e-08
6.10292e-08
5.76702e-08
5.44962e-08
5.14968e-08
4.86625e-08
4.59843e-08
4.34534e-08
4.10618e-08
3.88019e-08
3.66663e-08
3.46483e-08
3.27414e-08
3.09394e-08
2.92366e-08
2.76275e-08
2.6107e-08
2.46702e-08
2.33125e-08
2.20295e-08
2.08172e-08
1.96716e-08
1.8589e-08
1.75661e-08
1.65995e-08
1.56861e-08
1.4823e-08
1.40074e-08
1.32367e-08
1.25085e-08
1.18203e-08
1.11701e-08
1.05557e-08
9.97512e-09
9.42654e-09
8.90818e-09
8.41839e-09
7.95559e-09
7.5183e-09
7.10512e-09
6.71472e-09
6.34585e-09
5.99734e-09
5.66806e-09
5.35695e-09
5.06303e-09
4.78534e-09
4.523e-09
4.27516e-09
4.04104e-09
3.81988e-09
3.61097e-09
3.41364e-09
3.22726e-09
3.05123e-09
2.88499e-09
2.72801e-09
2.57977e-09
2.43981e-09
2.30768e-09
2.18295e-09
2.06523e-09
1.95413e-09
1.8493e-09
1.7504e-09
1.65712e-09
1.56916e-09
1.48623e-09
1.40807e-09
1.33444e-09
1.26508e-09
1.19978e-09
1.13834e-09
1.08054e-09
1.02622e-09
9.7519e-10
9.27291e-10
8.82368e-10
8.40278e-10
8.00886e-10
7.64066e-10
7.29699e-10
6.97675e-10
6.67892e-10
6.40253e-10
6.14671e-10
5.91063e-10
5.69353e-10
5.49473e-10
5.31357e-10
5.14948e-10
5.00194e-10
4.87047e-10
4.75465e-10
4.65411e-10
4.56852e-10
4.49761e-10
4.44115e-10
4.39897e-10
4.37092e-10
4.35692e-10
)
;
    }
    Wall
    {
        type            calculated;
        value           nonuniform List<scalar> 
400
(
0.734673
0.712424
0.691347
0.670899
0.650826
0.631001
0.611366
0.591895
0.572587
0.553451
0.534506
0.515774
0.497281
0.479053
0.461117
0.443498
0.42622
0.409304
0.392771
0.376637
0.360918
0.345625
0.33077
0.316359
0.302397
0.288889
0.275835
0.263234
0.251085
0.239384
0.228124
0.217301
0.206907
0.196932
0.187369
0.178207
0.169435
0.161044
0.153022
0.145357
0.138038
0.131053
0.124391
0.118039
0.111987
0.106223
0.100735
0.0955123
0.0905441
0.0858196
0.0813284
0.0770603
0.0730056
0.0691547
0.0654983
0.0620276
0.0587339
0.0556089
0.0526446
0.0498334
0.0471679
0.0446409
0.0422458
0.039976
0.0378252
0.0357877
0.0338576
0.0320295
0.0302983
0.0286591
0.027107
0.0256377
0.0242469
0.0229304
0.0216846
0.0205055
0.0193898
0.0183342
0.0173354
0.0163905
0.0154966
0.014651
0.0138512
0.0130947
0.0123793
0.0117026
0.0110627
0.0104576
0.00988533
0.00934423
0.0088326
0.00834884
0.00789145
0.00745901
0.00705017
0.00666365
0.00629824
0.0059528
0.00562624
0.00531754
0.00502573
0.00474989
0.00448914
0.00424268
0.00400971
0.00378951
0.00358138
0.00338465
0.00319871
0.00302297
0.00285686
0.00269987
0.0025515
0.00241126
0.00227873
0.00215347
0.00203508
0.0019232
0.00181746
0.00171753
0.00162309
0.00153384
0.00144949
0.00136978
0.00129444
0.00122325
0.00115597
0.00109239
0.0010323
0.00097552
0.000921858
0.000871147
0.000823224
0.000777937
0.000735139
0.000694696
0.000656476
0.000620358
0.000586227
0.000553973
0.000523494
0.00049469
0.000467472
0.00044175
0.000417444
0.000394474
0.000372768
0.000352257
0.000332873
0.000314557
0.000297248
0.000280891
0.000265434
0.000250828
0.000237025
0.000223982
0.000211656
0.000200009
0.000189002
0.000178602
0.000168773
0.000159485
0.000150709
0.000142415
0.000134578
0.000127172
0.000120173
0.00011356
0.000107311
0.000101405
9.58246e-05
9.05512e-05
8.55679e-05
8.08589e-05
7.6409e-05
7.2204e-05
6.82304e-05
6.44755e-05
6.09273e-05
5.75742e-05
5.44058e-05
5.14116e-05
4.85823e-05
4.59087e-05
4.33821e-05
4.09947e-05
3.87386e-05
3.66067e-05
3.45921e-05
3.26884e-05
3.08894e-05
2.91895e-05
2.75831e-05
2.60651e-05
2.46306e-05
2.32751e-05
2.19942e-05
2.07838e-05
1.964e-05
1.85591e-05
1.75377e-05
1.65725e-05
1.56605e-05
1.47986e-05
1.39842e-05
1.32146e-05
1.24874e-05
1.18001e-05
1.11507e-05
1.05371e-05
9.95716e-06
9.40918e-06
8.89136e-06
8.40203e-06
7.93963e-06
7.50268e-06
7.08978e-06
6.6996e-06
6.33089e-06
5.98248e-06
5.65324e-06
5.34212e-06
5.04812e-06
4.7703e-06
4.50777e-06
4.25969e-06
4.02526e-06
3.80374e-06
3.5944e-06
3.39659e-06
3.20966e-06
3.03302e-06
2.8661e-06
2.70836e-06
2.55931e-06
2.41846e-06
2.28536e-06
2.15959e-06
2.04074e-06
1.92843e-06
1.8223e-06
1.72201e-06
1.62724e-06
1.53768e-06
1.45306e-06
1.37309e-06
1.29752e-06
1.22611e-06
1.15864e-06
1.09487e-06
1.03461e-06
9.77674e-07
9.23868e-07
8.73023e-07
8.24977e-07
7.79574e-07
7.3667e-07
6.96128e-07
6.57816e-07
6.21613e-07
5.87403e-07
5.55075e-07
5.24526e-07
4.95659e-07
4.6838e-07
4.42603e-07
4.18244e-07
3.95226e-07
3.73474e-07
3.5292e-07
3.33497e-07
3.15142e-07
2.97798e-07
2.81409e-07
2.65921e-07
2.51286e-07
2.37456e-07
2.24387e-07
2.12038e-07
2.00368e-07
1.89341e-07
1.7892e-07
1.69073e-07
1.59768e-07
1.50975e-07
1.42665e-07
1.34813e-07
1.27394e-07
1.20382e-07
1.13757e-07
1.07496e-07
1.0158e-07
9.5989e-08
9.0706e-08
8.57138e-08
8.09963e-08
7.65385e-08
7.2326e-08
6.83453e-08
6.45837e-08
6.10292e-08
5.76702e-08
5.44962e-08
5.14968e-08
4.86625e-08
4.59843e-08
4.34534e-08
4.10618e-08
3.88019e-08
3.66663e-08
3.46483e-08
3.27414e-08
3.09394e-08
2.92366e-08
2.76275e-08
2.6107e-08
2.46702e-08
2.33125e-08
2.20295e-08
2.08172e-08
1.96716e-08
1.8589e-08
1.75661e-08
1.65995e-08
1.56861e-08
1.4823e-08
1.40074e-08
1.32367e-08
1.25085e-08
1.18203e-08
1.11701e-08
1.05557e-08
9.97513e-09
9.42654e-09
8.90818e-09
8.41839e-09
7.95559e-09
7.5183e-09
7.10512e-09
6.71472e-09
6.34585e-09
5.99734e-09
5.66806e-09
5.35695e-09
5.06303e-09
4.78534e-09
4.523e-09
4.27517e-09
4.04104e-09
3.81988e-09
3.61097e-09
3.41364e-09
3.22726e-09
3.05123e-09
2.88499e-09
2.72801e-09
2.57977e-09
2.43981e-09
2.30768e-09
2.18295e-09
2.06523e-09
1.95413e-09
1.8493e-09
1.7504e-09
1.65712e-09
1.56916e-09
1.48623e-09
1.40808e-09
1.33444e-09
1.26508e-09
1.19978e-09
1.13834e-09
1.08054e-09
1.02622e-09
9.7519e-10
9.27291e-10
8.82368e-10
8.40278e-10
8.00887e-10
7.64066e-10
7.29699e-10
6.97675e-10
6.67892e-10
6.40253e-10
6.14671e-10
5.91063e-10
5.69353e-10
5.49473e-10
5.31357e-10
5.14949e-10
5.00194e-10
4.87047e-10
4.75465e-10
4.65411e-10
4.56852e-10
4.49761e-10
4.44115e-10
4.39897e-10
4.37092e-10
4.35692e-10
)
;
    }
}


// ************************************************************************* //
