/*--------------------------------*- C++ -*----------------------------------*\
  =========                 |
  \\      /  F ield         | OpenFOAM: The Open Source CFD Toolbox
   \\    /   O peration     | Website:  https://openfoam.org
    \\  /    A nd           | Version:  10
     \\/     M anipulation  |
\*---------------------------------------------------------------------------*/
FoamFile
{
    format      ascii;
    class       volScalarField;
    location    "0.16";
    object      cov;
}
// * * * * * * * * * * * * * * * * * * * * * * * * * * * * * * * * * * * * * //

dimensions      [0 0 0 0 0 0 0];

internalField   uniform 0;

boundaryField
{
    frontAndBack
    {
        type            empty;
    }
    inlet
    {
        type            calculated;
        value           uniform 0;
    }
    outlet
    {
        type            calculated;
        value           uniform 0;
    }
    substrate
    {
        type            calculated;
        value           nonuniform List<scalar> 
400
(
0.734487
0.711822
0.690273
0.669304
0.648665
0.628235
0.607956
0.587811
0.5678
0.547939
0.528251
0.508764
0.48951
0.470519
0.451824
0.433454
0.415439
0.397804
0.380574
0.363769
0.347409
0.331508
0.316079
0.301132
0.286675
0.272711
0.259243
0.246271
0.233794
0.221807
0.210304
0.19928
0.188725
0.17863
0.168985
0.159779
0.150999
0.142633
0.134669
0.127093
0.119892
0.113052
0.106559
0.100401
0.094563
0.0890325
0.0837962
0.0788413
0.074155
0.0697253
0.06554
0.0615876
0.0578569
0.0543368
0.051017
0.0478873
0.044938
0.0421597
0.0395435
0.0370807
0.0347632
0.032583
0.0305328
0.0286053
0.0267937
0.0250916
0.0234928
0.0219914
0.0205819
0.0192589
0.0180175
0.0168529
0.0157607
0.0147365
0.0137764
0.0128765
0.0120333
0.0112433
0.0105034
0.00981047
0.0091617
0.0085544
0.00798601
0.00745416
0.00695659
0.00649116
0.0060559
0.00564891
0.00526842
0.00491278
0.00458042
0.00426987
0.00397975
0.00370876
0.00345568
0.00321937
0.00299875
0.00279281
0.00260062
0.00242128
0.00225395
0.00209787
0.00195229
0.00181653
0.00168996
0.00157196
0.00146197
0.00135947
0.00126396
0.00117498
0.00109209
0.0010149
0.000943012
0.000876082
0.000813775
0.000755781
0.000701811
0.000651593
0.000604873
0.000561414
0.000520996
0.000483411
0.000448466
0.000415981
0.000385787
0.000357728
0.000331657
0.000307436
0.000284937
0.000264043
0.000244641
0.000226627
0.000209906
0.000194386
0.000179984
0.000166622
0.000154226
0.000142728
0.000132066
0.000122179
0.000113014
0.000104518
9.66447e-05
8.93492e-05
8.25903e-05
7.63296e-05
7.05313e-05
6.51623e-05
6.01914e-05
5.55901e-05
5.13316e-05
4.73909e-05
4.37451e-05
4.03726e-05
3.72535e-05
3.43693e-05
3.17027e-05
2.92377e-05
2.69596e-05
2.48545e-05
2.29095e-05
2.1113e-05
1.94538e-05
1.79217e-05
1.65072e-05
1.52016e-05
1.39966e-05
1.28848e-05
1.1859e-05
1.09129e-05
1.00404e-05
9.23594e-06
8.49431e-06
7.81075e-06
7.18085e-06
6.60048e-06
6.06586e-06
5.57348e-06
5.12008e-06
4.70267e-06
4.31844e-06
3.96484e-06
3.63949e-06
3.34019e-06
3.0649e-06
2.81175e-06
2.579e-06
2.36505e-06
2.16843e-06
1.98776e-06
1.82177e-06
1.66932e-06
1.52932e-06
1.40078e-06
1.28279e-06
1.1745e-06
1.07514e-06
9.83979e-07
9.00369e-07
8.23696e-07
7.534e-07
6.88962e-07
6.29907e-07
5.75796e-07
5.26225e-07
4.80823e-07
4.39248e-07
4.01185e-07
3.66344e-07
3.3446e-07
3.05287e-07
2.78601e-07
2.54194e-07
2.31878e-07
2.11476e-07
1.92828e-07
1.75788e-07
1.6022e-07
1.46e-07
1.33014e-07
1.21157e-07
1.10334e-07
1.00456e-07
9.14429e-08
8.32207e-08
7.57217e-08
6.88836e-08
6.26496e-08
5.69675e-08
5.17895e-08
4.70721e-08
4.27751e-08
3.88619e-08
3.5299e-08
3.20558e-08
2.91043e-08
2.64187e-08
2.39757e-08
2.17539e-08
1.97336e-08
1.7897e-08
1.62278e-08
1.4711e-08
1.3333e-08
1.20814e-08
1.09449e-08
9.91312e-09
8.9766e-09
8.12674e-09
7.3557e-09
6.65633e-09
6.0221e-09
5.44708e-09
4.92587e-09
4.45352e-09
4.02556e-09
3.63791e-09
3.28684e-09
2.96898e-09
2.68125e-09
2.42086e-09
2.18526e-09
1.97213e-09
1.77939e-09
1.60512e-09
1.44758e-09
1.30521e-09
1.17657e-09
1.06037e-09
9.5542e-10
8.60661e-10
7.75121e-10
6.97922e-10
6.28266e-10
5.65431e-10
5.08763e-10
4.57667e-10
4.11607e-10
3.70097e-10
3.32695e-10
2.99003e-10
2.6866e-10
2.4134e-10
2.16747e-10
1.94615e-10
1.74701e-10
1.56788e-10
1.40679e-10
1.26195e-10
1.13175e-10
1.01475e-10
9.09626e-11
8.15199e-11
7.30402e-11
6.54269e-11
5.85932e-11
5.24607e-11
4.69589e-11
4.2024e-11
3.75987e-11
3.36314e-11
3.00754e-11
2.6889e-11
2.40344e-11
2.14777e-11
1.91883e-11
1.71388e-11
1.53045e-11
1.36632e-11
1.2195e-11
1.08819e-11
9.70783e-12
8.65833e-12
7.72041e-12
6.88242e-12
6.13388e-12
5.46543e-12
4.86862e-12
4.33593e-12
3.86057e-12
3.43648e-12
3.05823e-12
2.72095e-12
2.42026e-12
2.15228e-12
1.91349e-12
1.70078e-12
1.51134e-12
1.34267e-12
1.19252e-12
1.05891e-12
9.40031e-13
8.34292e-13
7.40263e-13
6.56667e-13
5.82367e-13
5.16345e-13
4.57694e-13
4.05604e-13
3.59352e-13
3.18294e-13
2.81857e-13
2.49529e-13
2.20853e-13
1.95424e-13
1.72879e-13
1.52896e-13
1.3519e-13
1.19503e-13
1.05611e-13
9.33093e-14
8.242e-14
7.27832e-14
6.42568e-14
5.6715e-14
5.00457e-14
4.41495e-14
3.89381e-14
3.43331e-14
3.02651e-14
2.66723e-14
2.35001e-14
2.06999e-14
1.82288e-14
1.60487e-14
1.41257e-14
1.24301e-14
1.09353e-14
9.61787e-15
8.45713e-15
7.4347e-15
6.53436e-15
5.74175e-15
5.0442e-15
4.43049e-15
3.89073e-15
3.41616e-15
2.99907e-15
2.63264e-15
2.31088e-15
2.02848e-15
1.78077e-15
1.56364e-15
1.37349e-15
1.20712e-15
1.06175e-15
9.34932e-16
8.24519e-16
7.2864e-16
6.45663e-16
5.74171e-16
5.12941e-16
4.60922e-16
4.17218e-16
3.81074e-16
3.51865e-16
3.29085e-16
3.12337e-16
3.01331e-16
2.95876e-16
)
;
    }
    Wall
    {
        type            calculated;
        value           nonuniform List<scalar> 
400
(
0.734487
0.711822
0.690273
0.669305
0.648665
0.628234
0.607956
0.58781
0.567799
0.547938
0.528251
0.508764
0.48951
0.47052
0.451825
0.433456
0.415441
0.397806
0.380576
0.363772
0.347412
0.331512
0.316083
0.301137
0.286679
0.272716
0.259248
0.246277
0.233799
0.221812
0.21031
0.199286
0.188731
0.178636
0.168991
0.159785
0.151005
0.142639
0.134675
0.127099
0.119898
0.113057
0.106565
0.100406
0.0945683
0.0890377
0.0838012
0.0788462
0.0741598
0.0697299
0.0655445
0.061592
0.0578611
0.0543409
0.0510209
0.0478911
0.0449416
0.0421632
0.0395468
0.0370839
0.0347662
0.0325859
0.0305356
0.028608
0.0267963
0.0250941
0.0234951
0.0219936
0.020584
0.0192609
0.0180194
0.0168547
0.0157624
0.0147381
0.0137779
0.012878
0.0120347
0.0112446
0.0105046
0.00981162
0.00916279
0.00855542
0.00798698
0.00745507
0.00695745
0.00649197
0.00605666
0.00564962
0.0052691
0.00491342
0.00458102
0.00427043
0.00398027
0.00370925
0.00345614
0.0032198
0.00299915
0.00279319
0.00260097
0.00242161
0.00225426
0.00209815
0.00195256
0.00181678
0.00169019
0.00157217
0.00146217
0.00135966
0.00126414
0.00117514
0.00109225
0.00101504
0.000943145
0.000876205
0.000813889
0.000755888
0.00070191
0.000651684
0.000604958
0.000561493
0.000521069
0.000483479
0.000448529
0.000416039
0.000385842
0.000357778
0.000331703
0.000307479
0.000284977
0.00026408
0.000244675
0.000226659
0.000209935
0.000194413
0.000180009
0.000166645
0.000154247
0.000142748
0.000132083
0.000122196
0.000113029
0.000104532
9.66576e-05
8.93611e-05
8.26013e-05
7.63397e-05
7.05406e-05
6.51708e-05
6.01993e-05
5.55973e-05
5.13382e-05
4.7397e-05
4.37507e-05
4.03778e-05
3.72583e-05
3.43736e-05
3.17067e-05
2.92414e-05
2.69629e-05
2.48575e-05
2.29124e-05
2.11156e-05
1.94561e-05
1.79238e-05
1.65092e-05
1.52034e-05
1.39983e-05
1.28863e-05
1.18604e-05
1.09142e-05
1.00416e-05
9.23701e-06
8.49529e-06
7.81165e-06
7.18166e-06
6.60123e-06
6.06655e-06
5.5741e-06
5.12065e-06
4.70319e-06
4.31892e-06
3.96528e-06
3.63989e-06
3.34055e-06
3.06523e-06
2.81205e-06
2.57928e-06
2.36531e-06
2.16866e-06
1.98796e-06
1.82196e-06
1.66949e-06
1.52948e-06
1.40093e-06
1.28292e-06
1.17462e-06
1.07524e-06
9.84079e-07
9.0046e-07
8.23779e-07
7.53475e-07
6.8903e-07
6.29969e-07
5.75853e-07
5.26277e-07
4.8087e-07
4.39291e-07
4.01224e-07
3.6638e-07
3.34492e-07
3.05316e-07
2.78628e-07
2.54219e-07
2.319e-07
2.11496e-07
1.92846e-07
1.75805e-07
1.60235e-07
1.46014e-07
1.33026e-07
1.21168e-07
1.10344e-07
1.00465e-07
9.14513e-08
8.32284e-08
7.57287e-08
6.88899e-08
6.26553e-08
5.69727e-08
5.17943e-08
4.70764e-08
4.2779e-08
3.88654e-08
3.53023e-08
3.20588e-08
2.91069e-08
2.64211e-08
2.39779e-08
2.17559e-08
1.97354e-08
1.78986e-08
1.62292e-08
1.47123e-08
1.33342e-08
1.20825e-08
1.09459e-08
9.91404e-09
8.97743e-09
8.12749e-09
7.35638e-09
6.65694e-09
6.02266e-09
5.44759e-09
4.92633e-09
4.45394e-09
4.02594e-09
3.63825e-09
3.28715e-09
2.96926e-09
2.68151e-09
2.42109e-09
2.18546e-09
1.97232e-09
1.77956e-09
1.60527e-09
1.44772e-09
1.30534e-09
1.17669e-09
1.06047e-09
9.55513e-10
8.60745e-10
7.75198e-10
6.97991e-10
6.28329e-10
5.65488e-10
5.08814e-10
4.57713e-10
4.11649e-10
3.70134e-10
3.32729e-10
2.99034e-10
2.68688e-10
2.41365e-10
2.1677e-10
1.94635e-10
1.7472e-10
1.56805e-10
1.40694e-10
1.26208e-10
1.13187e-10
1.01486e-10
9.09725e-11
8.15289e-11
7.30482e-11
6.54341e-11
5.85997e-11
5.24666e-11
4.69642e-11
4.20288e-11
3.76031e-11
3.36353e-11
3.00789e-11
2.68922e-11
2.40372e-11
2.14802e-11
1.91906e-11
1.71408e-11
1.53063e-11
1.36649e-11
1.21965e-11
1.08832e-11
9.70904e-12
8.65942e-12
7.72139e-12
6.88329e-12
6.13467e-12
5.46613e-12
4.86926e-12
4.3365e-12
3.86108e-12
3.43694e-12
3.05864e-12
2.72131e-12
2.42059e-12
2.15257e-12
1.91376e-12
1.70102e-12
1.51155e-12
1.34286e-12
1.19269e-12
1.05906e-12
9.40167e-13
8.34413e-13
7.40371e-13
6.56765e-13
5.82454e-13
5.16423e-13
4.57763e-13
4.05665e-13
3.59407e-13
3.18344e-13
2.81901e-13
2.49568e-13
2.20888e-13
1.95455e-13
1.72907e-13
1.52921e-13
1.35212e-13
1.19523e-13
1.05628e-13
9.3325e-14
8.2434e-14
7.27956e-14
6.42679e-14
5.67249e-14
5.00545e-14
4.41573e-14
3.8945e-14
3.43393e-14
3.02706e-14
2.66772e-14
2.35044e-14
2.07038e-14
1.82322e-14
1.60517e-14
1.41284e-14
1.24325e-14
1.09374e-14
9.61975e-15
8.45879e-15
7.43617e-15
6.53566e-15
5.74291e-15
5.04523e-15
4.4314e-15
3.89153e-15
3.41687e-15
2.9997e-15
2.6332e-15
2.31137e-15
2.02891e-15
1.78115e-15
1.56398e-15
1.37379e-15
1.20739e-15
1.06199e-15
9.35139e-16
8.24703e-16
7.28802e-16
6.45807e-16
5.74299e-16
5.13056e-16
4.61025e-16
4.17311e-16
3.8116e-16
3.51945e-16
3.2916e-16
3.12406e-16
3.01387e-16
2.95921e-16
)
;
    }
}


// ************************************************************************* //
