/*--------------------------------*- C++ -*----------------------------------*\
  =========                 |
  \\      /  F ield         | OpenFOAM: The Open Source CFD Toolbox
   \\    /   O peration     | Website:  https://openfoam.org
    \\  /    A nd           | Version:  10
     \\/     M anipulation  |
\*---------------------------------------------------------------------------*/
FoamFile
{
    format      ascii;
    class       volScalarField;
    location    "0.16";
    object      N1;
}
// * * * * * * * * * * * * * * * * * * * * * * * * * * * * * * * * * * * * * //

dimensions      [0 0 0 0 0 0 0];

internalField   nonuniform List<scalar> 
8000
(
0.00294395
0.00880783
0.0146044
0.0202949
0.0258436
0.0312179
0.0363885
0.0413291
0.0460166
0.0504313
0.0545569
0.0583803
0.0618917
0.0650844
0.0679548
0.0705022
0.0727286
0.0746382
0.0762377
0.0775358
0.0785428
0.0792706
0.0797321
0.0799417
0.079914
0.0796645
0.0792091
0.0785635
0.0777439
0.0767659
0.075645
0.0743963
0.0730344
0.0715733
0.0700264
0.0684064
0.0667253
0.0649942
0.0632236
0.0614233
0.0596022
0.0577686
0.05593
0.0540932
0.0522644
0.0504491
0.0486523
0.0468784
0.0451312
0.0434141
0.04173
0.0400814
0.0384703
0.0368986
0.0353675
0.0338782
0.0324315
0.031028
0.029668
0.0283518
0.0270792
0.02585
0.0246641
0.0235208
0.0224197
0.0213601
0.0203413
0.0193624
0.0184226
0.0175209
0.0166565
0.0158283
0.0150354
0.0142766
0.013551
0.0128576
0.0121951
0.0115627
0.0109593
0.0103838
0.00983522
0.00931255
0.00881481
0.00834102
0.00789023
0.00746151
0.00705395
0.00666668
0.00629882
0.00594955
0.00561805
0.00530353
0.00500525
0.00472246
0.00445446
0.00420055
0.00396009
0.00373242
0.00351696
0.0033131
0.00312028
0.00293797
0.00276563
0.00260278
0.00244894
0.00230365
0.00216648
0.002037
0.00191483
0.00179958
0.00169088
0.0015884
0.0014918
0.00140077
0.00131501
0.00123423
0.00115816
0.00108656
0.00101916
0.000955743
0.000896084
0.000839975
0.000787215
0.000737617
0.000691002
0.0006472
0.00060605
0.000567402
0.00053111
0.000497039
0.000465059
0.00043505
0.000406894
0.000380485
0.000355718
0.000332496
0.000310728
0.000290327
0.000271211
0.000253302
0.000236529
0.000220822
0.000206117
0.000192353
0.000179471
0.000167419
0.000156144
0.000145599
0.000135739
0.000126521
0.000117905
0.000109853
0.000102331
9.5304e-05
8.87415e-05
8.2614e-05
7.68937e-05
7.15548e-05
6.65728e-05
6.19249e-05
5.75895e-05
5.35465e-05
4.9777e-05
4.62631e-05
4.29883e-05
3.99369e-05
3.70943e-05
3.44467e-05
3.19814e-05
2.96861e-05
2.75498e-05
2.55617e-05
2.3712e-05
2.19914e-05
2.03913e-05
1.89035e-05
1.75205e-05
1.62352e-05
1.50408e-05
1.39313e-05
1.29009e-05
1.1944e-05
1.10557e-05
1.02311e-05
9.46604e-06
8.75621e-06
8.09782e-06
7.48726e-06
6.9212e-06
6.39651e-06
5.91027e-06
5.45978e-06
5.04248e-06
4.65604e-06
4.29824e-06
3.96704e-06
3.66053e-06
3.37694e-06
3.11461e-06
2.87201e-06
2.64769e-06
2.44034e-06
2.24872e-06
2.07167e-06
1.90811e-06
1.75707e-06
1.61761e-06
1.48888e-06
1.37007e-06
1.26045e-06
1.15934e-06
1.06608e-06
9.80105e-07
9.0085e-07
8.27811e-07
7.60517e-07
6.98529e-07
6.41444e-07
5.88886e-07
5.40507e-07
4.95986e-07
4.55025e-07
4.17349e-07
3.82702e-07
3.50848e-07
3.2157e-07
2.94665e-07
2.69947e-07
2.47244e-07
2.26396e-07
2.07257e-07
1.89691e-07
1.73572e-07
1.58785e-07
1.45223e-07
1.32788e-07
1.21388e-07
1.1094e-07
1.01368e-07
9.25986e-08
8.45678e-08
7.7215e-08
7.04844e-08
6.4325e-08
5.86897e-08
5.35351e-08
4.88215e-08
4.45121e-08
4.05732e-08
3.69739e-08
3.36857e-08
3.06825e-08
2.79402e-08
2.54368e-08
2.31521e-08
2.10674e-08
1.91658e-08
1.74315e-08
1.58503e-08
1.4409e-08
1.30955e-08
1.18989e-08
1.08089e-08
9.8164e-09
8.91281e-09
8.0904e-09
7.34206e-09
6.6613e-09
6.04216e-09
5.47921e-09
4.96749e-09
4.50244e-09
4.07991e-09
3.69612e-09
3.34759e-09
3.03118e-09
2.74399e-09
2.48339e-09
2.24698e-09
2.03257e-09
1.83816e-09
1.66192e-09
1.50221e-09
1.3575e-09
1.22643e-09
1.10773e-09
1.00027e-09
9.03011e-10
8.15001e-10
7.35382e-10
6.63375e-10
5.98267e-10
5.39412e-10
4.86225e-10
4.38171e-10
3.94766e-10
3.5557e-10
3.20185e-10
2.88248e-10
2.59431e-10
2.33435e-10
2.0999e-10
1.88852e-10
1.69798e-10
1.52628e-10
1.37159e-10
1.23226e-10
1.1068e-10
9.9386e-11
8.92215e-11
8.0076e-11
7.18495e-11
6.44515e-11
5.78004e-11
5.18223e-11
4.64504e-11
4.16247e-11
3.72907e-11
3.33993e-11
2.99063e-11
2.67716e-11
2.39593e-11
2.14368e-11
1.91749e-11
1.71473e-11
1.533e-11
1.37018e-11
1.22434e-11
1.09373e-11
9.76798e-12
8.72142e-12
7.78495e-12
6.94722e-12
6.19801e-12
5.52815e-12
4.9294e-12
4.39435e-12
3.91634e-12
3.48941e-12
3.10821e-12
2.76792e-12
2.46424e-12
2.1933e-12
1.95164e-12
1.73614e-12
1.54404e-12
1.37282e-12
1.22027e-12
1.08439e-12
9.63377e-13
8.55646e-13
7.59761e-13
6.74442e-13
5.98545e-13
5.31049e-13
4.71039e-13
4.177e-13
3.70302e-13
3.28196e-13
2.908e-13
2.57598e-13
2.28125e-13
2.01972e-13
1.7877e-13
1.58192e-13
1.39946e-13
1.23772e-13
1.09439e-13
9.67419e-14
8.54962e-14
7.55392e-14
6.67259e-14
5.89273e-14
5.20287e-14
4.59284e-14
4.05358e-14
3.57707e-14
3.15617e-14
2.78456e-14
2.45663e-14
2.1674e-14
1.91249e-14
1.68798e-14
1.49044e-14
1.31681e-14
1.16442e-14
1.03089e-14
9.14139e-15
8.12344e-15
7.23903e-15
6.47423e-15
5.81694e-15
5.25674e-15
4.78471e-15
4.39333e-15
4.07634e-15
3.82865e-15
3.64629e-15
3.52632e-15
3.46681e-15
0.00297414
0.008901
0.0147653
0.0205284
0.0261546
0.0316109
0.0368673
0.0418967
0.0466755
0.0511831
0.0554023
0.0593192
0.0629232
0.0662068
0.0691657
0.0717983
0.074106
0.0760925
0.077764
0.0791286
0.0801964
0.0809789
0.0814889
0.0817406
0.0817486
0.0815285
0.081096
0.0804674
0.0796586
0.0786856
0.0775643
0.0763101
0.0749377
0.0734616
0.0718955
0.0702523
0.0685446
0.0667837
0.0649805
0.0631451
0.0612868
0.0594141
0.0575348
0.055656
0.0537842
0.0519251
0.050084
0.0482654
0.0464734
0.0447115
0.0429827
0.0412897
0.0396348
0.0380196
0.0364459
0.0349146
0.0334268
0.031983
0.0305837
0.0292291
0.0279191
0.0266537
0.0254326
0.0242552
0.023121
0.0220294
0.0209797
0.0199711
0.0190025
0.0180733
0.0171823
0.0163286
0.0155111
0.0147288
0.0139807
0.0132656
0.0125825
0.0119303
0.0113079
0.0107144
0.0101485
0.0096094
0.00909596
0.0086072
0.00814216
0.00769986
0.00727939
0.00687982
0.00650028
0.00613991
0.00579786
0.00547334
0.00516555
0.00487375
0.0045972
0.00433519
0.00408704
0.00385211
0.00362976
0.00341938
0.00322039
0.00303224
0.00285439
0.00268633
0.00252756
0.00237761
0.00223604
0.00210242
0.00197633
0.00185738
0.0017452
0.00163943
0.00153973
0.00144577
0.00135726
0.00127389
0.00119538
0.00112147
0.00105191
0.00098646
0.000924885
0.000866973
0.000812519
0.000761327
0.000713214
0.000668005
0.000625533
0.000585642
0.000548184
0.000513018
0.000480011
0.000449037
0.000419976
0.000392718
0.000367155
0.000343186
0.000320719
0.000299662
0.000279931
0.000261447
0.000244135
0.000227923
0.000212745
0.000198538
0.000185242
0.000172802
0.000161165
0.000150281
0.000140104
0.000130589
0.000121696
0.000113386
0.000105622
9.83687e-05
9.15951e-05
8.52705e-05
7.93663e-05
7.38557e-05
6.87136e-05
6.39162e-05
5.94414e-05
5.52684e-05
5.13776e-05
4.77508e-05
4.43707e-05
4.12212e-05
3.82871e-05
3.55544e-05
3.30098e-05
3.06408e-05
2.84357e-05
2.63837e-05
2.44745e-05
2.26986e-05
2.1047e-05
1.95114e-05
1.80839e-05
1.67572e-05
1.55245e-05
1.43793e-05
1.33157e-05
1.23281e-05
1.14112e-05
1.05602e-05
9.77044e-06
9.03779e-06
8.35822e-06
7.72803e-06
7.14377e-06
6.6022e-06
6.10033e-06
5.63535e-06
5.20464e-06
4.80576e-06
4.43646e-06
4.09461e-06
3.77824e-06
3.48553e-06
3.21477e-06
2.96436e-06
2.73284e-06
2.51882e-06
2.32103e-06
2.13828e-06
1.96947e-06
1.81357e-06
1.66963e-06
1.53675e-06
1.41413e-06
1.30098e-06
1.19662e-06
1.10037e-06
1.01162e-06
9.29819e-07
8.54431e-07
7.84972e-07
7.20992e-07
6.62071e-07
6.07822e-07
5.57888e-07
5.11935e-07
4.69657e-07
4.30769e-07
3.95008e-07
3.6213e-07
3.3191e-07
3.0414e-07
2.78627e-07
2.55194e-07
2.33676e-07
2.13922e-07
1.95791e-07
1.79153e-07
1.63891e-07
1.49893e-07
1.37058e-07
1.25291e-07
1.14508e-07
1.04627e-07
9.55762e-08
8.72872e-08
7.96979e-08
7.27509e-08
6.63935e-08
6.0577e-08
5.52566e-08
5.03914e-08
4.59434e-08
4.18779e-08
3.81628e-08
3.47689e-08
3.16691e-08
2.88386e-08
2.62548e-08
2.38966e-08
2.17449e-08
1.97821e-08
1.79921e-08
1.636e-08
1.48723e-08
1.35166e-08
1.22815e-08
1.11565e-08
1.01321e-08
9.1994e-09
8.35055e-09
7.57815e-09
6.8755e-09
6.23645e-09
5.6554e-09
5.12722e-09
4.64721e-09
4.2111e-09
3.81497e-09
3.45524e-09
3.12865e-09
2.83223e-09
2.56325e-09
2.31923e-09
2.09793e-09
1.89726e-09
1.71536e-09
1.55051e-09
1.40116e-09
1.26587e-09
1.14335e-09
1.03244e-09
9.32048e-10
8.41207e-10
7.59029e-10
6.84706e-10
6.17504e-10
5.56757e-10
5.0186e-10
4.5226e-10
4.0746e-10
3.67004e-10
3.30481e-10
2.97517e-10
2.67773e-10
2.40941e-10
2.16742e-10
1.94924e-10
1.75258e-10
1.57536e-10
1.41569e-10
1.27188e-10
1.14239e-10
1.02582e-10
9.20905e-11
8.26509e-11
7.41598e-11
6.65239e-11
5.96589e-11
5.34886e-11
4.79441e-11
4.29632e-11
3.84898e-11
3.44733e-11
3.08679e-11
2.76324e-11
2.47297e-11
2.21261e-11
1.97915e-11
1.76986e-11
1.5823e-11
1.41424e-11
1.2637e-11
1.1289e-11
1.00821e-11
9.00185e-12
8.03527e-12
7.1706e-12
6.3973e-12
5.70591e-12
5.0879e-12
4.53564e-12
4.04227e-12
3.60161e-12
3.20815e-12
2.85692e-12
2.54348e-12
2.26383e-12
2.01439e-12
1.79197e-12
1.59368e-12
1.41696e-12
1.25951e-12
1.11925e-12
9.94354e-13
8.83158e-13
7.8419e-13
6.96128e-13
6.17791e-13
5.48124e-13
4.86185e-13
4.3113e-13
3.82209e-13
3.38748e-13
3.00151e-13
2.6588e-13
2.35461e-13
2.08466e-13
1.84518e-13
1.63278e-13
1.44445e-13
1.27752e-13
1.12958e-13
9.98525e-14
8.82452e-14
7.79681e-14
6.88713e-14
6.0822e-14
5.37016e-14
4.74051e-14
4.18392e-14
3.69208e-14
3.25765e-14
2.87409e-14
2.53561e-14
2.23709e-14
1.97398e-14
1.74225e-14
1.53836e-14
1.35915e-14
1.20186e-14
1.06403e-14
9.43531e-15
8.38463e-15
7.47179e-15
6.6824e-15
6.00397e-15
5.42576e-15
4.93856e-15
4.5346e-15
4.20742e-15
3.95177e-15
3.76354e-15
3.63969e-15
3.57826e-15
0.00300368
0.00899096
0.0149185
0.0207483
0.0264447
0.0319746
0.0373076
0.0424162
0.0472759
0.0518658
0.0561678
0.0601673
0.0638531
0.0672169
0.0702538
0.0729616
0.0753411
0.0773955
0.0791305
0.0805539
0.0816753
0.0825061
0.0830591
0.083348
0.0833876
0.0831935
0.0827815
0.0821678
0.0813686
0.0804003
0.0792787
0.0780195
0.0766379
0.0751485
0.0735654
0.0719018
0.0701704
0.0683831
0.066551
0.0646845
0.062793
0.0608855
0.05897
0.0570539
0.0551438
0.0532458
0.0513651
0.0495067
0.0476747
0.0458727
0.0441041
0.0423716
0.0406774
0.0390235
0.0374116
0.0358428
0.0343182
0.0328385
0.031404
0.0300151
0.0286718
0.0273739
0.0261212
0.0249132
0.0237495
0.0226293
0.021552
0.0205167
0.0195225
0.0185685
0.0176537
0.0167771
0.0159376
0.0151343
0.0143659
0.0136315
0.0129298
0.0122599
0.0116206
0.0110108
0.0104295
0.00987562
0.0093481
0.00884593
0.0083681
0.00791364
0.00748158
0.007071
0.00668098
0.00631065
0.00595915
0.00562565
0.00530934
0.00500945
0.00472523
0.00445596
0.00420093
0.00395947
0.00373094
0.00351471
0.0033102
0.00311681
0.00293401
0.00276127
0.00259808
0.00244396
0.00229845
0.0021611
0.0020315
0.00190923
0.00179392
0.0016852
0.00158272
0.00148615
0.00139516
0.00130947
0.00122877
0.0011528
0.0010813
0.00101402
0.000950723
0.000891194
0.000835219
0.000782598
0.000733142
0.00068667
0.000643012
0.000602007
0.000563503
0.000527354
0.000493425
0.000461585
0.000431713
0.000403693
0.000377415
0.000352778
0.000329682
0.000308037
0.000287755
0.000268754
0.000250958
0.000234293
0.000218691
0.000204087
0.000190419
0.000177632
0.000165669
0.000154481
0.00014402
0.000134239
0.000125098
0.000116555
0.000108574
0.000101118
9.41553e-05
8.7654e-05
8.15847e-05
7.59201e-05
7.06342e-05
6.57027e-05
6.11029e-05
5.68133e-05
5.28138e-05
4.90855e-05
4.56109e-05
4.23734e-05
3.93574e-05
3.65483e-05
3.39325e-05
3.14972e-05
2.92305e-05
2.71211e-05
2.51586e-05
2.33331e-05
2.16353e-05
2.00568e-05
1.85894e-05
1.72256e-05
1.59585e-05
1.47813e-05
1.36879e-05
1.26727e-05
1.17301e-05
1.08553e-05
1.00436e-05
9.29042e-06
8.59185e-06
7.94405e-06
7.34346e-06
6.78676e-06
6.27085e-06
5.79287e-06
5.35012e-06
4.9401e-06
4.56047e-06
4.20906e-06
3.88386e-06
3.58296e-06
3.30463e-06
3.04722e-06
2.80923e-06
2.58923e-06
2.38591e-06
2.19806e-06
2.02453e-06
1.86427e-06
1.7163e-06
1.57971e-06
1.45366e-06
1.33735e-06
1.23007e-06
1.13112e-06
1.0399e-06
9.5581e-07
8.78315e-07
8.06915e-07
7.41146e-07
6.80578e-07
6.24813e-07
5.73483e-07
5.26246e-07
4.82786e-07
4.42811e-07
4.0605e-07
3.72253e-07
3.41188e-07
3.12642e-07
2.86416e-07
2.62328e-07
2.40208e-07
2.19902e-07
2.01264e-07
1.84161e-07
1.68472e-07
1.54083e-07
1.40889e-07
1.28794e-07
1.17709e-07
1.07552e-07
9.8248e-08
8.97273e-08
8.19258e-08
7.47846e-08
6.82495e-08
6.22703e-08
5.68013e-08
5.18e-08
4.72277e-08
4.30485e-08
3.92296e-08
3.57408e-08
3.25544e-08
2.96448e-08
2.69887e-08
2.45646e-08
2.23527e-08
2.03351e-08
1.8495e-08
1.68173e-08
1.52881e-08
1.38945e-08
1.26248e-08
1.14684e-08
1.04153e-08
9.45657e-09
8.58399e-09
7.78999e-09
7.0677e-09
6.41079e-09
5.8135e-09
5.27055e-09
4.77713e-09
4.32882e-09
3.92161e-09
3.55183e-09
3.21611e-09
2.9114e-09
2.6349e-09
2.38407e-09
2.15657e-09
1.9503e-09
1.76332e-09
1.59386e-09
1.44032e-09
1.30125e-09
1.17532e-09
1.0613e-09
9.58103e-10
8.64723e-10
7.80248e-10
7.03847e-10
6.34767e-10
5.72322e-10
5.15889e-10
4.64903e-10
4.1885e-10
3.77264e-10
3.39719e-10
3.05834e-10
2.75258e-10
2.47676e-10
2.22801e-10
2.00374e-10
1.80158e-10
1.6194e-10
1.45527e-10
1.30744e-10
1.17433e-10
1.0545e-10
9.46649e-11
8.49614e-11
7.6233e-11
6.83837e-11
6.13268e-11
5.49839e-11
4.92844e-11
4.41642e-11
3.95658e-11
3.5437e-11
3.17308e-11
2.84049e-11
2.5421e-11
2.27447e-11
2.03448e-11
1.81934e-11
1.62653e-11
1.45378e-11
1.29903e-11
1.16046e-11
1.03639e-11
9.25351e-12
8.25991e-12
7.37106e-12
6.57615e-12
5.86542e-12
5.23014e-12
4.66244e-12
4.15527e-12
3.7023e-12
3.29784e-12
2.93679e-12
2.61459e-12
2.32712e-12
2.07071e-12
1.84207e-12
1.63824e-12
1.45658e-12
1.29472e-12
1.15054e-12
1.02215e-12
9.07849e-13
8.06113e-13
7.15589e-13
6.35062e-13
5.63448e-13
4.99777e-13
4.43183e-13
3.92894e-13
3.48219e-13
3.08542e-13
2.73314e-13
2.42043e-13
2.14294e-13
1.89677e-13
1.67843e-13
1.48484e-13
1.31323e-13
1.16116e-13
1.02644e-13
9.07123e-14
8.01479e-14
7.07968e-14
6.25224e-14
5.5203e-14
4.87305e-14
4.30089e-14
3.7953e-14
3.34873e-14
2.95444e-14
2.6065e-14
2.29964e-14
2.02917e-14
1.79096e-14
1.58137e-14
1.39715e-14
1.23546e-14
1.09378e-14
9.69911e-15
8.61905e-15
7.68069e-15
6.86923e-15
6.17184e-15
5.57747e-15
5.07665e-15
4.6614e-15
4.32508e-15
4.0623e-15
3.86879e-15
3.74143e-15
3.67827e-15
0.00303145
0.00907487
0.0150602
0.0209502
0.0267094
0.0323046
0.0377051
0.0428831
0.0478137
0.0524754
0.0568496
0.0609211
0.0646781
0.0681117
0.0712164
0.0739896
0.0764314
0.0785448
0.080335
0.0818094
0.0829776
0.0838505
0.0844407
0.084762
0.0848292
0.0846577
0.0842635
0.0836628
0.0828721
0.0819077
0.0807859
0.0795224
0.0781328
0.0766318
0.0750337
0.0733523
0.0716003
0.0697899
0.0679324
0.0660386
0.0641182
0.0621802
0.060233
0.0582841
0.0563404
0.0544082
0.0524929
0.0505995
0.0487323
0.0468953
0.0450916
0.0433243
0.0415957
0.0399078
0.0382623
0.0366606
0.0351036
0.0335922
0.0321268
0.0307077
0.029335
0.0280086
0.0267281
0.0254933
0.0243035
0.0231581
0.0220564
0.0209976
0.0199808
0.019005
0.0180692
0.0171725
0.0163137
0.0154918
0.0147056
0.0139541
0.0132361
0.0125505
0.0118963
0.0112722
0.0106773
0.0101104
0.00957047
0.00905647
0.00856737
0.00810217
0.0076599
0.00723961
0.00684035
0.00646125
0.00610141
0.00575998
0.00543616
0.00512914
0.00483816
0.00456248
0.00430137
0.00405416
0.00382018
0.0035988
0.00338941
0.00319141
0.00300424
0.00282738
0.00266029
0.00250249
0.00235349
0.00221286
0.00208016
0.00195497
0.0018369
0.00172558
0.00162065
0.00152176
0.0014286
0.00134085
0.00125822
0.00118043
0.00110722
0.00103832
0.000973514
0.000912559
0.000855243
0.000801361
0.000750719
0.000703133
0.000658429
0.000616442
0.000577014
0.000539999
0.000505256
0.000472654
0.000442065
0.000413373
0.000386466
0.000361237
0.000337588
0.000315424
0.000294655
0.000275199
0.000256976
0.000239912
0.000223936
0.000208981
0.000194986
0.000181892
0.000169643
0.000158186
0.000147474
0.000137459
0.000128098
0.000119351
0.000111178
0.000103543
9.64135e-05
8.97563e-05
8.35415e-05
7.7741e-05
7.23283e-05
6.72786e-05
6.25684e-05
5.81759e-05
5.40804e-05
5.02628e-05
4.67049e-05
4.33897e-05
4.03013e-05
3.74249e-05
3.47463e-05
3.22527e-05
2.99316e-05
2.77716e-05
2.5762e-05
2.38927e-05
2.21542e-05
2.05378e-05
1.90353e-05
1.76388e-05
1.63412e-05
1.51358e-05
1.40162e-05
1.29766e-05
1.20115e-05
1.11157e-05
1.02844e-05
9.51324e-06
8.79792e-06
8.13458e-06
7.51958e-06
6.94953e-06
6.42125e-06
5.93181e-06
5.47844e-06
5.05858e-06
4.66985e-06
4.31001e-06
3.97701e-06
3.6689e-06
3.38389e-06
3.12031e-06
2.8766e-06
2.65133e-06
2.44313e-06
2.25077e-06
2.07308e-06
1.90898e-06
1.75746e-06
1.6176e-06
1.48852e-06
1.36943e-06
1.25957e-06
1.15825e-06
1.06484e-06
9.78734e-07
8.9938e-07
8.26268e-07
7.58921e-07
6.969e-07
6.39798e-07
5.87237e-07
5.38867e-07
4.94365e-07
4.53431e-07
4.15789e-07
3.81181e-07
3.49371e-07
3.2014e-07
2.93285e-07
2.68619e-07
2.45969e-07
2.25176e-07
2.06091e-07
1.88578e-07
1.72513e-07
1.57778e-07
1.44268e-07
1.31883e-07
1.20532e-07
1.10131e-07
1.00604e-07
9.18792e-08
8.38906e-08
7.65782e-08
6.98863e-08
6.37638e-08
5.81635e-08
5.30424e-08
4.83604e-08
4.40809e-08
4.01705e-08
3.6598e-08
3.33351e-08
3.03558e-08
2.7636e-08
2.51537e-08
2.28888e-08
2.08228e-08
1.89386e-08
1.72207e-08
1.56547e-08
1.42277e-08
1.29276e-08
1.17434e-08
1.06651e-08
9.68336e-09
8.78985e-09
7.97682e-09
7.2372e-09
6.56453e-09
5.95292e-09
5.39695e-09
4.89169e-09
4.43264e-09
4.01566e-09
3.63701e-09
3.29324e-09
2.98122e-09
2.69809e-09
2.44124e-09
2.20829e-09
1.99707e-09
1.8056e-09
1.63208e-09
1.47487e-09
1.33246e-09
1.2035e-09
1.08675e-09
9.81081e-10
8.85461e-10
7.98959e-10
7.20726e-10
6.49989e-10
5.86047e-10
5.28261e-10
4.76053e-10
4.28895e-10
3.86311e-10
3.47867e-10
3.13168e-10
2.81859e-10
2.53616e-10
2.28145e-10
2.05179e-10
1.84478e-10
1.65823e-10
1.49017e-10
1.33879e-10
1.20249e-10
1.07978e-10
9.69351e-11
8.69989e-11
7.80612e-11
7.00236e-11
6.27975e-11
5.63025e-11
5.04663e-11
4.52234e-11
4.05146e-11
3.62868e-11
3.24918e-11
2.90861e-11
2.60306e-11
2.32901e-11
2.08327e-11
1.86297e-11
1.66554e-11
1.48864e-11
1.33018e-11
1.18829e-11
1.06125e-11
9.47542e-12
8.45799e-12
7.54783e-12
6.73385e-12
6.00608e-12
5.35557e-12
4.77425e-12
4.25492e-12
3.79109e-12
3.37693e-12
3.00722e-12
2.67729e-12
2.38292e-12
2.12037e-12
1.88624e-12
1.67752e-12
1.49151e-12
1.32577e-12
1.17813e-12
1.04666e-12
9.2962e-13
8.25445e-13
7.3275e-13
6.50292e-13
5.7696e-13
5.11762e-13
4.53811e-13
4.02316e-13
3.56569e-13
3.15941e-13
2.79868e-13
2.47848e-13
2.19433e-13
1.94225e-13
1.71868e-13
1.52044e-13
1.34473e-13
1.18901e-13
1.05106e-13
9.28877e-14
8.20698e-14
7.24946e-14
6.40217e-14
5.65268e-14
4.9899e-14
4.40403e-14
3.88632e-14
3.42903e-14
3.02529e-14
2.66901e-14
2.35478e-14
2.07783e-14
1.83391e-14
1.61929e-14
1.43065e-14
1.26509e-14
1.12001e-14
9.93169e-15
8.82573e-15
7.86487e-15
7.03395e-15
6.31984e-15
5.71121e-15
5.19839e-15
4.77319e-15
4.42881e-15
4.15974e-15
3.96161e-15
3.83118e-15
3.7665e-15
0.00305639
0.00915007
0.0151868
0.0211297
0.0269436
0.0325954
0.0380542
0.0432919
0.0482834
0.0530065
0.0574425
0.0615755
0.0653931
0.0688863
0.0720488
0.0748777
0.0773727
0.0795364
0.0813736
0.0828916
0.0840995
0.0850083
0.0856303
0.0859794
0.08607
0.0859179
0.0855388
0.0849493
0.0841658
0.0832049
0.0820828
0.0808157
0.0794192
0.0779083
0.0762975
0.0746007
0.0728311
0.0710009
0.0691217
0.0672045
0.0652592
0.0632951
0.0613207
0.0593437
0.0573712
0.0554096
0.0534645
0.051541
0.0496437
0.0477764
0.0459427
0.0441455
0.0423872
0.04067
0.0389957
0.0373656
0.0357808
0.0342421
0.0327501
0.031305
0.029907
0.0285559
0.0272516
0.0259935
0.0247813
0.0236142
0.0224916
0.0214125
0.0203762
0.0193816
0.0184278
0.0175136
0.0166381
0.0158002
0.0149987
0.0142324
0.0135004
0.0128013
0.0121342
0.0114978
0.0108911
0.010313
0.00976236
0.00923815
0.00873933
0.00826488
0.00781379
0.00738512
0.00697789
0.00659121
0.00622418
0.00587592
0.00554562
0.00523245
0.00493563
0.00465441
0.00438807
0.00413589
0.00389721
0.00367138
0.00345777
0.00325579
0.00306486
0.00288443
0.00271398
0.002553
0.002401
0.00225754
0.00212216
0.00199445
0.001874
0.00176043
0.00165338
0.0015525
0.00145746
0.00136794
0.00128364
0.00120428
0.00112959
0.00105931
0.000993186
0.000931
0.000872526
0.000817556
0.000765891
0.000717344
0.000671737
0.000628901
0.000588677
0.000550914
0.000515469
0.000482207
0.000451001
0.000421729
0.000394278
0.00036854
0.000344412
0.0003218
0.000300612
0.000280763
0.000262171
0.000244762
0.000228463
0.000213206
0.000198928
0.000185569
0.000173072
0.000161384
0.000150455
0.000140238
0.000130688
0.000121764
0.000113425
0.000105637
9.83627e-05
9.15709e-05
8.52304e-05
7.93127e-05
7.37906e-05
6.86387e-05
6.38333e-05
5.9352e-05
5.51738e-05
5.1279e-05
4.76491e-05
4.42669e-05
4.11161e-05
3.81815e-05
3.54488e-05
3.29047e-05
3.05367e-05
2.83331e-05
2.62828e-05
2.43757e-05
2.26021e-05
2.09531e-05
1.94201e-05
1.79954e-05
1.66716e-05
1.54418e-05
1.42996e-05
1.3239e-05
1.22543e-05
1.13404e-05
1.04924e-05
9.70557e-06
8.97579e-06
8.29904e-06
7.67161e-06
7.09003e-06
6.55107e-06
6.05173e-06
5.5892e-06
5.16085e-06
4.76426e-06
4.39715e-06
4.05741e-06
3.74307e-06
3.4523e-06
3.18339e-06
2.93476e-06
2.70493e-06
2.49253e-06
2.29628e-06
2.11499e-06
1.94757e-06
1.79299e-06
1.6503e-06
1.51861e-06
1.39711e-06
1.28503e-06
1.18167e-06
1.08637e-06
9.98521e-07
9.17563e-07
8.42972e-07
7.74264e-07
7.10989e-07
6.52733e-07
5.99109e-07
5.49761e-07
5.04359e-07
4.62598e-07
4.24194e-07
3.88887e-07
3.56434e-07
3.26612e-07
2.99214e-07
2.7405e-07
2.50942e-07
2.29728e-07
2.10257e-07
1.92391e-07
1.76e-07
1.60968e-07
1.47184e-07
1.34549e-07
1.22968e-07
1.12358e-07
1.02638e-07
9.37366e-08
8.55866e-08
7.81263e-08
7.12991e-08
6.50528e-08
5.93394e-08
5.41147e-08
4.9338e-08
4.49721e-08
4.09825e-08
3.73379e-08
3.4009e-08
3.09694e-08
2.81946e-08
2.56622e-08
2.33515e-08
2.12437e-08
1.93214e-08
1.75688e-08
1.59712e-08
1.45153e-08
1.3189e-08
1.19808e-08
1.08807e-08
9.87912e-09
8.96754e-09
8.13807e-09
7.3835e-09
6.69724e-09
6.07326e-09
5.50605e-09
4.99058e-09
4.52224e-09
4.09684e-09
3.71053e-09
3.35981e-09
3.04149e-09
2.75264e-09
2.49059e-09
2.25294e-09
2.03744e-09
1.8421e-09
1.66508e-09
1.50468e-09
1.3594e-09
1.22783e-09
1.10872e-09
1.00091e-09
9.03361e-10
8.15111e-10
7.35296e-10
6.63129e-10
5.97894e-10
5.3894e-10
4.85676e-10
4.37565e-10
3.9412e-10
3.54899e-10
3.19499e-10
2.87557e-10
2.58743e-10
2.32757e-10
2.09327e-10
1.88207e-10
1.69175e-10
1.52029e-10
1.36586e-10
1.2268e-10
1.10161e-10
9.88947e-11
8.87576e-11
7.96392e-11
7.14391e-11
6.40669e-11
5.74407e-11
5.14864e-11
4.61375e-11
4.13336e-11
3.70203e-11
3.31486e-11
2.96741e-11
2.65568e-11
2.37609e-11
2.12538e-11
1.90063e-11
1.69921e-11
1.51873e-11
1.35707e-11
1.21231e-11
1.0827e-11
9.66696e-12
8.62896e-12
7.70041e-12
6.86998e-12
6.12749e-12
5.46383e-12
4.87076e-12
4.34093e-12
3.86772e-12
3.44519e-12
3.06801e-12
2.73141e-12
2.43109e-12
2.16323e-12
1.92437e-12
1.71143e-12
1.52166e-12
1.35257e-12
1.20195e-12
1.06782e-12
9.48411e-13
8.42131e-13
7.47562e-13
6.63437e-13
5.88623e-13
5.22107e-13
4.62985e-13
4.10448e-13
3.63777e-13
3.22328e-13
2.85525e-13
2.52858e-13
2.23869e-13
1.98151e-13
1.75342e-13
1.55118e-13
1.37191e-13
1.21304e-13
1.0723e-13
9.47653e-14
8.37288e-14
7.396e-14
6.53159e-14
5.76694e-14
5.09077e-14
4.49305e-14
3.96488e-14
3.49834e-14
3.08644e-14
2.72296e-14
2.40238e-14
2.11983e-14
1.87098e-14
1.65202e-14
1.45957e-14
1.29066e-14
1.14265e-14
1.01324e-14
9.00413e-15
8.02384e-15
7.17613e-15
6.44758e-15
5.82665e-15
5.30346e-15
4.86967e-15
4.51835e-15
4.24384e-15
4.04172e-15
3.90866e-15
3.84267e-15
0.00307788
0.00921481
0.0152955
0.0212835
0.0271438
0.0328431
0.0383508
0.0436385
0.0486807
0.0534551
0.0579423
0.0621264
0.0659945
0.0695371
0.0727476
0.0756227
0.0781618
0.0803672
0.0822435
0.0837975
0.0850385
0.085977
0.0866255
0.0869975
0.0871077
0.0869715
0.0866051
0.0860249
0.0852474
0.0842893
0.0831671
0.081897
0.0804947
0.0789756
0.0773542
0.0756447
0.0738603
0.0720136
0.0701164
0.0681797
0.0662137
0.0642278
0.0622306
0.0602302
0.0582337
0.0562475
0.0542776
0.052329
0.0504065
0.0485141
0.0466552
0.0448329
0.0430499
0.0413082
0.0396098
0.0379559
0.0363479
0.0347864
0.0332721
0.0318052
0.030386
0.0290144
0.02769
0.0264126
0.0251816
0.0239964
0.0228562
0.0217602
0.0207075
0.0196971
0.0187282
0.0177995
0.01691
0.0160586
0.0152443
0.0144657
0.0137218
0.0130115
0.0123335
0.0116869
0.0110703
0.0104828
0.00992318
0.00939042
0.00888345
0.00840124
0.00794278
0.00750707
0.00709317
0.00670014
0.00632708
0.0059731
0.00563736
0.00531903
0.00501732
0.00473147
0.00446073
0.0042044
0.00396178
0.00373221
0.00351508
0.00330976
0.00311567
0.00293226
0.00275899
0.00259534
0.00244083
0.00229499
0.00215737
0.00202754
0.0019051
0.00178965
0.00168082
0.00157827
0.00148165
0.00139065
0.00130495
0.00122427
0.00114834
0.00107689
0.00100968
0.000946459
0.000887014
0.000831132
0.00077861
0.000729257
0.000682892
0.000639345
0.000598454
0.000560064
0.00052403
0.000490216
0.000458492
0.000428734
0.000400827
0.000374661
0.000350133
0.000327145
0.000305605
0.000285426
0.000266526
0.000248828
0.000232258
0.000216748
0.000202233
0.000188652
0.000175947
0.000164065
0.000152955
0.000142567
0.000132859
0.000123786
0.00011531
0.000107392
9.99967e-05
9.3092e-05
8.66463e-05
8.06302e-05
7.50164e-05
6.9779e-05
6.48937e-05
6.0338e-05
5.60904e-05
5.21308e-05
4.84407e-05
4.50023e-05
4.17991e-05
3.88158e-05
3.60377e-05
3.34514e-05
3.1044e-05
2.88038e-05
2.67195e-05
2.47807e-05
2.29776e-05
2.13011e-05
1.97427e-05
1.82943e-05
1.69485e-05
1.56983e-05
1.45371e-05
1.34589e-05
1.24579e-05
1.15288e-05
1.06667e-05
9.8668e-06
9.1249e-06
8.43691e-06
7.79905e-06
7.20781e-06
6.6599e-06
6.15226e-06
5.68204e-06
5.24658e-06
4.8434e-06
4.47019e-06
4.12481e-06
3.80525e-06
3.50965e-06
3.23627e-06
2.98351e-06
2.74986e-06
2.53393e-06
2.33442e-06
2.15013e-06
1.97993e-06
1.82278e-06
1.67772e-06
1.54384e-06
1.42032e-06
1.30638e-06
1.2013e-06
1.10441e-06
1.01511e-06
9.32805e-07
8.56975e-07
7.87126e-07
7.228e-07
6.63576e-07
6.09061e-07
5.58894e-07
5.12738e-07
4.70282e-07
4.31241e-07
3.95347e-07
3.62355e-07
3.32038e-07
3.04185e-07
2.78602e-07
2.5511e-07
2.33544e-07
2.1375e-07
1.95587e-07
1.78924e-07
1.63642e-07
1.49629e-07
1.36784e-07
1.25011e-07
1.14224e-07
1.04343e-07
9.52938e-08
8.70083e-08
7.94241e-08
7.24835e-08
6.61334e-08
6.03251e-08
5.50136e-08
5.01576e-08
4.57191e-08
4.16633e-08
3.79581e-08
3.4574e-08
3.14839e-08
2.8663e-08
2.60885e-08
2.37394e-08
2.15966e-08
1.96424e-08
1.78606e-08
1.62365e-08
1.47565e-08
1.3408e-08
1.21798e-08
1.10614e-08
1.00432e-08
9.11651e-09
8.27326e-09
7.50615e-09
6.80849e-09
6.17415e-09
5.59752e-09
5.07348e-09
4.59737e-09
4.1649e-09
3.77217e-09
3.41563e-09
3.09201e-09
2.79836e-09
2.53197e-09
2.29036e-09
2.07129e-09
1.8727e-09
1.69273e-09
1.52968e-09
1.38198e-09
1.24823e-09
1.12714e-09
1.01754e-09
9.18367e-10
8.28651e-10
7.4751e-10
6.74145e-10
6.07826e-10
5.47893e-10
4.93744e-10
4.44834e-10
4.00667e-10
3.60794e-10
3.24807e-10
2.92334e-10
2.63041e-10
2.36623e-10
2.12804e-10
1.91334e-10
1.71986e-10
1.54555e-10
1.38855e-10
1.24718e-10
1.11991e-10
1.00537e-10
9.0232e-11
8.09621e-11
7.26259e-11
6.51312e-11
5.83948e-11
5.23417e-11
4.6904e-11
4.20203e-11
3.76353e-11
3.36992e-11
3.0167e-11
2.6998e-11
2.41556e-11
2.16069e-11
1.93221e-11
1.72743e-11
1.54396e-11
1.37962e-11
1.23244e-11
1.10068e-11
9.82755e-12
8.77231e-12
7.82833e-12
6.9841e-12
6.22928e-12
5.55459e-12
4.95168e-12
4.41305e-12
3.93197e-12
3.50242e-12
3.11898e-12
2.77678e-12
2.47148e-12
2.19916e-12
1.95634e-12
1.73986e-12
1.54694e-12
1.37504e-12
1.22192e-12
1.08556e-12
9.64167e-13
8.5612e-13
7.5998e-13
6.74458e-13
5.98401e-13
5.3078e-13
4.70676e-13
4.17267e-13
3.6982e-13
3.27682e-13
2.90268e-13
2.57058e-13
2.27588e-13
2.01443e-13
1.78255e-13
1.57695e-13
1.3947e-13
1.2332e-13
1.09012e-13
9.63396e-14
8.51198e-14
7.51887e-14
6.64009e-14
5.86274e-14
5.17534e-14
4.56769e-14
4.03074e-14
3.55646e-14
3.13772e-14
2.7682e-14
2.44229e-14
2.15504e-14
1.90206e-14
1.67947e-14
1.48382e-14
1.3121e-14
1.16163e-14
1.03008e-14
9.15371e-15
8.15713e-15
7.29534e-15
6.55469e-15
5.92345e-15
5.39157e-15
4.95058e-15
4.59342e-15
4.31436e-15
4.10888e-15
3.97362e-15
3.90653e-15
0.00309551
0.00926788
0.0153845
0.0214091
0.0273069
0.0330448
0.0385918
0.0439195
0.0490024
0.0538178
0.058346
0.0625709
0.0664792
0.0700612
0.0733099
0.0762219
0.0787962
0.0810347
0.0829421
0.084525
0.0857922
0.0867545
0.087424
0.0878143
0.0879401
0.0878167
0.0874604
0.0868876
0.0861149
0.0851591
0.0840368
0.0827642
0.0813574
0.0798317
0.0782019
0.0764822
0.074686
0.0728262
0.0709145
0.0689622
0.0669796
0.0649763
0.062961
0.0609418
0.058926
0.0569202
0.0549303
0.0529617
0.051019
0.0491063
0.0472272
0.0453849
0.043582
0.0418208
0.040103
0.0384301
0.0368033
0.0352236
0.0336914
0.0322071
0.0307709
0.0293827
0.0280423
0.0267493
0.0255032
0.0243034
0.0231491
0.0220395
0.0209737
0.0199507
0.0189696
0.0180292
0.0171285
0.0162663
0.0154416
0.0146532
0.0138998
0.0131804
0.0124938
0.0118388
0.0112143
0.0106192
0.0100524
0.00951281
0.00899929
0.00851085
0.00804645
0.0076051
0.00718583
0.0067877
0.00640979
0.00605121
0.0057111
0.00538863
0.00508299
0.00479341
0.00451914
0.00425946
0.00401368
0.00378112
0.00356114
0.00335314
0.00315651
0.0029707
0.00279516
0.00262938
0.00247284
0.00232509
0.00218567
0.00205414
0.00193009
0.00181313
0.00170288
0.00159898
0.0015011
0.0014089
0.00132208
0.00124035
0.00116342
0.00109103
0.00102293
0.000958885
0.000898661
0.000842045
0.000788833
0.000738833
0.00069186
0.000647741
0.000606313
0.000567419
0.000530912
0.000496654
0.000464513
0.000434365
0.000406091
0.000379582
0.000354732
0.000331442
0.000309619
0.000289175
0.000270027
0.000252096
0.000235308
0.000219595
0.000204889
0.00019113
0.000178258
0.00016622
0.000154964
0.00014444
0.000134604
0.000125412
0.000116824
0.000108802
0.00010131
9.43149e-05
8.77845e-05
8.16894e-05
7.60018e-05
7.06956e-05
6.57462e-05
6.11306e-05
5.68272e-05
5.28156e-05
4.9077e-05
4.55934e-05
4.23482e-05
3.93257e-05
3.65111e-05
3.38908e-05
3.14518e-05
2.91821e-05
2.70705e-05
2.51062e-05
2.32794e-05
2.15809e-05
2.00021e-05
1.85347e-05
1.71712e-05
1.59045e-05
1.47281e-05
1.36357e-05
1.26215e-05
1.16803e-05