/*--------------------------------*- C++ -*----------------------------------*\
  =========                 |
  \\      /  F ield         | OpenFOAM: The Open Source CFD Toolbox
   \\    /   O peration     | Website:  https://openfoam.org
    \\  /    A nd           | Version:  10
     \\/     M anipulation  |
\*---------------------------------------------------------------------------*/
FoamFile
{
    format      ascii;
    class       volScalarField;
    location    "1.5";
    object      T;
}
// * * * * * * * * * * * * * * * * * * * * * * * * * * * * * * * * * * * * * //

dimensions      [0 0 0 1 0 0 0];

internalField   nonuniform List<scalar> 
5250
(
1
1.00001
1.00003
1.00006
1.00017
1.00038
1.00104
1.00227
1.0064
1.01423
1.03878
1.09602
1.26135
1.7013
2.48245
2.76593
2.75979
2.75197
2.76094
2.77487
2.80367
2.82359
2.82722
2.82984
2.89455
1
1.00001
1.00002
1.00006
1.00016
1.0004
1.00098
1.00237
1.00608
1.01449
1.03781
1.09554
1.25807
1.69423
2.47478
2.76315
2.75844
2.75203
2.76034
2.77392
2.80242
2.82231
2.82584
2.82841
2.89346
1
1.00001
1.00002
1.00007
1.00015
1.00039
1.00095
1.00233
1.00591
1.01425
1.03683
1.0935
1.25188
1.67864
2.4573
2.7572
2.75464
2.75104
2.75803
2.7711
2.79885
2.81876
2.82221
2.82463
2.88967
1
1.00001
1.00002
1.00007
1.00014
1.0004
1.00086
1.00236
1.00546
1.01421
1.03486
1.09098
1.24206
1.6551
2.43072
2.74655
2.75012
2.74811
2.75416
2.76675
2.7937
2.81286
2.81558
2.81754
2.88353
1
1.00001
1.00002
1.00006
1.00013
1.00038
1.00083
1.00224
1.00523
1.01347
1.03326
1.08634
1.22993
1.62112
2.38702
2.73174
2.74656
2.74414
2.74897
2.76077
2.78497
2.80465
2.80846
2.81032
2.87091
1
1.00001
1.00002
1.00005
1.00013
1.00033
1.00083
1.00197
1.00519
1.0121
1.0321
1.07965
1.21585
1.57816
2.33366
2.71277
2.74273
2.73895
2.74135
2.75158
2.77416
2.79356
2.79599
2.79501
2.85654
1
1.00001
1.00002
1.00005
1.00013
1.00029
1.00079
1.00182
1.0047
1.01149
1.02895
1.07416
1.19714
1.53263
2.26141
2.68676
2.73737
2.73126
2.73204
2.74181
2.76368
2.77923
2.77875
2.77796
2.83001
1
1.00001
1.00002
1.00005
1.0001
1.0003
1.00062
1.00183
1.00392
1.01089
1.02541
1.06765
1.17622
1.47883
2.16741
2.65106
2.73194
2.7231
2.72164
2.72891
2.74388
2.76213
2.76294
2.7562
2.80214
1
1.00001
1.00002
1.00004
1.0001
1.00023
1.00065
1.00137
1.004
1.00859
1.02395
1.0573
1.15548
1.41676
2.04754
2.60536
2.72155
2.70705
2.70275
2.70885
2.72297
2.73327
2.73105
2.72354
2.7417
1
1.00001
1.00001
1.00004
1.00008
1.00023
1.00047
1.00139
1.00294
1.00826
1.01899
1.05057
1.1293
1.35148
1.90036
2.54156
2.708
2.69363
2.68492
2.68878
2.69613
2.70605
2.69744
2.66122
2.65707
1
1
1.00001
1.00003
1.00008
1.00016
1.00046
1.00102
1.00273
1.00644
1.01645
1.0409
1.10615
1.28277
1.73882
2.45346
2.67839
2.66565
2.66031
2.66333
2.67098
2.6689
2.65106
2.59162
2.49642
1
1
1.00001
1.00003
1.00005
1.00016
1.00034
1.00096
1.00215
1.00571
1.01357
1.03499
1.08872
1.23741
1.63604
2.36639
2.65059
2.64561
2.63784
2.63309
2.63268
2.62362
2.59564
2.51867
2.40506
1
1
1.00001
1.00002
1.00006
1.00011
1.00034
1.0007
1.00203
1.00441
1.01204
1.02839
1.07513
1.1965
1.52906
2.23651
2.59576
2.63019
2.62211
2.6138
2.60614
2.58856
2.55066
2.47055
2.34488
1
1
1.00001
1.00002
1.00004
1.00011
1.00023
1.00069
1.00141
1.00416
1.00898
1.02475
1.0597
1.16104
1.43044
2.06439
2.52694
2.61097
2.59972
2.58738
2.57335
2.55359
2.52002
2.45087
2.33363
1
1
1.00001
1.00001
1.00004
1.00008
1.00022
1.00048
1.00128
1.00303
1.00762
1.01901
1.04779
1.12501
1.33488
1.85942
2.43286
2.58738
2.58176
2.56741
2.54503
2.51642
2.47853
2.43049
2.33379
1
1
1
1.00001
1.00002
1.00007
1.00015
1.0004
1.00094
1.00237
1.00586
1.0143
1.03637
1.09225
1.24489
1.63892
2.30477
2.53855
2.54911
2.5364
2.51873
2.49255
2.44711
2.40156
2.33055
1
1
1
1.00001
1.00002
1.00005
1.00013
1.00028
1.0008
1.00169
1.00486
1.01055
1.029
1.06995
1.18869
1.49867
2.15594
2.48571
2.52341
2.51284
2.49082
2.46706
2.42638
2.3767
2.32235
1
1
1
1.00001
1.00001
1.00004
1.00009
1.00025
1.00054
1.00145
1.00338
1.00861
1.02123
1.05389
1.14077
1.37634
1.94565
2.39154
2.48927
2.48417
2.46533
2.44234
2.40673
2.35678
2.30503
1
1
1
1
1.00001
1.00003
1.00007
1.00017
1.0004
1.00106
1.00239
1.00654
1.01472
1.03971
1.09785
1.26362
1.67715
2.26789
2.44903
2.4573
2.44354
2.41945
2.38931
2.34417
2.29352
1
1
1
1
1.00001
1.00002
1.00005
1.00011
1.00033
1.00068
1.00196
1.00427
1.01152
1.02712
1.07099
1.18332
1.48607
2.09507
2.38771
2.42477
2.41528
2.39127
2.3645
2.32857
2.28488
1
1
1
1
1.00001
1.00002
1.00003
1.00009
1.00021
1.00054
1.00132
1.00318
1.00814
1.01943
1.05048
1.12849
1.34385
1.85959
2.28315
2.39122
2.39073
2.37271
2.34237
2.30846
2.26981
1
1
1
1
1
1.00001
1.00003
1.00006
1.00016
1.00034
1.00095
1.00212
1.00556
1.0132
1.03345
1.08407
1.21955
1.57152
2.13137
2.32894
2.35668
2.34788
2.32663
2.2928
2.25942
1
1
1
1
1
1.00001
1.00002
1.00004
1.0001
1.00026
1.0006
1.00161
1.00353
1.00977
1.02198
1.05898
1.14786
1.39462
1.93662
2.25884
2.32093
2.31761
2.30165
2.27468
2.23929
1
1
1
1
1
1
1.00001
1.00003
1.00007
1.00018
1.0004
1.00109
1.00237
1.00659
1.01455
1.03942
1.09611
1.25695
1.65478
2.13206
2.27838
2.29089
2.28065
2.25802
2.2275
1
1
1
1
1
1
1.00001
1.00002
1.00005
1.00011
1.00029
1.00067
1.00166
1.00411
1.00986
1.02515
1.06173
1.16102
1.42217
1.93801
2.20421
2.25556
2.25309
2.23584
2.21003
1
1
1
1
1
1
1.00001
1.00001
1.00003
1.00007
1.00018
1.00046
1.00103
1.0028
1.00611
1.01677
1.03859
1.1028
1.26351
1.66666
2.08738
2.21381
2.2275
2.21856
2.19755
1
1
1
1
1
1
1
1.00001
1.00002
1.00004
1.00012
1.00027
1.0007
1.00168
1.00404
1.01023
1.02436
1.06272
1.15852
1.41916
1.897
2.14207
2.19063
2.19128
2.17673
1
1
1
1
1
1
1
1.00001
1.00001
1.00003
1.00007
1.00019
1.00041
1.00108
1.00252
1.00628
1.01544
1.03802
1.09681
1.25054
1.62738
2.02314
2.14956
2.16685
2.15978
1
1
1
1
1
1
1
1
1.00001
1.00002
1.00004
1.00012
1.00024
1.0007
1.00145
1.00405
1.00896
1.02363
1.0566
1.14726
1.3831
1.83038
2.07379
2.12738
2.13284
1
1
1
1
1
1
1
1
1
1.00001
1.00003
1.00007
1.00015
1.00042
1.00086
1.00248
1.00514
1.01443
1.03242
1.08607
1.21624
1.54644
1.94686
2.08383
2.10657
1
1
1
1
1
1
1
1
1
1.00001
1.00002
1.00004
1.0001
1.00023
1.00057
1.00138
1.00326
1.00835
1.0194
1.0504
1.12404
1.3268
1.73513
2.0028
2.0718
1
1
1
1
1
1
1
1
1
1
1.00001
1.00002
1.00006
1.00013
1.00035
1.00073
1.00208
1.00426
1.01207
1.02644
1.07041
1.1729
1.44546
1.84403
2.01595
1
1
1
1
1
1
1
1
1
1
1.00001
1.00001
1.00003
1.00008
1.00019
1.00045
1.00115
1.00259
1.00694
1.01537
1.04114
1.09816
1.25924
1.61285
1.92542
1
1
1
1
1
1
1
1
1
1
1
1.00001
1.00002
1.00005
1.00011
1.00026
1.00064
1.0015
1.00385
1.00868
1.02294
1.05343
1.1391
1.35639
1.73976
1
1
1
1
1
1
1
1
1
1
1
1
1.00001
1.00003
1.00006
1.00015
1.00033
1.00091
1.00186
1.00535
1.0112
1.03049
1.07103
1.18572
1.45532
1
1
1
1
1
1
1
1
1
1
1
1
1.00001
1.00001
1.00004
1.00007
1.0002
1.00045
1.00115
1.00275
1.00654
1.01652
1.03908
1.10018
1.25327
1
1
1
1
1
1
1
1
1
1
1
1
1
1.00001
1.00002
1.00004
1.00011
1.00023
1.00066
1.00138
1.00376
1.00833
1.02156
1.05111
1.1304
1
1
1
1
1
1
1
1
1
1
1
1
1
1
1.00001
1.00002
1.00006
1.00013
1.00033
1.00077
1.00187
1.00455
1.01068
1.02686
1.06388
1
1
1
1
1
1
1
1
1
1
1
1
1
1
1.00001
1.00001
1.00003
1.00007
1.00018
1.00039
1.00103
1.00233
1.00581
1.01401
1.03385
1
1
1
1
1
1
1
1
1
1
1
1
1
1
1
1.00001
1.00002
1.00004
1.00009
1.0002
1.00055
1.00115
1.00323
1.0067
1.01854
1
1
1
1
1
1
1
1
1
1
1
1
1
1
1
1
1.00001
1.00002
1.00004
1.00012
1.00024
1.00069
1.0014
1.00388
1.00836
1
1
1
1
1
1
1
1
1
1
1
1
1
1
1
1
1
1.00001
1.00002
1.00005
1.00014
1.0003
1.00078
1.00177
1.00433
1
1
1
1
1
1
1
1
1
1
1
1
1
1
1
1
1
1
1.00001
1.00003
1.00007
1.00015
1.00039
1.00084
1.0023
1
1
1
1
1
1
1
1
1
1
1
1
1
1
1
1
1
1
1.00001
1.00001
1.00003
1.00008
1.00017
1.00047
1.00101
1
1
1
1
1
1
1
1
1
1
1
1
1
1
1
1
1
1
1
1.00001
1.00002
1.00004
1.00009
1.00022
1.00049
1
1
1
1
1
1
1
1
1
1
1
1
1
1
1
1
1
1
1
1
1.00001
1.00002
1.00004
1.0001
1.00026
1
1
1
1
1
1
1
1
1
1
1
1
1
1
1
1
1
1
1
1
1
1.00001
1.00002
1.00005
1.00012
1
1
1
1
1
1
1
1
1
1
1
1
1
1
1
1
1
1
1
1
1
1
1.00001
1.00002
1.00005
1
1
1
1
1
1
1
1
1
1
1
1
1
1
1
1
1
1
1
1
1
1
1
1.00001
1.00003
1
1
1
1
1
1
1
1
1
1
1
1
1
1
1
1
1
1
1
1
1
1
1
1.00001
1.00002
2.29205
2.12202
2.06843
2.09408
2.15355
2.21128
2.28381
2.31267
2.32928
2.32877
2.32906
2.3311
2.33669
2.34339
2.35013
2.35624
2.36023
2.36431
2.36695
2.36771
2.36778
2.36771
2.36735
2.36639
2.36469
2.36259
2.36018
2.35745
2.35432
2.35076
2.34689
2.34289
2.33898
2.33533
2.3321
2.32936
2.32714
2.32544
2.32419
2.32334
2.3229
2.32282
2.3229
2.32329
2.32416
2.32512
2.32589
2.32643
2.32678
2.32722
2.32817
2.33083
2.33515
2.34084
2.35131
2.36695
2.40134
2.46943
2.5829
2.74729
2.91646
3.06257
3.158
3.20105
3.18313
3.17592
3.16377
3.14054
3.12859
3.12585
3.1216
3.11613
3.11002
3.1019
3.09178
3.07656
3.06153
3.0463
3.03639
3.02353
3.01901
3.01092
3.00788
3.00288
2.99847
2.99275
2.98595
2.97767
2.96875
2.96072
2.95072
2.94465
2.9338
2.92866
2.91856
2.91317
2.9048
2.90021
2.89494
2.89866
2.28052
2.18351
2.12798
2.08503
2.04899
2.01285
2.00654
2.00906
2.02001
2.04153
2.05465
2.06723
2.06814
2.06995
2.07088
2.07202
2.07435
2.07668
2.0786
2.08034
2.08067
2.08051
2.08009
2.07924
2.07813
2.07681
2.07526
2.0735
2.07154
2.06943
2.06719
2.06484
2.06238
2.05977
2.05704
2.05417
2.05126
2.04822
2.04532
2.04225
2.03957
2.03667
2.03421
2.03152
2.0292
2.02693
2.02494
2.02306
2.02171
2.02074
2.02135
2.02364
2.02753
2.03512
2.04664
2.07222
2.12501
2.20669
2.29585
2.36589
2.42168
2.4725
2.52698
2.59204
2.64759
2.68114
2.69374
2.68884
2.67453
2.65049
2.62267
2.60146
2.58628
2.5788
2.57528
2.57664
2.57841
2.57767
2.57426
2.56691
2.55669
2.54529
2.53488
2.52435
2.51665
2.50981
2.50623
2.50419
2.50328
2.50289
2.5022
2.50142
2.50064
2.49953
2.4987
2.49737
2.49637
2.49656
2.49775
2.50797
2.26538
2.17913
2.10301
2.02974
1.95754
1.9041
1.87091
1.86746
1.86998
1.88123
1.89501
1.91099
1.9174
1.92399
1.92484
1.92641
1.92699
1.92781
1.9288
1.92971
1.93052
1.93062
1.93053
1.93028
1.92972
1.92895
1.92802
1.92695
1.92573
1.92439
1.92292
1.92135
1.91963
1.91781
1.91575
1.91356
1.91107
1.9085
1.90568
1.90283
1.89983
1.89679
1.89369
1.89043
1.88726
1.88403
1.88088
1.87823
1.87565
1.87528
1.8762
1.87939
1.88532
1.89674
1.92287
1.97841
2.0609
2.13966
2.18407
2.18804
2.18784
2.18794
2.19866
2.22351
2.26183
2.31193
2.37077
2.41088
2.44061
2.43257
2.42782
2.41725
2.39356
2.36762
2.34707
2.33182
2.32138
2.31392
2.31046
2.30911
2.30646
2.30133
2.29413
2.2857
2.27823
2.27026
2.26393
2.25755
2.25278
2.24867
2.2457
2.24329
2.24147
2.23989
2.23842
2.23734
2.23609
2.23617
2.23707
2.2461
2.23296
2.1547
2.07403
2.00107
1.93436
1.88268
1.83851
1.80981
1.78949
1.78645
1.78792
1.79246
1.80339
1.81108
1.81893
1.8216
1.8233
1.82439
1.8244
1.82445
1.82462
1.82496
1.82546
1.82558
1.8255
1.82526
1.82469
1.82371
1.82247
1.82102
1.81932
1.81735
1.81505
1.8124
1.80936
1.80593
1.80213
1.79799
1.79361
1.78904
1.78443
1.77972
1.7753
1.77057
1.76679
1.76228
1.75945
1.75618
1.75617
1.75703
1.76002
1.76625
1.78191
1.81543
1.8812
1.9701
2.04995
2.08647
2.07778
2.06101
2.04436
2.02666
2.01746
2.01852
2.02817
2.05084
2.08581
2.12689
2.18372
2.23323
2.27326
2.30002
2.29093
2.28336
2.2706
2.24608
2.22089
2.1965
2.17945
2.16452
2.1564
2.15092
2.14746
2.14438
2.14042
2.13496
2.12884
2.12231
2.11615
2.10982
2.10439
2.09865
2.09439
2.0888
2.08583
2.08084
2.07843
2.07506
2.07418
2.07998
2.23401
2.14814
2.07152
2.00375
1.93783
1.88329
1.8323
1.79147
1.75786
1.73719
1.72636
1.7267
1.72815
1.73217
1.7399
1.74513
1.74991
1.75256
1.75346
1.75439
1.75429
1.75397
1.75358
1.75327
1.75296
1.7525
1.75183
1.75093
1.74977
1.74835
1.74657
1.74447
1.74196
1.73914
1.73599
1.73257
1.72899
1.72518
1.72133
1.71724
1.71329
1.70899
1.70512
1.70074
1.697
1.69316
1.68996
1.68946
1.69013
1.69262
1.69939
1.71758
1.75808
1.82983
1.92269
2.00192
2.03064
2.01868
2.00598
1.98509
1.96611
1.94423
1.93136
1.9206
1.91792
1.92098
1.9298
1.94995
1.9785
2.01309
2.06249
2.10845
2.16026
2.19443
2.21878
2.20791
2.19756
2.18291
2.15922
2.13271
2.11042
2.09131
2.07789
2.06814
2.06101
2.05643
2.05278
2.04908
2.04592
2.04138
2.03622
2.02966
2.0243
2.01743
2.01121
2.00521
1.99806
1.99401
1.98817
1.99159
2.23967
2.15472
2.07656
2.00925
1.94624
1.88992
1.83992
1.79774
1.76053
1.73174
1.70708
1.69286
1.68353
1.68361
1.68469
1.68737
1.6938
1.69685
1.70239
1.70304
1.70443
1.70436
1.70379
1.70248
1.70105
1.69972
1.69865
1.69754
1.69646
1.69505
1.69347
1.69153
1.68939
1.68696
1.68433
1.68149
1.6785
1.67532
1.67201
1.66853
1.66494
1.66135
1.65746
1.65409
1.65062
1.64761
1.64777
1.64879
1.65128
1.65998
1.68148
1.72902
1.81035
1.90649
1.97417
1.995
1.98331
1.96827
1.9547
1.93364
1.9158
1.89731
1.8829
1.86945
1.86153
1.85397
1.85345
1.85532
1.86055
1.87245
1.8935
1.91864
1.95562
1.99202
2.04371
2.08478
2.12266
2.14416
2.13281
2.12189
2.10895
2.08611
2.06262
2.04222
2.02447
2.01392
2.00316
1.99641
1.9914
1.98686
1.98367
1.97913
1.97391
1.96808
1.9602
1.95417
1.94443
1.94014
1.93142
1.93316
2.24605
2.16993
2.0929
2.02346
1.96078
1.90476
1.8529
1.80831
1.76696
1.73323
1.70331
1.67962
1.66051
1.64969
1.64397
1.64417
1.64511
1.64699
1.65154
1.65335
1.65723
1.65739
1.65797
1.6578
1.65713
1.65564
1.6544
1.65282
1.65179
1.65023
1.64894
1.64722
1.64547
1.64349
1.64124
1.63888
1.63627
1.63353
1.63059
1.62749
1.62443
1.621
1.61794
1.61525
1.61268
1.61294
1.61455
1.61815
1.62931
1.6559
1.7113
1.8018
1.90505
1.95467
1.96912
1.9605
1.94604
1.92998
1.91419
1.89585
1.88007
1.86285
1.84916
1.8355
1.8244
1.81478
1.80724
1.80168
1.79758
1.79805
1.80027
1.8053
1.81612
1.83509
1.86083
1.88759
1.93312
1.97232
2.02104
2.05843
2.08361
2.07291
2.06467
2.05315
2.03311
2.01388
1.99148
1.97805
1.96183
1.95367
1.94313
1.93695
1.92941
1.92445
1.91704
1.91273
1.90479
1.9006
1.89192
1.89305
2.24338
2.17663
2.1079
2.04256
1.98019
1.92397
1.87145
1.82467
1.78195
1.74402
1.71043
1.68314
1.65943
1.64128
1.62593
1.61766
1.61206
1.6118
1.61237
1.61347
1.61636
1.6183
1.62164
1.62185
1.62249
1.62229
1.62147
1.61977
1.61758
1.6156
1.61382
1.6122
1.6106
1.60879
1.60683
1.60469
1.60245
1.60004
1.59745
1.59491
1.59216
1.58933
1.58728
1.58599
1.58638
1.588
1.59344
1.60756
1.64042
1.70653
1.80294
1.90787
1.94166
1.94999
1.94491
1.93086
1.91752
1.89943
1.88507
1.86855
1.85424
1.83961
1.82753
1.81512
1.80459
1.79382
1.78394
1.77499
1.76589
1.7594
1.75122
1.74774
1.74516
1.74611
1.74977
1.75877
1.77649
1.79581
1.83162
1.86126
1.91379
1.95667
2.00053
2.02928
2.01899
2.01308
2.00249
1.98627
1.96393
1.94751
1.92586
1.91548
1.89965
1.89247
1.88071
1.87534
1.86609
1.8629
1.85631
1.85737
2.23904
2.17984
2.11857
2.05887
2.00048
1.946
1.89458
1.84763
1.80386
1.7651
1.72875
1.69763
1.66878
1.64551
1.62502
1.60933
1.5966
1.58971
1.58498
1.58462
1.58502
1.58625
1.58741
1.58995
1.59039
1.5914
1.59142
1.59103
1.59
1.58829
1.58637
1.58443
1.58263
1.58098
1.57942
1.57784
1.5761
1.57428
1.57234
1.57039
1.56844
1.56677
1.56709
1.56828
1.57035
1.57753
1.5954
1.63509
1.7148
1.81528
1.91604
1.94266
1.94076
1.93543
1.9255
1.91002
1.89412
1.87725
1.86353
1.84835
1.83569
1.82182
1.81
1.79745
1.78583
1.7739
1.76231
1.75043
1.73881
1.72737
1.71614
1.70761
1.69722
1.69253
1.68568
1.68501
1.68585
1.68983
1.6975
1.71361
1.73767
1.76011
1.80482
1.83962
1.89563
1.93618
1.96979
1.96406
1.95816
1.94843
1.93297
1.91637
1.89414
1.88047
1.86019
1.85276
1.83864
1.83372
1.82394
1.82482
2.2338
2.17958
2.12398
2.06887
2.0148
1.96305
1.91373
1.86786
1.82478
1.78545
1.74903
1.71614
1.68608
1.65957
1.63547
1.61555
1.59834
1.58527
1.57489
1.56905
1.56538
1.56488
1.56522
1.56619
1.56718
1.56895
1.56963
1.57066
1.57064
1.57021
1.56916
1.56762
1.56586
1.56418
1.56271
1.56113
1.55984
1.55842
1.55695
1.5558
1.55502
1.55557
1.55747
1.56071
1.56987
1.5918
1.63952
1.73019
1.83889
1.92184
1.94364
1.93783
1.92981
1.91846
1.90555
1.88872
1.87311
1.85694
1.84252
1.82793
1.81452
1.80087
1.78868
1.77564
1.76376
1.75106
1.7383
1.72615
1.71316
1.70166
1.6897
1.67836
1.6674
1.65823
1.64729
1.64226
1.63327
1.6301
1.62765
1.62836
1.63135
1.6382
1.65319
1.67023
1.70142
1.72592
1.77717
1.81658
1.8699
1.89885
1.90519
1.90092
1.88864
1.87838
1.86242
1.84747
1.82655
1.81796
1.8005
1.80104
2.22433
2.1782
2.12762
2.07683
2.02689
1.97854
1.93199
1.88793
1.84607
1.80716
1.77059
1.73716
1.70592
1.67792
1.65197
1.62952
1.60891
1.59214
1.57744
1.56654
1.5579
1.55288
1.54973
1.54874
1.54894
1.54966
1.55037
1.55167
1.55232
1.5535
1.55347
1.55305
1.55198
1.55072
1.54901
1.54755
1.54613
1.5447
1.54358
1.5437
1.54447
1.54664
1.55136
1.56285
1.58962
1.64626
1.74722
1.86461
1.92506
1.94449
1.93763
1.9255
1.9145
1.89928
1.88391
1.86648
1.85061
1.83472
1.82054
1.80612
1.79262
1.77918
1.76619
1.75333
1.74087
1.72811
1.71633
1.704
1.692
1.68051
1.66777
1.65743
1.64513
1.63486
1.62396
1.61417
1.60358
1.5969
1.58699
1.58338
1.57661
1.57534
1.57551
1.57788
1.58323
1.59504
1.61347
1.63256
1.66916
1.69732
1.75444
1.79233
1.83467
1.84942
1.84242
1.83598
1.82575
1.81522
1.80025
1.79517
2.2197
2.17577
2.13043
2.08396
2.03738
1.9918
1.94755
1.90537
1.86498
1.82686
1.79085
1.75712
1.72561
1.69654
1.66962
1.64532
1.62313
1.60359
1.58616
1.57159
1.55915
1.54977
1.54247
1.53836
1.53566
1.53528
1.5356
1.53633
1.53747
1.5386
1.53964
1.54021
1.54001
1.53938
1.53806
1.53676
1.53535
1.53408
1.53445
1.53554
1.53764
1.54368
1.55722
1.58907
1.65556
1.76318
1.88377
1.92708
1.94112
1.93441
1.92353
1.90972
1.89361
1.87646
1.86044
1.84357
1.8282
1.81262
1.79798
1.7837
1.77008
1.75682
1.74396
1.73139
1.71897
1.70698
1.69465
1.68288
1.67099
1.65954
1.64802
1.63689
1.62478
1.61453
1.60202
1.5924
1.58083
1.57122
1.56077
1.55271
1.54264
1.53775
1.52929
1.52675
1.52228
1.52257
1.52393
1.52871
1.53629
1.55089
1.57301
1.59357
1.63514
1.66821
1.7278
1.75392
1.79485
1.7887
1.78572
1.78512
2.20628
2.16848
2.12952
2.08768
2.0449
2.00244
1.96068
1.92038
1.88162
1.84463
1.80939
1.77621
1.74481
1.71555
1.68815
1.66283
1.63942
1.61812
1.59872
1.58158
1.56638
1.55369
1.54296
1.53486
1.52875
1.52491
1.52274
1.52198
1.52213
1.52254
1.52355
1.5241
1.52501
1.5251
1.52489
1.52436
1.52386
1.52443
1.52573
1.52809
1.53532
1.55112
1.58803
1.66529
1.77804
1.89773
1.93157
1.93715
1.93135
1.92034
1.906
1.88834
1.87086
1.85358
1.83737
1.82083
1.8055
1.79017
1.776
1.76194
1.74833
1.73529
1.72232
1.71009
1.69764
1.68577
1.67385
1.66249
1.65065
1.63961
1.62757
1.6169
1.60502
1.59453
1.58259
1.57254
1.56026
1.55106
1.53921
1.53029
1.51971
1.51125
1.50149
1.49495
1.48562
1.48202
1.47482
1.47261
1.47079
1.47146
1.47394
1.47997
1.49232
1.50674
1.53249
1.5574
1.60065
1.64238
1.70364
1.71128
2.19525
2.16247
2.12628
2.08819
2.04936
2.00997
1.97084
1.93236
1.89514
1.85928
1.82494
1.79228
1.76131
1.73213
1.7047
1.67911
1.65514
1.63305
1.61252
1.59391
1.57693
1.56194
1.54879
1.53762
1.52838
1.52125
1.51579
1.51224
1.51012
1.50912
1.5092
1.5096
1.51031
1.51095
1.51184
1.51259
1.51378
1.51619
1.51943
1.52739
1.5459
1.58697
1.67438
1.79066
1.90615
1.93529
1.93345
1.92635
1.91538
1.90128
1.88366
1.86538
1.84768
1.83076
1.81469
1.79897
1.78384
1.76897
1.75445
1.74064
1.72706
1.71431
1.70139
1.68931
1.67686
1.66536
1.65326
1.64203
1.63031
1.61938
1.60784
1.59706
1.58514
1.57465
1.56254
1.5525
1.5406
1.53101
1.5192
1.51042
1.49873
1.4906
1.47969
1.47178
1.4619
1.45482
1.44547
1.44035
1.43186
1.42901
1.42323
1.42194
1.42131
1.42255
1.42674
1.43382
1.44965
1.46475
1.50039
1.51603
2.18077
2.14984
2.11826
2.08588
2.05025
2.01423
1.97811
1.94222
1.90695
1.87273
1.83959
1.80791
1.77751
1.74871
1.72119
1.69532
1.67079
1.64789
1.62647
1.60662
1.58831
1.57163
1.55648
1.54312
1.53132
1.52142
1.51318
1.50673
1.5019
1.49893
1.49679
1.49633
1.49666
1.49745
1.49867
1.50125
1.50336
1.50826
1.5188
1.54089
1.58833
1.6866
1.80419
1.90867
1.93764
1.93315
1.92279
1.91088
1.89592
1.87869
1.86058
1.84288
1.82559
1.8091
1.7933
1.77779
1.76272
1.74797
1.73366
1.71994
1.70627
1.69353
1.68045
1.66851
1.65596
1.64453
1.63244
1.62146
1.60957
1.59877
1.58686
1.57623
1.56446
1.55405
1.54228
1.53224
1.52037
1.51083
1.49922
1.49012
1.47886
1.47033
1.45925
1.45138
1.44062
1.43321
1.42312
1.41615
1.40677
1.40089
1.39196
1.38785
1.38032
1.37803
1.37329
1.37312
1.37362
1.37646
1.38513
1.38756
2.17028
2.14184
2.11165
2.07939
2.04813
2.01477
1.98106
1.94765
1.91461
1.88229
1.85089
1.82037
1.79107
1.76281
1.73596
1.71013
1.6859
1.66261
1.6409
1.62031
1.60109
1.58326
1.56671
1.55165
1.53806
1.52585
1.51537
1.50656
1.49893
1.49361
1.48914
1.4864
1.48574
1.4863
1.48811
1.49055
1.49619
1.50843
1.53439
1.58689
1.69536
1.81819
1.90763
1.93612
1.93009
1.92095
1.90791
1.8918
1.87327
1.85543
1.83779
1.82113
1.80428
1.78822
1.7723
1.75713
1.74193
1.72737
1.71273
1.699
1.68514
1.67241
1.65923
1.64729
1.63455
1.62316
1.61083
1.59979
1.58786
1.57712
1.56539
1.5549
1.54307
1.53284
1.52102
1.51119
1.49954
1.49025
1.47874
1.46997
1.45868
1.4503
1.43934
1.43136
1.42074
1.41324
1.40292
1.39591
1.38598
1.37937
1.36995
1.36393
1.35499
1.35004
1.34172
1.33826
1.33179
1.32991
1.32774
1.32733
2.15296
2.12671
2.10126
2.07394
2.04439
2.01376
1.98231
1.95106
1.91993
1.88942
1.85942
1.83034
1.80208
1.7747
1.74849
1.72314
1.69895
1.67594
1.65392
1.63314
1.61357
1.59504
1.57783
1.56174
1.5471
1.53333
1.52124
1.51062
1.50027
1.49346
1.48583
1.48123
1.4791
1.47959
1.48192
1.48716
1.49956
1.52789
1.58413
1.69773
1.82529
1.90676
1.93212
1.92581
1.91573
1.90361
1.88754
1.86928
1.84967
1.8316
1.8146
1.79856
1.78237
1.76654
1.75073
1.73536
1.72012
1.70547
1.69088
1.67713
1.6633
1.65045
1.6372
1.6251
1.6124
1.601
1.58878
1.5779
1.56595
1.55535
1.54361
1.53322
1.52172
1.51166
1.5003
1.49068
1.47938
1.47016
1.45897
1.4502
1.43918
1.43091
1.42012
1.4123
1.40177
1.39432
1.38409
1.37701
1.3671
1.3604
1.35083
1.34454
1.33537
1.32957
1.3208
1.31572
1.30742
1.30342
1.29646
1.29505
2.14048
2.11437
2.08893
2.06303
2.03631
2.00808
1.98042
1.95129
1.92225
1.89344
1.86548
1.83772
1.81092
1.78472
1.75916
1.73483
1.71098
1.68814
1.66651
1.64536
1.62555
1.60673
1.58886
1.57179
1.55654
1.54163
1.52766
1.51661
1.50397
1.49505
1.48719
1.47897
1.47886
1.48008
1.4842
1.49572
1.52419
1.58292
1.69846
1.82948
1.90641
1.92681
1.91892
1.91016
1.89579
1.87903
1.861
1.84252
1.82403
1.80663
1.78994
1.77427
1.7585
1.74314
1.72757
1.71248
1.69732
1.68294
1.66842
1.65492
1.64107
1.62844
1.61526
1.60345
1.59077
1.57948
1.56724
1.55638
1.54462
1.53422
1.52275
1.51269
1.50139
1.49161
1.48043
1.47096
1.45988
1.45085
1.43993
1.43137
1.42062
1.41244
1.40186
1.39407
1.38371
1.37635
1.36626
1.35928
1.34947
1.34282
1.33329
1.32699
1.31778
1.31185
1.30299
1.29749
1.28896
1.28407
1.27627
1.27384
2.12281
2.10239
2.07716
2.05418
2.03035
2.00443
1.97727
1.95016
1.9226
1.89537
1.8683
1.8423
1.81654
1.79175
1.76738
1.74361
1.72076
1.69842
1.67684
1.65623
1.6363
1.61698
1.59918
1.58184
1.56488
1.55078
1.53521
1.52216
1.51108
1.49819
1.49085
1.4839
1.48467
1.48848
1.49945
1.5271
1.59103
1.69898
1.82881
1.90721
1.92397
1.91277
1.90171
1.888
1.86822
1.84851
1.83013
1.81345
1.79712
1.78076
1.76447
1.74878
1.73347
1.71873
1.70389
1.68938
1.6747
1.66065
1.64643
1.63325
1.61974
1.60735
1.59435
1.58251
1.56996
1.5588
1.54677
1.53617
1.52451
1.51426
1.50287
1.49294
1.48176
1.47213
1.46111
1.45185
1.441
1.43215
1.42141
1.41294
1.40231
1.39425
1.38384
1.37621
1.36606
1.35881
1.3489
1.342
1.33234
1.32581
1.31644
1.31029
1.30124
1.29547
1.28672
1.28131
1.27281
1.26789
1.25997
1.2574
2.10329
2.08755
2.06389
2.04027
2.01784
1.99577
1.97147
1.94669
1.92119
1.89537
1.86984
1.84472
1.82005
1.79618
1.77276
1.74988
1.72776
1.70597
1.68505
1.66501
1.64495
1.62683
1.60816
1.59083
1.57517
1.55784
1.54473
1.52989
1.51665
1.50706
1.49587
1.49635
1.4994
1.50933
1.53626
1.59993
1.71209
1.83604
1.90583
1.92367
1.91125
1.89319
1.87847
1.85912
1.83762
1.81774
1.80015
1.78506
1.76969
1.75445
1.7387
1.72379
1.70891
1.69487
1.68048
1.66661
1.65221
1.63868
1.62469
1.61199
1.59846
1.58647
1.57345
1.56208
1.54957
1.53864
1.52656
1.51607
1.50446
1.49443
1.48313
1.47343
1.46231
1.45291
1.44198
1.4329
1.42212
1.41342
1.40279
1.39452
1.38407
1.37622
1.36597
1.35849
1.34843
1.34131
1.3315
1.32477
1.31525
1.30889
1.29968
1.29368
1.28477
1.27913
1.27048
1.26519
1.25676
1.25194
1.24404
1.24151
2.08328
2.07568
2.05692
2.03279
2.00977
1.98729
1.96425
1.94064
1.91701
1.89296
1.86954
1.84564
1.82236
1.79928
1.77699
1.75508
1.73373
1.71286
1.6928
1.67236
1.65414
1.63457
1.61706
1.60026
1.58195
1.56827
1.55108
1.53786
1.5255
1.513
1.51219
1.5144
1.52381
1.55036
1.61416
1.73505
1.8582
1.90994
1.92229
1.91473
1.89322
1.87021
1.85135
1.83273
1.81205
1.7925
1.77436
1.7585
1.74307
1.72876
1.71373
1.69934
1.68444
1.67052
1.65614
1.64269
1.62866
1.6157
1.60202
1.58972
1.57653
1.56496
1.55212
1.54102
1.52857
1.51801
1.50612
1.49604
1.48454
1.47475
1.46352
1.45403
1.44302
1.43386
1.42306
1.41424
1.40364
1.39519
1.38476
1.37669
1.3664
1.35869
1.34858
1.34126
1.33139
1.32447
1.31487
1.30832
1.29899
1.29279
1.28375
1.2779
1.26915
1.26364
1.25514
1.24998
1.24167
1.23695
1.22914
1.22668
2.04764
2.05188
2.04156
2.02245
1.99976
1.97982
1.95891
1.93695
1.9145
1.89163
1.86844
1.84614
1.82379
1.80173
1.78022
1.75928
1.7383
1.71885
1.69816
1.68017
1.66038
1.64234
1.62516
1.6061
1.59167
1.57341
1.55957
1.54543
1.53244
1.53018
1.53236
1.54207
1.56938
1.63678
1.75971
1.88861
1.92903
1.92591
1.91727
1.90384
1.87204
1.84689
1.82698
1.80948
1.7909
1.77194
1.75292
1.73552
1.71896
1.70406
1.68891
1.67469
1.65977
1.64584
1.63146
1.61833
1.60466
1.59235
1.57914
1.56751
1.55457
1.54349
1.53088
1.52039
1.50823
1.49815
1.48637
1.47657
1.46521
1.45575
1.44474
1.43557
1.42477
1.41586
1.40524
1.39663
1.3862
1.37791
1.36767
1.35976
1.34969
1.34218
1.33232
1.3252
1.31555
1.30879
1.29937
1.29294
1.28379
1.27771
1.26883
1.26308
1.25446
1.24901
1.24061
1.23547
1.22725
1.22255
1.21481
1.21234
2.01353
2.02816
2.02295
2.00784
1.98587
1.96441
1.94579
1.92762
1.90836
1.88821
1.86673
1.84502
1.82362
1.80241
1.78172
1.7607
1.74182
1.72124
1.70314
1.68378
1.66513
1.64837
1.62875
1.61409
1.59551
1.58112
1.56643
1.55308
1.55017
1.55255
1.56301
1.59218
1.66592
1.78548
1.91985
1.95375
1.94238
1.92356
1.91021
1.88393
1.85198
1.82618
1.80558
1.78838
1.77071
1.75259
1.73372
1.716
1.69877
1.68319
1.66744
1.65283
1.63766
1.62364
1.6093
1.59623
1.58288
1.57078
1.55801
1.54657
1.53406
1.52326
1.51098
1.50069
1.48866
1.47884
1.46727
1.45786
1.44673
1.43754
1.42669
1.41771
1.40708
1.39838
1.38797
1.37957
1.36937
1.3613
1.35129
1.34357
1.33373
1.32637
1.31671
1.30972
1.30025
1.29363
1.28438
1.27812
1.26911
1.26318
1.25442
1.24878
1.24026
1.23491
1.2266
1.22157
1.21345
1.20887
1.20122
1.19884
1.94266
1.99079
2.00103
1.99487
1.97945
1.9581
1.93726
1.91756
1.8984
1.87932
1.86024
1.84079
1.82124
1.80165
1.78158
1.76249
1.74241
1.72386
1.70555
1.6863
1.66993
1.65038
1.6352
1.61708
1.60206
1.58754
1.57388
1.57136
1.5744
1.58601
1.61789
1.69913
1.81516
1.94799
1.97798
1.96532
1.93574
1.9155
1.89312
1.86459
1.83501
1.80942
1.78797
1.76975
1.75235
1.73475
1.71668
1.69914
1.68188
1.66573
1.64947
1.63432
1.61876
1.60441
1.58981
1.57653
1.56291
1.55065
1.53776
1.5263
1.51382
1.50298
1.49074
1.48054
1.4687
1.4591
1.44767
1.43845
1.42742
1.4185
1.40785
1.39919
1.3888
1.3804
1.3702
1.36208
1.35208
1.34428
1.33446
1.32701
1.31735
1.31024
1.30076
1.29399
1.28469
1.27827
1.26915
1.26305
1.25413
1.24835
1.23964
1.23416
1.22567
1.22048
1.21223
1.20734
1.1993
1.19486
1.18729
1.18501
1.81128
1.94798
1.97342
1.97595
1.96777
1.95138
1.93191
1.91282
1.89407
1.87546
1.85629
1.83696
1.8177
1.79868
1.78016
1.76206
1.74328
1.72572
1.70625
1.69003
1.67133
1.65526
1.63817
1.62218
1.60824
1.59454
1.59265
1.59672
1.60982
1.64458
1.73294
1.84943
1.97359
2.00095
1.98836
1.95751
1.92292
1.89889
1.87517
1.84919
1.8213
1.79551
1.77315
1.75404
1.73636
1.71883
1.70119
1.68335
1.66579
1.64904
1.63257
1.61701
1.60131
1.58657
1.57165
1.55784
1.54397
1.53131
1.51821
1.50644
1.49382
1.48283
1.4706
1.46041
1.44857
1.43912
1.42777
1.41893
1.40808
1.39959
1.3891
1.38084
1.37062
1.36261
1.35264
1.34492
1.33514
1.32772
1.3181
1.31097
1.3015
1.29468
1.28535
1.27884
1.26964
1.26342
1.25438
1.24845
1.23957
1.23393
1.22525
1.2199
1.21144
1.20638
1.19816
1.19341
1.18539
1.18105
1.17352
1.17128
1.58655
1.85996
1.9393
1.95506
1.95222
1.94121
1.92289
1.90292
1.88498
1.86784
1.85136
1.8339
1.81576
1.79692
1.7789
1.75998
1.7429
1.72511
1.70845
1.69091
1.67413
1.65833
1.64177
1.62856
1.61497
1.61363
1.61891
1.63417
1.6724
1.76729
1.88984
1.99335
2.02092
2.00885
1.98292
1.9392
1.90534
1.88106
1.85851
1.83495
1.80912
1.78406
1.7609
1.74055
1.722
1.70441
1.68674
1.66904
1.65114
1.63393
1.61685
1.60103
1.58512
1.57039
1.55528
1.54142
1.52717
1.51426
1.50087
1.48894
1.47615
1.46505
1.45276
1.44257
1.43081
1.42153
1.41027
1.40165
1.39081
1.38263
1.37217
1.3643
1.35419
1.34658
1.33672
1.32936
1.3197
1.3126
1.30312
1.2963
1.28698
1.2804
1.27122
1.26487
1.25581
1.24971
1.24077
1.23493
1.22615
1.22059
1.21198
1.20671
1.19833
1.19333
1.18517
1.18046
1.17251
1.16817
1.16069
1.1584
1.33132
1.67932
1.86789
1.91813
1.93182
1.92816
1.91634
1.898
1.87844
1.86036
1.84347
1.82728
1.81167
1.79468
1.77737
1.75949
1.74239
1.72454
1.70845
1.69159
1.67647
1.6598
1.64733
1.63472
1.63437
1.64104
1.65944
1.70288
1.8018
1.94471
2.02037
2.03426
2.02263
2.00478
1.96424
1.92276
1.89005
1.86547
1.84332
1.82141
1.79745
1.77343
1.75029
1.72905
1.70969
1.6913
1.6734
1.65562
1.63769
1.62023
1.60284
1.58666
1.57064
1.55599
1.54117
1.52737
1.51304
1.49988
1.48613
1.47384
1.46075
1.44942
1.43696
1.42664
1.41473
1.4053
1.39388
1.38522
1.37428
1.3662
1.35571
1.34802
1.3379
1.33052
1.32074
1.31363
1.30413
1.29729
1.28802
1.28141
1.27231
1.2659
1.25692
1.25073
1.24187
1.2359
1.22716
1.22146
1.21287
1.20745
1.19903
1.1939
1.18568
1.18082
1.17279
1.16821
1.16035
1.15615
1.14874
1.14656
1.16303
1.40122
1.72946
1.8696
1.90017
1.90786
1.90246
1.89019
1.87312
1.85526
1.8374
1.82048
1.80348
1.78855
1.77324
1.7577
1.74124
1.72474
1.70798
1.6923
1.67683
1.66373
1.65313
1.65357
1.66249
1.68484
1.73669
1.83763
2.00186
2.06084
2.05492
2.03338
2.01533
1.98502
1.94689
1.90988
1.87741
1.85154
1.82899
1.80794
1.7857
1.76319
1.74049
1.71902
1.69874
1.67963
1.66119
1.6432
1.62514
1.60778
1.59032
1.57407
1.55771
1.54276
1.52756
1.51369
1.4993
1.48606
1.4721
1.45955
1.44624
1.43471
1.42209
1.41155
1.39953
1.38995
1.37851
1.36977
1.35882
1.35068
1.34015
1.33246
1.32233
1.315
1.30522