/*--------------------------------*- C++ -*----------------------------------*\
  =========                 |
  \\      /  F ield         | OpenFOAM: The Open Source CFD Toolbox
   \\    /   O peration     | Website:  https://openfoam.org
    \\  /    A nd           | Version:  10
     \\/     M anipulation  |
\*---------------------------------------------------------------------------*/
FoamFile
{
    format      ascii;
    class       volVectorField;
    location    "1.5";
    object      U;
}
// * * * * * * * * * * * * * * * * * * * * * * * * * * * * * * * * * * * * * //

dimensions      [0 1 -1 0 0 0 0];

internalField   nonuniform List<vector> 
5250
(
(3 1.88801e-09 0)
(2.99999 4.07072e-08 0)
(2.99998 8.23029e-08 0)
(2.99995 3.99071e-07 0)
(2.99987 6.53556e-07 0)
(2.99967 2.63985e-06 0)
(2.99918 3.69745e-06 0)
(2.99797 1.72197e-05 0)
(2.99499 2.03664e-05 0)
(2.98751 0.000101255 0)
(2.96853 0.000150278 0)
(2.91793 0.000538095 0)
(2.77512 0.00123956 0)
(2.34959 0.00363042 0)
(1.25916 0.0107691 0)
(0.497124 0.0220884 0)
(0.549081 0.0272838 0)
(0.569211 0.0262949 0)
(0.528256 0.0274937 0)
(0.451314 0.0309305 0)
(0.358816 0.0342056 0)
(0.277552 0.0375038 0)
(0.20234 0.0401931 0)
(0.123045 0.0426181 0)
(0.0584961 0.0466944 0)
(3 1.12288e-08 0)
(2.99999 1.02441e-07 0)
(2.99998 3.03147e-07 0)
(2.99995 9.81225e-07 0)
(2.99987 2.26039e-06 0)
(2.99967 6.55018e-06 0)
(2.9992 1.35995e-05 0)
(2.99799 4.27433e-05 0)
(2.99506 8.29527e-05 0)
(2.98762 0.000261454 0)
(2.96889 0.000540234 0)
(2.91885 0.00155194 0)
(2.77763 0.00391572 0)
(2.35749 0.0111639 0)
(1.27329 0.0332141 0)
(0.50795 0.0667298 0)
(0.548897 0.0770947 0)
(0.565277 0.0720833 0)
(0.527644 0.0731521 0)
(0.451679 0.0795161 0)
(0.358675 0.0851995 0)
(0.277263 0.0903719 0)
(0.201618 0.0939259 0)
(0.121213 0.096048 0)
(0.055988 0.0988405 0)
(3 2.64386e-08 0)
(2.99999 1.55422e-07 0)
(2.99998 5.91135e-07 0)
(2.99995 1.48882e-06 0)
(2.99987 4.4099e-06 0)
(2.99968 1.0104e-05 0)
(2.99921 2.69775e-05 0)
(2.99803 6.44571e-05 0)
(2.99517 0.000160273 0)
(2.98789 0.000401892 0)
(2.9696 0.000981271 0)
(2.92076 0.00253504 0)
(2.78305 0.0067187 0)
(2.37412 0.0189196 0)
(1.30517 0.0565198 0)
(0.532264 0.116624 0)
(0.549949 0.125215 0)
(0.561398 0.121938 0)
(0.530162 0.125193 0)
(0.456632 0.135164 0)
(0.363285 0.145877 0)
(0.281539 0.155009 0)
(0.20516 0.161605 0)
(0.123378 0.165741 0)
(0.0562578 0.169607 0)
(3 3.80163e-08 0)
(2.99999 2.24654e-07 0)
(2.99998 8.20899e-07 0)
(2.99995 2.1861e-06 0)
(2.99988 6.16612e-06 0)
(2.99969 1.46573e-05 0)
(2.99924 3.82383e-05 0)
(2.9981 9.10248e-05 0)
(2.99534 0.000228053 0)
(2.9883 0.000562005 0)
(2.97066 0.00139615 0)
(2.92366 0.00357167 0)
(2.7912 0.00949056 0)
(2.39926 0.0266502 0)
(1.35575 0.0789039 0)
(0.567071 0.16762 0)
(0.551168 0.170743 0)
(0.56214 0.171497 0)
(0.5354 0.178115 0)
(0.46549 0.191028 0)
(0.372744 0.207017 0)
(0.290298 0.220382 0)
(0.212987 0.230689 0)
(0.128975 0.237794 0)
(0.0584726 0.243696 0)
(3 4.51995e-08 0)
(2.99999 2.93529e-07 0)
(2.99998 9.6988e-07 0)
(2.99995 2.87749e-06 0)
(2.99988 7.24349e-06 0)
(2.9997 1.88399e-05 0)
(2.99928 4.6913e-05 0)
(2.99819 0.000114558 0)
(2.99556 0.000294093 0)
(2.98887 0.00070041 0)
(2.97211 0.00180536 0)
(2.92752 0.00451679 0)
(2.80221 0.0121029 0)
(2.43241 0.0338472 0)
(1.42718 0.0991352 0)
(0.614594 0.218641 0)
(0.552014 0.218472 0)
(0.564921 0.21984 0)
(0.542839 0.230813 0)
(0.477381 0.24662 0)
(0.386449 0.267071 0)
(0.303416 0.285222 0)
(0.225175 0.300288 0)
(0.13831 0.311636 0)
(0.0629402 0.320582 0)
(3 6.64879e-08 0)
(2.99999 3.09533e-07 0)
(2.99998 1.32048e-06 0)
(2.99995 3.03694e-06 0)
(2.99989 9.68227e-06 0)
(2.99972 2.0112e-05 0)
(2.99932 6.22935e-05 0)
(2.9983 0.00012351 0)
(2.99583 0.000383397 0)
(2.98956 0.000777802 0)
(2.97385 0.00226209 0)
(2.93221 0.00525171 0)
(2.81572 0.0145377 0)
(2.47216 0.0401759 0)
(1.51661 0.117641 0)
(0.673431 0.271754 0)
(0.550639 0.267277 0)
(0.569245 0.267021 0)
(0.553836 0.282693 0)
(0.492618 0.301929 0)
(0.405052 0.326823 0)
(0.322424 0.350971 0)
(0.243241 0.372566 0)
(0.152416 0.390578 0)
(0.0699396 0.405296 0)
(3 6.90222e-08 0)
(2.99999 3.83537e-07 0)
(2.99998 1.48351e-06 0)
(2.99996 3.73788e-06 0)
(2.9999 1.09414e-05 0)
(2.99975 2.52622e-05 0)
(2.99936 6.781e-05 0)
(2.99846 0.000159746 0)
(2.99611 0.000405782 0)
(2.99043 0.000998378 0)
(2.97583 0.00247768 0)
(2.93774 0.00630367 0)
(2.83135 0.0166032 0)
(2.51863 0.046485 0)
(1.62772 0.135319 0)
(0.746224 0.328044 0)
(0.548021 0.316448 0)
(0.576123 0.313529 0)
(0.569679 0.333231 0)
(0.512824 0.356426 0)
(0.429971 0.386604 0)
(0.349001 0.418054 0)
(0.269367 0.448482 0)
(0.174259 0.477011 0)
(0.0818974 0.502979 0)
(3 6.49324e-08 0)
(2.99999 4.8173e-07 0)
(2.99999 1.47253e-06 0)
(2.99996 4.72996e-06 0)
(2.99991 1.10243e-05 0)
(2.99977 3.13632e-05 0)
(2.99943 6.98947e-05 0)
(2.99858 0.00019291 0)
(2.99653 0.000434314 0)
(2.99129 0.00116602 0)
(2.97826 0.00275163 0)
(2.944 0.00718983 0)
(2.84911 0.0186733 0)
(2.57165 0.0522683 0)
(1.76229 0.151742 0)
(0.835821 0.385873 0)
(0.547259 0.365931 0)
(0.588299 0.359408 0)
(0.592659 0.382309 0)
(0.540391 0.409469 0)
(0.463572 0.445853 0)
(0.385745 0.486609 0)
(0.307046 0.529034 0)
(0.208655 0.574301 0)
(0.10243 0.62295 0)
(3 7.81264e-08 0)
(3 4.85749e-07 0)
(2.99999 1.68582e-06 0)
(2.99997 4.76925e-06 0)
(2.99992 1.25371e-05 0)
(2.9998 3.18229e-05 0)
(2.9995 7.98558e-05 0)
(2.99876 0.000197688 0)
(2.99692 0.000494602 0)
(2.99236 0.00122103 0)
(2.98085 0.0030658 0)
(2.95098 0.00774438 0)
(2.869 0.0203499 0)
(2.62992 0.0566099 0)
(1.92166 0.164393 0)
(0.945449 0.439401 0)
(0.556013 0.416315 0)
(0.61031 0.406406 0)
(0.626019 0.429867 0)
(0.578604 0.461065 0)
(0.5093 0.503754 0)
(0.436505 0.555204 0)
(0.361906 0.612935 0)
(0.265857 0.685087 0)
(0.140885 0.780363 0)
(3 8.03074e-08 0)
(3 4.70552e-07 0)
(2.99999 1.7179e-06 0)
(2.99997 4.59984e-06 0)
(2.99993 1.28743e-05 0)
(2.99983 3.08039e-05 0)
(2.99957 8.21699e-05 0)
(2.99893 0.000194971 0)
(2.99738 0.000508476 0)
(2.99343 0.00122503 0)
(2.98369 0.00315661 0)
(2.95841 0.0078471 0)
(2.88991 0.0208638 0)
(2.69251 0.0575909 0)
(2.10131 0.168852 0)
(1.08421 0.477769 0)
(0.593337 0.466893 0)
(0.651204 0.459262 0)
(0.675433 0.477008 0)
(0.632337 0.511571 0)
(0.570526 0.559219 0)
(0.505065 0.621008 0)
(0.441901 0.700348 0)
(0.363831 0.818482 0)
(0.214005 1.03854 0)
(3 6.78382e-08 0)
(3 4.32276e-07 0)
(2.99999 1.47191e-06 0)
(2.99998 4.26069e-06 0)
(2.99994 1.09999e-05 0)
(2.99985 2.85074e-05 0)
(2.99964 7.00984e-05 0)
(2.99911 0.000177829 0)
(2.99778 0.000437858 0)
(2.99457 0.00109968 0)
(2.98637 0.00272456 0)
(2.96577 0.00692455 0)
(2.91057 0.0178815 0)
(2.75473 0.0489996 0)
(2.29603 0.142178 0)
(1.26558 0.425103 0)
(0.676331 0.495812 0)
(0.710354 0.516751 0)
(0.734104 0.523984 0)
(0.697911 0.559566 0)
(0.644664 0.610703 0)
(0.594454 0.681143 0)
(0.560951 0.779557 0)
(0.563046 0.928333 0)
(0.613932 1.18673 0)
(3 5.67263e-08 0)
(3 3.7885e-07 0)
(2.99999 1.25626e-06 0)
(2.99998 3.70043e-06 0)
(2.99995 9.34894e-06 0)
(2.99987 2.46574e-05 0)
(2.9997 5.89699e-05 0)
(2.99924 0.000151872 0)
(2.99815 0.000362781 0)
(2.99534 0.000921019 0)
(2.98855 0.0022393 0)
(2.97104 0.00564204 0)
(2.92502 0.0143032 0)
(2.79596 0.0381206 0)
(2.41698 0.107374 0)
(1.43604 0.322441 0)
(0.748819 0.53735 0)
(0.742625 0.575053 0)
(0.767828 0.578186 0)
(0.756808 0.608196 0)
(0.721158 0.659409 0)
(0.692995 0.732572 0)
(0.692486 0.835716 0)
(0.752731 0.979737 0)
(0.912784 1.17432 0)
(3 5.53023e-08 0)
(3 3.31566e-07 0)
(2.99999 1.18328e-06 0)
(2.99998 3.23124e-06 0)
(2.99996 8.80017e-06 0)
(2.9999 2.14211e-05 0)
(2.99974 5.57118e-05 0)
(2.99937 0.000132012 0)
(2.99842 0.000340853 0)
(2.99613 0.000807424 0)
(2.99031 0.00207145 0)
(2.97581 0.0050319 0)
(2.93758 0.0129187 0)
(2.83133 0.0339563 0)
(2.52125 0.0947406 0)
(1.65363 0.278426 0)
(0.869689 0.595952 0)
(0.759568 0.622282 0)
(0.787056 0.628989 0)
(0.800559 0.651241 0)
(0.789083 0.70059 0)
(0.785677 0.770926 0)
(0.812799 0.865254 0)
(0.898225 0.983458 0)
(1.07681 1.10369 0)
(3 5.07121e-08 0)
(3 3.07267e-07 0)
(2.99999 1.09374e-06 0)
(2.99999 3.01563e-06 0)
(2.99997 8.1382e-06 0)
(2.99991 2.01104e-05 0)
(2.99979 5.13841e-05 0)
(2.99947 0.000125293 0)
(2.99871 0.000313246 0)
(2.99678 0.000772418 0)
(2.99207 0.00191403 0)
(2.98008 0.00477058 0)
(2.94908 0.0120632 0)
(2.86392 0.0316136 0)
(2.61624 0.0877877 0)
(1.8943 0.255494 0)
(1.02912 0.633839 0)
(0.7835 0.65374 0)
(0.807661 0.663957 0)
(0.837923 0.68116 0)
(0.850153 0.728087 0)
(0.866602 0.793842 0)
(0.91188 0.874029 0)
(1.00531 0.964218 0)
(1.17283 1.03954 0)
(3 4.36563e-08 0)
(3 2.87528e-07 0)
(3 9.5695e-07 0)
(2.99999 2.81952e-06 0)
(2.99997 7.18173e-06 0)
(2.99993 1.87598e-05 0)
(2.99983 4.60087e-05 0)
(2.99959 0.000116527 0)
(2.99896 0.000286012 0)
(2.99747 0.000715576 0)
(2.99364 0.00177696 0)
(2.98427 0.00444764 0)
(2.95993 0.0112151 0)
(2.89441 0.0293873 0)
(2.70652 0.0809227 0)
(2.14655 0.23577 0)
(1.2295 0.646819 0)
(0.840437 0.685785 0)
(0.846824 0.697977 0)
(0.881265 0.707655 0)
(0.909859 0.746061 0)
(0.938154 0.804262 0)
(0.991746 0.870943 0)
(1.08508 0.938976 0)
(1.23487 0.989924 0)
(3 3.56432e-08 0)
(3 2.41552e-07 0)
(3 7.95162e-07 0)
(2.99999 2.3722e-06 0)
(2.99998 5.93823e-06 0)
(2.99995 1.5886e-05 0)
(2.99987 3.76623e-05 0)
(2.99967 9.88852e-05 0)
(2.99921 0.000232794 0)
(2.99802 0.000606919 0)
(2.99518 0.00144357 0)
(2.98795 0.00371949 0)
(2.9699 0.00913973 0)
(2.92203 0.0238397 0)
(2.78883 0.0642197 0)
(2.3993 0.185241 0)
(1.48957 0.548623 0)
(0.953206 0.699376 0)
(0.910296 0.7293 0)
(0.932166 0.741403 0)
(0.969543 0.765103 0)
(1.00462 0.810977 0)
(1.05911 0.864736 0)
(1.14701 0.916158 0)
(1.27865 0.952334 0)
(3 3.09393e-08 0)
(3 1.90832e-07 0)
(3 6.66893e-07 0)
(2.99999 1.86494e-06 0)
(2.99998 4.97013e-06 0)
(2.99996 1.23653e-05 0)
(2.9999 3.13783e-05 0)
(2.99975 7.61835e-05 0)
(2.99938 0.000191474 0)
(2.99847 0.000463102 0)
(2.99623 0.0011591 0)
(2.99068 0.00282616 0)
(2.9767 0.00705999 0)
(2.94022 0.0177719 0)
(2.8398 0.0466713 0)
(2.54849 0.129856 0)
(1.75099 0.389717 0)
(1.07264 0.719501 0)
(0.959969 0.759345 0)
(0.973452 0.777874 0)
(1.01561 0.788442 0)
(1.06064 0.819547 0)
(1.11581 0.860451 0)
(1.19691 0.899 0)
(1.31196 0.924882 0)
(3 2.67155e-08 0)
(3 1.55054e-07 0)
(3 5.69777e-07 0)
(2.99999 1.51605e-06 0)
(2.99999 4.22863e-06 0)
(2.99997 1.01455e-05 0)
(2.99992 2.65826e-05 0)
(2.99981 6.31444e-05 0)
(2.99953 0.000161626 0)
(2.99883 0.00038844 0)
(2.99715 0.000977524 0)
(2.99286 0.00239098 0)
(2.98233 0.0059813 0)
(2.95492 0.0149859 0)
(2.88065 0.0391523 0)
(2.66731 0.107513 0)
(2.04112 0.315529 0)
(1.25192 0.750981 0)
(1.00723 0.795416 0)
(1.00913 0.810926 0)
(1.05115 0.812938 0)
(1.10601 0.827444 0)
(1.16333 0.85695 0)
(1.23823 0.886131 0)
(1.33892 0.904884 0)
(3 2.04129e-08 0)
(3 1.28382e-07 0)
(3 4.38599e-07 0)
(3 1.25445e-06 0)
(2.99999 3.27414e-06 0)
(2.99998 8.27873e-06 0)
(2.99994 2.09516e-05 0)
(2.99986 5.07995e-05 0)
(2.99965 0.000129631 0)
(2.99915 0.000308607 0)
(2.9979 0.00079792 0)
(2.99485 0.00189122 0)
(2.98719 0.00489805 0)
(2.96785 0.0119451 0)
(2.91648 0.0313907 0)
(2.77282 0.0845446 0)
(2.34717 0.245859 0)
(1.51764 0.679793 0)
(1.10703 0.806354 0)
(1.06647 0.830965 0)
(1.09096 0.836902 0)
(1.14694 0.838927 0)
(1.20756 0.856769 0)
(1.27631 0.877621 0)
(1.36403 0.890938 0)
(3 1.47538e-08 0)
(3 9.91184e-08 0)
(3 3.27345e-07 0)
(3 9.68489e-07 0)
(2.99999 2.43481e-06 0)
(2.99998 6.43693e-06 0)
(2.99996 1.53025e-05 0)
(2.9999 3.97181e-05 0)
(2.99975 9.34961e-05 0)
(2.99939 0.000240883 0)
(2.99847 0.000570614 0)
(2.99628 0.00145788 0)
(2.99071 0.0035047 0)
(2.97697 0.00890918 0)
(2.94101 0.0222843 0)
(2.84288 0.0593587 0)
(2.55976 0.16658 0)
(1.81433 0.499038 0)
(1.23458 0.803317 0)
(1.12577 0.843439 0)
(1.13306 0.860199 0)
(1.18271 0.858053 0)
(1.24566 0.862492 0)
(1.31061 0.874199 0)
(1.38813 0.882281 0)
(3 1.19273e-08 0)
(3 7.36002e-08 0)
(3 2.5818e-07 0)
(3 7.18824e-07 0)
(3 1.91892e-06 0)
(2.99999 4.78986e-06 0)
(2.99997 1.2081e-05 0)
(2.99993 2.9711e-05 0)
(2.99982 7.36663e-05 0)
(2.99955 0.000181615 0)
(2.99892 0.000446614 0)
(2.9973 0.00111044 0)
(2.99339 0.00272604 0)
(2.98348 0.00680356 0)
(2.95834 0.017062 0)
(2.89046 0.0443678 0)
(2.69771 0.121343 0)
(2.13387 0.359418 0)
(1.41914 0.810997 0)
(1.18392 0.871135 0)
(1.1738 0.885238 0)
(1.21144 0.88155 0)
(1.27503 0.873893 0)
(1.34035 0.875887 0)
(1.41109 0.878799 0)
(3 9.08682e-09 0)
(3 5.50038e-08 0)
(3 1.9385e-07 0)
(3 5.37097e-07 0)
(3 1.44306e-06 0)
(2.99999 3.54574e-06 0)
(2.99998 9.16927e-06 0)
(2.99995 2.17593e-05 0)
(2.99987 5.61341e-05 0)
(2.9997 0.000132383 0)
(2.99924 0.000340358 0)
(2.99818 0.000807082 0)
(2.99546 0.00206444 0)
(2.98892 0.00497904 0)
(2.97224 0.0126713 0)
(2.92906 0.0321245 0)
(2.81091 0.0865847 0)
(2.4642 0.249873 0)
(1.71196 0.683645 0)
(1.29717 0.864862 0)
(1.23456 0.894916 0)
(1.24956 0.901965 0)
(1.30368 0.890463 0)
(1.36838 0.883617 0)
(1.43431 0.880925 0)
(3 6.51722e-09 0)
(3 3.98145e-08 0)
(3 1.40754e-07 0)
(3 3.89531e-07 0)
(3 1.03946e-06 0)
(2.99999 2.58679e-06 0)
(2.99999 6.48609e-06 0)
(2.99996 1.59136e-05 0)
(2.99991 3.90442e-05 0)
(2.99979 9.66749e-05 0)
(2.99948 0.000232848 0)
(2.99873 0.000583848 0)
(2.99687 0.0013965 0)
(2.99232 0.00351801 0)
(2.98091 0.00852241 0)
(2.95173 0.0215816 0)
(2.87301 0.0557408 0)
(2.64921 0.153297 0)
(2.03083 0.451903 0)
(1.44103 0.844422 0)
(1.29186 0.905398 0)
(1.28784 0.922066 0)
(1.32862 0.912492 0)
(1.39209 0.895764 0)
(1.45556 0.886959 0)
(3 4.48409e-09 0)
(3 2.93282e-08 0)
(3 9.81658e-08 0)
(3 2.86025e-07 0)
(3 7.28177e-07 0)
(3 1.88904e-06 0)
(2.99999 4.57445e-06 0)
(2.99998 1.155e-05 0)
(2.99994 2.78489e-05 0)
(2.99986 6.93547e-05 0)
(2.99965 0.000168566 0)
(2.99915 0.000415772 0)
(2.9979 0.00101862 0)
(2.99485 0.00250411 0)
(2.98726 0.00620337 0)
(2.96817 0.0153824 0)
(2.91777 0.0395533 0)
(2.77825 0.105957 0)
(2.36643 0.308767 0)
(1.68667 0.763404 0)
(1.38029 0.905049 0)
(1.33722 0.932192 0)
(1.35588 0.933178 0)
(1.41172 0.913394 0)
(1.476 0.897024 0)
(3 3.13274e-09 0)
(3 2.01704e-08 0)
(3 6.84066e-08 0)
(3 1.96493e-07 0)
(3 5.07217e-07 0)
(3 1.2973e-06 0)
(2.99999 3.17838e-06 0)
(2.99998 7.94231e-06 0)
(2.99996 1.92615e-05 0)
(2.99991 4.7814e-05 0)
(2.99977 0.000116235 0)
(2.99944 0.000286793 0)
(2.99861 0.000701 0)
(2.99664 0.00172605 0)
(2.99164 0.004252 0)
(2.97943 0.0105375 0)
(2.9478 0.0265703 0)
(2.86305 0.0697384 0)
(2.61986 0.195621 0)
(2.0033 0.560204 0)
(1.51644 0.880387 0)
(1.39757 0.934707 0)
(1.39256 0.948836 0)
(1.43188 0.935621 0)
(1.49302 0.909819 0)
(3 2.15267e-09 0)
(3 1.3678e-08 0)
(3 4.69431e-08 0)
(3 1.33213e-07 0)
(3 3.47546e-07 0)
(3 8.80049e-07 0)
(3 2.17276e-06 0)
(2.99999 5.40582e-06 0)
(2.99997 1.31068e-05 0)
(2.99994 3.26271e-05 0)
(2.99985 7.86495e-05 0)
(2.99964 0.000196044 0)
(2.9991 0.000472024 0)
(2.99781 0.00117634 0)
(2.9946 0.0028534 0)
(2.98673 0.00710188 0)
(2.96679 0.0175882 0)
(2.91452 0.0450916 0)
(2.76949 0.121391 0)
(2.34832 0.354465 0)
(1.73609 0.79891 0)
(1.47686 0.928065 0)
(1.43806 0.954846 0)
(1.45396 0.954695 0)
(1.50573 0.929783 0)
(3 1.4227e-09 0)
(3 9.24873e-09 0)
(3 3.12555e-08 0)
(3 8.99985e-08 0)
(3 2.31348e-07 0)
(3 5.94631e-07 0)
(3 1.44286e-06 0)
(2.99999 3.6481e-06 0)
(2.99998 8.70155e-06 0)
(2.99996 2.19708e-05 0)
(2.9999 5.22131e-05 0)
(2.99977 0.000131704 0)
(2.99943 0.000313192 0)
(2.99862 0.00078877 0)
(2.99658 0.00188887 0)
(2.99169 0.00473849 0)
(2.97934 0.0115531 0)
(2.94802 0.0293588 0)
(2.86413 0.0765396 0)
(2.62329 0.215715 0)
(2.04208 0.594854 0)
(1.6064 0.897649 0)
(1.49794 0.953696 0)
(1.48906 0.966975 0)
(1.52141 0.953643 0)
(3 9.55784e-10 0)
(3 5.96045e-09 0)
(3 2.07984e-08 0)
(3 5.79837e-08 0)
(3 1.53747e-07 0)
(3 3.82541e-07 0)
(3 9.57147e-07 0)
(3 2.34796e-06 0)
(2.99999 5.74208e-06 0)
(2.99998 1.41961e-05 0)
(2.99994 3.41471e-05 0)
(2.99985 8.53407e-05 0)
(2.99965 0.000203523 0)
(2.99912 0.000511134 0)
(2.99789 0.00121539 0)
(2.99477 0.0030651 0)
(2.98728 0.00735907 0)
(2.96817 0.0185919 0)
(2.91858 0.0469237 0)
(2.782 0.126275 0)
(2.38903 0.364778 0)
(1.82353 0.800398 0)
(1.57584 0.93923 0)
(1.53331 0.968225 0)
(1.54322 0.970573 0)
(3 6.16694e-10 0)
(3 3.8938e-09 0)
(3 1.32731e-08 0)
(3 3.79363e-08 0)
(3 9.8098e-08 0)
(3 2.48868e-07 0)
(3 6.16369e-07 0)
(3 1.5088e-06 0)
(2.99999 3.73492e-06 0)
(2.99998 9.00283e-06 0)
(2.99996 2.2448e-05 0)
(2.99991 5.35557e-05 0)
(2.99978 0.000134438 0)
(2.99946 0.00031923 0)
(2.99871 0.000802803 0)
(2.99681 0.0019137 0)
(2.99227 0.00480066 0)
(2.98082 0.0116592 0)
(2.95196 0.0294574 0)
(2.8753 0.0763677 0)
(2.6561 0.213428 0)
(2.1271 0.580808 0)
(1.70632 0.901231 0)
(1.59233 0.964807 0)
(1.57792 0.979265 0)
(3 3.78682e-10 0)
(3 2.49684e-09 0)
(3 8.26643e-09 0)
(3 2.42696e-08 0)
(3 6.11622e-08 0)
(3 1.58928e-07 0)
(3 3.83023e-07 0)
(3 9.62863e-07 0)
(3 2.31536e-06 0)
(2.99999 5.72819e-06 0)
(2.99998 1.39059e-05 0)
(2.99995 3.38908e-05 0)
(2.99987 8.3273e-05 0)
(2.99968 0.000200435 0)
(2.99922 0.000498297 0)
(2.9981 0.00118789 0)
(2.99539 0.00297838 0)
(2.98866 0.00714237 0)
(2.97202 0.0179608 0)
(2.92894 0.045068 0)
(2.81176 0.120416 0)
(2.47547 0.344362 0)
(1.93921 0.77127 0)
(1.67586 0.938055 0)
(1.62367 0.973182 0)
(3 2.3458e-10 0)
(3 1.53819e-09 0)
(3 5.15633e-09 0)
(3 1.49302e-08 0)
(3 3.80124e-08 0)
(3 9.80447e-08 0)
(3 2.35669e-07 0)
(3 5.96868e-07 0)
(3 1.41201e-06 0)
(2.99999 3.55583e-06 0)
(2.99999 8.42109e-06 0)
(2.99997 2.10458e-05 0)
(2.99992 5.02017e-05 0)
(2.99981 0.000124184 0)
(2.99953 0.000299749 0)
(2.99887 0.000732791 0)
(2.99723 0.00179107 0)
(2.99328 0.00435477 0)
(2.98342 0.0107898 0)
(2.95872 0.0266769 0)
(2.89368 0.0689998 0)
(2.71044 0.189315 0)
(2.24687 0.52008 0)
(1.81707 0.882595 0)
(1.68176 0.962719 0)
(3 1.50449e-10 0)
(3 9.21085e-10 0)
(3 3.24948e-09 0)
(3 8.944e-09 0)
(3 2.38822e-08 0)
(3 5.88995e-08 0)
(3 1.47375e-07 0)
(3 3.59295e-07 0)
(3 8.76528e-07 0)
(3 2.1523e-06 0)
(2.99999 5.16815e-06 0)
(2.99998 1.2841e-05 0)
(2.99995 3.04527e-05 0)
(2.99989 7.62818e-05 0)
(2.99973 0.000180202 0)
(2.99935 0.000451432 0)
(2.99841 0.00107083 0)
(2.99616 0.00267337 0)
(2.99059 0.00642591 0)
(2.97697 0.0160308 0)
(2.94226 0.0400158 0)
(2.84999 0.105498 0)
(2.58634 0.298329 0)
(2.07567 0.708529 0)
(1.77743 0.920953 0)
(3 9.02397e-11 0)
(3 5.55856e-10 0)
(3 1.93417e-09 0)
(3 5.39231e-09 0)
(3 1.42545e-08 0)
(3 3.51929e-08 0)
(3 8.86222e-08 0)
(3 2.12115e-07 0)
(3 5.29453e-07 0)
(3 1.25982e-06 0)
(3 3.12513e-06 0)
(2.99999 7.46026e-06 0)
(2.99997 1.83579e-05 0)
(2.99993 4.41575e-05 0)
(2.99984 0.000107582 0)
(2.99962 0.000261169 0)
(2.99908 0.000630312 0)
(2.99775 0.00154217 0)
(2.99454 0.00371127 0)
(2.98659 0.00915083 0)
(2.96687 0.0223435 0)
(2.91561 0.0568469 0)
(2.77468 0.151603 0)
(2.39434 0.419104 0)
(1.94553 0.820224 0)
(3 5.26e-11 0)
(3 3.35697e-10 0)
(3 1.13336e-09 0)
(3 3.25988e-09 0)
(3 8.34116e-09 0)
(3 2.1239e-08 0)
(3 5.20235e-08 0)
(3 1.27498e-07 0)
(3 3.1267e-07 0)
(3 7.516e-07 0)
(3 1.86132e-06 0)
(2.99999 4.41875e-06 0)
(2.99998 1.10146e-05 0)
(2.99996 2.60538e-05 0)
(2.99991 6.49637e-05 0)
(2.99978 0.000153896 0)
(2.99948 0.000382127 0)
(2.99872 0.000913 0)
(2.99693 0.00225036 0)
(2.99247 0.00544931 0)
(2.98166 0.0134305 0)
(2.95422 0.0334248 0)
(2.88249 0.086293 0)
(2.67856 0.238758 0)
(2.22455 0.612578 0)
(3 3.03076e-11 0)
(3 1.96899e-10 0)
(3 6.57409e-10 0)
(3 1.90932e-09 0)
(3 4.83693e-09 0)
(3 1.24296e-08 0)
(3 3.00656e-08 0)
(3 7.46976e-08 0)
(3 1.80337e-07 0)
(3 4.3988e-07 0)
(3 1.07091e-06 0)
(3 2.57758e-06 0)
(2.99999 6.34399e-06 0)
(2.99998 1.50832e-05 0)
(2.99995 3.7455e-05 0)
(2.99988 8.84274e-05 0)
(2.99971 0.000220151 0)
(2.9993 0.000520389 0)
(2.99832 0.00129168 0)
(2.99591 0.0030743 0)
(2.9901 0.00762639 0)
(2.97565 0.0184709 0)
(2.93917 0.046767 0)
(2.84141 0.122385 0)
(2.56606 0.343433 0)
(3 1.73817e-11 0)
(3 1.10999e-10 0)
(3 3.7972e-10 0)
(3 1.07499e-09 0)
(3 2.78673e-09 0)
(3 7.03662e-09 0)
(3 1.71358e-08 0)
(3 4.25875e-08 0)
(3 1.01338e-07 0)
(3 2.5217e-07 0)
(3 5.95436e-07 0)
(3 1.48162e-06 0)
(3 3.49319e-06 0)
(2.99999 8.65739e-06 0)
(2.99997 2.05192e-05 0)
(2.99993 5.03861e-05 0)
(2.99984 0.000120452 0)
(2.99962 0.000292708 0)
(2.99906 0.000707128 0)
(2.99775 0.00170156 0)
(2.99447 0.00416221 0)
(2.98664 0.0100193 0)
(2.96686 0.0248754 0)
(2.91636 0.0624461 0)
(2.77679 0.168576 0)
(3 1.01069e-11 0)
(3 6.20828e-11 0)
(3 2.16547e-10 0)
(3 6.01587e-10 0)
(3 1.58879e-09 0)
(3 3.92427e-09 0)
(3 9.81261e-09 0)
(3 2.35989e-08 0)
(3 5.81963e-08 0)
(3 1.39636e-07 0)
(3 3.41309e-07 0)
(3 8.22533e-07 0)
(3 1.99482e-06 0)
(2.99999 4.8377e-06 0)
(2.99999 1.1638e-05 0)
(2.99996 2.84373e-05 0)
(2.99991 6.79057e-05 0)
(2.99979 0.000166723 0)
(2.99949 0.000397171 0)
(2.99878 0.000977131 0)
(2.99702 0.00233271 0)
(2.99286 0.00575041 0)
(2.98247 0.0139308 0)
(2.95678 0.0347622 0)
(2.88964 0.0890794 0)
(3 5.58993e-12 0)
(3 3.45662e-11 0)
(3 1.19901e-10 0)
(3 3.34861e-10 0)
(3 8.78916e-10 0)
(3 2.17888e-09 0)
(3 5.42445e-09 0)
(3 1.30772e-08 0)
(3 3.22245e-08 0)
(3 7.69748e-08 0)
(3 1.89246e-07 0)
(3 4.51887e-07 0)
(3 1.10625e-06 0)
(3 2.64818e-06 0)
(2.99999 6.45357e-06 0)
(2.99998 1.5526e-05 0)
(2.99995 3.75601e-05 0)
(2.99989 9.08595e-05 0)
(2.99973 0.000218656 0)
(2.99936 0.000531588 0)
(2.99844 0.00127309 0)
(2.99629 0.00311279 0)
(2.99096 0.00748899 0)
(2.97814 0.018433 0)
(2.94576 0.0457823 0)
(3 3.10386e-12 0)
(3 1.87141e-11 0)
(3 6.63895e-11 0)
(3 1.81106e-10 0)
(3 4.85276e-10 0)
(3 1.18163e-09 0)
(3 2.98106e-09 0)
(3 7.10722e-09 0)
(3 1.75725e-08 0)
(3 4.19033e-08 0)
(3 1.02529e-07 0)
(3 2.46196e-07 0)
(3 5.94667e-07 0)
(3 1.4423e-06 0)
(3 3.44677e-06 0)
(2.99999 8.43086e-06 0)
(2.99998 1.99449e-05 0)
(2.99994 4.90614e-05 0)
(2.99986 0.000115537 0)
(2.99966 0.000284424 0)
(2.99918 0.000668697 0)
(2.99804 0.00164359 0)
(2.99521 0.00388763 0)
(2.9885 0.00952852 0)
(2.97166 0.0230049 0)
(3 1.6437e-12 0)
(3 1.02904e-11 0)
(3 3.50984e-11 0)
(3 9.92139e-11 0)
(3 2.57665e-10 0)
(3 6.41629e-10 0)
(3 1.59338e-09 0)
(3 3.81952e-09 0)
(3 9.43902e-09 0)
(3 2.23473e-08 0)
(3 5.52521e-08 0)
(3 1.30281e-07 0)
(3 3.21491e-07 0)
(3 7.60304e-07 0)
(3 1.86318e-06 0)
(2.99999 4.44309e-06 0)
(2.99999 1.07727e-05 0)
(2.99997 2.59217e-05 0)
(2.99993 6.22252e-05 0)
(2.99982 0.000151311 0)
(2.99957 0.00035914 0)
(2.99897 0.00088151 0)
(2.99753 0.0020834 0)
(2.99403 0.00514055 0)
(2.98548 0.0122637 0)
(3 8.51947e-13 0)
(3 5.52291e-12 0)
(3 1.84621e-11 0)
(3 5.33962e-11 0)
(3 1.35545e-10 0)
(3 3.45589e-10 0)
(3 8.33568e-10 0)
(3 2.05874e-09 0)
(3 4.93084e-09 0)
(3 1.20078e-08 0)
(3 2.88749e-08 0)
(3 6.96213e-08 0)
(3 1.68916e-07 0)
(3 4.02702e-07 0)
(3 9.84804e-07 0)
(3 2.33551e-06 0)
(2.99999 5.72427e-06 0)
(2.99998 1.35532e-05 0)
(2.99996 3.32155e-05 0)
(2.99991 7.87622e-05 0)
(2.99978 0.000192415 0)
(2.99948 0.000458778 0)
(2.99876 0.00111465 0)
(2.99697 0.00267858 0)
(2.99278 0.00650551 0)
(3 4.56206e-13 0)
(3 2.80547e-12 0)
(3 9.93169e-12 0)
(3 2.73556e-11 0)
(3 7.23093e-11 0)
(3 1.78377e-10 0)
(3 4.41389e-10 0)
(3 1.06842e-09 0)
(3 2.58586e-09 0)
(3 6.2779e-09 0)
(3 1.49906e-08 0)
(3 3.66178e-08 0)
(3 8.68271e-08 0)
(3 2.12988e-07 0)
(3 5.02897e-07 0)
(3 1.23458e-06 0)
(3 2.91754e-06 0)
(2.99999 7.13939e-06 0)
(2.99998 1.69306e-05 0)
(2.99995 4.1173e-05 0)
(2.99989 9.83405e-05 0)
(2.99974 0.000236895 0)
(2.99937 0.000571192 0)
(2.99852 0.00136271 0)
(2.99642 0.00331975 0)
(3 2.26668e-13 0)
(3 1.4911e-12 0)
(3 5.04401e-12 0)
(3 1.43289e-11 0)
(3 3.69979e-11 0)
(3 9.24906e-11 0)
(3 2.27817e-10 0)
(3 5.47891e-10 0)
(3 1.34416e-09 0)
(3 3.18502e-09 0)
(3 7.83531e-09 0)
(3 1.8435e-08 0)
(3 4.53694e-08 0)
(3 1.06863e-07 0)
(3 2.61639e-07 0)
(3 6.19229e-07 0)
(3 1.50463e-06 0)
(3 3.58965e-06 0)
(2.99999 8.62906e-06 0)
(2.99998 2.07681e-05 0)
(2.99995 4.9391e-05 0)
(2.99987 0.000119922 0)
(2.99969 0.000282192 0)
(2.99926 0.000689861 0)
(2.99824 0.00161595 0)
(3 1.11779e-13 0)
(3 7.57912e-13 0)
(3 2.52676e-12 0)
(3 7.36056e-12 0)
(3 1.86672e-11 0)
(3 4.77127e-11 0)
(3 1.14158e-10 0)
(3 2.83702e-10 0)
(3 6.69461e-10 0)
(3 1.6476e-09 0)
(3 3.89262e-09 0)
(3 9.49133e-09 0)
(3 2.25867e-08 0)
(3 5.4465e-08 0)
(3 1.30845e-07 0)
(3 3.11933e-07 0)
(3 7.57526e-07 0)
(3 1.78412e-06 0)
(3 4.36796e-06 0)
(2.99999 1.02328e-05 0)
(2.99997 2.50508e-05 0)
(2.99994 5.88075e-05 0)
(2.99985 0.000143204 0)
(2.99964 0.000338236 0)
(2.99914 0.00081729 0)
(3 4.69119e-14 0)
(3 3.12458e-13 0)
(3 1.25467e-12 0)
(3 3.53807e-12 0)
(3 9.52168e-12 0)
(3 2.34188e-11 0)
(3 5.82771e-11 0)
(3 1.40272e-10 0)
(3 3.40038e-10 0)
(3 8.185e-10 0)
(3 1.9578e-09 0)
(3 4.7492e-09 0)
(3 1.12212e-08 0)
(3 2.74278e-08 0)
(3 6.44575e-08 0)
(3 1.57462e-07 0)
(3 3.71001e-07 0)
(3 9.02024e-07 0)
(3 2.13359e-06 0)
(2.99999 5.15659e-06 0)
(2.99999 1.22884e-05 0)
(2.99997 2.93969e-05 0)
(2.99993 7.0829e-05 0)
(2.99983 0.00016769 0)
(2.99958 0.000407182 0)
(3 1.55802e-14 0)
(3 1.51369e-13 0)
(3 6.07038e-13 0)
(3 1.76189e-12 0)
(3 4.67983e-12 0)
(3 1.16115e-11 0)
(3 2.88598e-11 0)
(3 6.90616e-11 0)
(3 1.69025e-10 0)
(3 4.0163e-10 0)
(3 9.74091e-10 0)
(3 2.31617e-09 0)
(3 5.58639e-09 0)
(3 1.33481e-08 0)
(3 3.19222e-08 0)
(3 7.67885e-08 0)
(3 1.8247e-07 0)
(3 4.41391e-07 0)
(3 1.04221e-06 0)
(3 2.53485e-06 0)
(2.99999 5.96603e-06 0)
(2.99999 1.45119e-05 0)
(2.99997 3.42453e-05 0)
(2.99992 8.29714e-05 0)
(2.9998 0.000196572 0)
(3 1.38236e-14 0)
(3 1.17024e-13 0)
(3 3.23741e-13 0)
(3 9.23728e-13 0)
(3 2.31571e-12 0)
(3 5.79239e-12 0)
(3 1.38425e-11 0)
(3 3.40688e-11 0)
(3 8.07775e-11 0)
(3 1.97036e-10 0)
(3 4.67958e-10 0)
(3 1.12841e-09 0)
(3 2.69782e-09 0)
(3 6.44333e-09 0)
(3 1.55441e-08 0)
(3 3.67366e-08 0)
(3 8.93671e-08 0)
(3 2.09774e-07 0)
(3 5.12708e-07 0)
(3 1.19928e-06 0)
(3 2.93159e-06 0)
(2.99999 6.87787e-06 0)
(2.99998 1.67261e-05 0)
(2.99996 3.94112e-05 0)
(2.9999 9.53417e-05 0)
(3 2.72111e-14 0)
(3 6.55245e-14 0)
(3 1.4504e-13 0)
(3 4.18437e-13 0)
(3 1.03353e-12 0)
(3 2.59019e-12 0)
(3 6.56573e-12 0)
(3 1.55937e-11 0)
(3 3.88564e-11 0)
(3 9.14717e-11 0)
(3 2.24697e-10 0)
(3 5.27601e-10 0)
(3 1.28799e-09 0)
(3 3.03227e-09 0)
(3 7.35918e-09 0)
(3 1.74029e-08 0)
(3 4.19649e-08 0)
(3 9.99668e-08 0)
(3 2.38823e-07 0)
(3 5.73303e-07 0)
(3 1.35924e-06 0)
(3 3.28603e-06 0)
(2.99999 7.72922e-06 0)
(2.99998 1.87825e-05 0)
(2.99996 4.40126e-05 0)
(3 4.49674e-14 0)
(3 9.72747e-14 0)
(3 1.83736e-13 0)
(3 2.86494e-13 0)
(3 5.90552e-13 0)
(3 1.28205e-12 0)
(3 2.98374e-12 0)
(3 7.09915e-12 0)
(3 1.69943e-11 0)
(3 4.04725e-11 0)
(3 9.73678e-11 0)
(3 2.33128e-10 0)
(3 5.56217e-10 0)
(3 1.34173e-09 0)
(3 3.16744e-09 0)
(3 7.70104e-09 0)
(3 1.80424e-08 0)
(3 4.40862e-08 0)
(3 1.02834e-07 0)
(3 2.51493e-07 0)
(3 5.87114e-07 0)
(3 1.42942e-06 0)
(3 3.35128e-06 0)
(2.99999 8.10577e-06 0)
(2.99998 1.91248e-05 0)
(3 3.29406e-14 0)
(3 8.15535e-14 0)
(3 1.42269e-13 0)
(3 1.9407e-13 0)
(3 3.36171e-13 0)
(3 5.46552e-13 0)
(3 9.83806e-13 0)
(3 2.24845e-12 0)
(3 4.80023e-12 0)
(3 1.15892e-11 0)
(3 2.69897e-11 0)
(3 6.54357e-11 0)
(3 1.55013e-10 0)
(3 3.72081e-10 0)
(3 8.86944e-10 0)
(3 2.12347e-09 0)
(3 5.07455e-09 0)
(3 1.2068e-08 0)
(3 2.90334e-08 0)
(3 6.86038e-08 0)
(3 1.65691e-07 0)
(3 3.89069e-07 0)
(3 9.42355e-07 0)
(2.99999 2.21309e-06 0)
(2.99999 5.33151e-06 0)
(1.29589 1.08815 0)
(1.71108 0.883849 0)
(1.90027 0.618155 0)
(1.93565 0.352691 0)
(1.89522 0.134609 0)
(1.8167 -0.00958102 0)
(1.73385 -0.0475681 0)
(1.69216 -0.0218984 0)
(1.68789 0.0166549 0)
(1.694 0.0403848 0)
(1.70306 0.0434796 0)
(1.7103 0.0340703 0)
(1.71215 0.0235727 0)
(1.71307 0.0146791 0)
(1.71389 0.00986286 0)
(1.71563 0.00924519 0)
(1.71854 0.0102882 0)
(1.72209 0.0117804 0)
(1.72714 0.0127617 0)
(1.73382 0.0123392 0)
(1.74108 0.0107131 0)
(1.74838 0.00872799 0)
(1.75595 0.0069979 0)
(1.76405 0.00573132 0)
(1.77276 0.00483303 0)
(1.78207 0.00414382 0)
(1.79194 0.00353719 0)
(1.80231 0.0029592 0)
(1.8131 0.00240573 0)
(1.82427 0.0018911 0)
(1.83577 0.00142823 0)
(1.84756 0.00102179 0)
(1.85961 0.000669354 0)
(1.87188 0.000364947 0)
(1.88433 0.000101942 0)
(1.89694 -0.000125607 0)
(1.90966 -0.000323185 0)
(1.92247 -0.000494634 0)
(1.93535 -0.000644989 0)
(1.94827 -0.000782536 0)
(1.9612 -0.000901717 0)
(1.97416 -0.00100417 0)
(1.98714 -0.00111513 0)
(2.00006 -0.00123204 0)
(2.01293 -0.001325 0)
(2.02578 -0.00140505 0)
(2.0386 -0.00148591 0)
(2.05137 -0.00158457 0)
(2.06405 -0.00170483 0)
(2.07651 -0.00201746 0)
(2.08847 -0.00250804 0)
(2.09878 -0.00426075 0)
(2.10737 -0.00620436 0)
(2.11462 -0.0092064 0)
(2.11833 -0.0149679 0)
(2.11413 -0.0267429 0)
(2.09386 -0.0511565 0)
(2.0431 -0.101817 0)
(1.94318 -0.185324 0)
(1.80651 -0.259964 0)
(1.67328 -0.276179 0)
(1.57653 -0.222169 0)
(1.5312 -0.127042 0)
(1.53837 -0.0352559 0)
(1.57146 0.0133489 0)
(1.60646 0.026521 0)
(1.64804 0.0133195 0)
(1.68946 -0.0108943 0)
(1.72188 -0.0376987 0)
(1.75015 -0.0553179 0)
(1.77783 -0.0558891 0)
(1.80502 -0.0456272 0)
(1.83247 -0.029107 0)
(1.86089 -0.011177 0)
(1.89073 0.00437871 0)
(1.92268 0.0138646 0)
(1.95439 0.0152706 0)
(1.98428 0.0109345 0)
(2.01263 0.00245969 0)
(2.03919 -0.00697867 0)
(2.06401 -0.0150514 0)
(2.08754 -0.0203814 0)
(2.11014 -0.0225828 0)
(2.13225 -0.0217085 0)
(2.1542 -0.0184875 0)
(2.17622 -0.0139352 0)
(2.19847 -0.00914447 0)
(2.22073 -0.00502362 0)
(2.24269 -0.00202236 0)
(2.26411 -0.000185575 0)
(2.2849 0.00076236 0)
(2.30509 0.00108838 0)
(2.32473 0.000983485 0)
(2.3438 0.000589135 0)
(2.36231 7.4181e-05 0)
(2.38018 -0.000429737 0)
(2.39734 -0.000876665 0)
(2.41306 -0.00101845 0)
(2.42677 -0.00133785 0)
(2.43679 -0.000388443 0)
(1.38782 0.994755 0)
(1.7051 0.710085 0)
(1.8835 0.397409 0)
(1.97393 0.129363 0)
(2.03061 -0.0618238 0)
(2.06867 -0.163865 0)
(2.08496 -0.174432 0)
(2.08758 -0.13573 0)
(2.08073 -0.0882267 0)
(2.06544 -0.0490744 0)
(2.052 -0.0245553 0)
(2.04957 -0.0170179 0)
(2.0524 -0.0182503 0)
(2.05688 -0.0217882 0)
(2.06242 -0.024415 0)
(2.06732 -0.0254732 0)
(2.07101 -0.0250255 0)
(2.07401 -0.0230469 0)
(2.07708 -0.0206582 0)
(2.08079 -0.0190069 0)
(2.08528 -0.0183551 0)
(2.09036 -0.0182317 0)
(2.09585 -0.0182436 0)
(2.10157 -0.0181956 0)
(2.10741 -0.0180497 0)
(2.11338 -0.017831 0)
(2.11952 -0.0175762 0)
(2.12589 -0.0173032 0)
(2.13251 -0.0170218 0)
(2.13938 -0.0167382 0)
(2.14649 -0.0164577 0)
(2.15383 -0.016184 0)
(2.16139 -0.0159191 0)
(2.16918 -0.0156621 0)
(2.17716 -0.0154114 0)