/*--------------------------------*- C++ -*----------------------------------*\
  =========                 |
  \\      /  F ield         | OpenFOAM: The Open Source CFD Toolbox
   \\    /   O peration     | Website:  https://openfoam.org
    \\  /    A nd           | Version:  10
     \\/     M anipulation  |
\*---------------------------------------------------------------------------*/
FoamFile
{
    format      ascii;
    class       volScalarField;
    location    "6";
    object      p;
}
// * * * * * * * * * * * * * * * * * * * * * * * * * * * * * * * * * * * * * //

dimensions      [1 -1 -2 0 0 0 0];

internalField   nonuniform List<scalar> 
5250
(
1.00001
1.00003
1.00009
1.00022
1.00058
1.00134
1.00359
1.00813
1.02193
1.05067
1.13378
1.33624
1.92521
3.6376
8.58152
11.5685
11.2554
11.0645
11.1479
11.372
11.5929
11.7274
11.83
11.9103
11.9714
1.00001
1.00003
1.00008
1.00023
1.00054
1.00143
1.00326
1.00874
1.01995
1.05309
1.12708
1.33649
1.90497
3.59627
8.47063
11.5793
11.2544
11.055
11.1393
11.3645
11.5851
11.7198
11.824
11.9056
11.968
1.00001
1.00003
1.00008
1.00021
1.00054
1.00134
1.00323
1.0083
1.0196
1.05087
1.1237
1.32419
1.8738
3.5
8.22257
11.6019
11.2484
11.0254
11.1086
11.3319
11.5501
11.6829
11.7867
11.8678
11.9305
1.00001
1.00003
1.00008
1.00021
1.00051
1.00127
1.00317
1.00758
1.01949
1.04674
1.11978
1.30492
1.82727
3.35426
7.83668
11.64
11.2409
10.9769
11.0561
11.2737
11.4881
11.6171
11.718
11.7974
11.8613
1
1.00003
1.00007
1.0002
1.00045
1.00124
1.00278
1.00755
1.01702
1.0458
1.10813
1.2869
1.76063
3.16774
7.31444
11.6861
11.2324
10.9114
10.9842
11.1918
11.4013
11.5247
11.6208
11.6974
11.7636
1
1.00002
1.00006
1.00018
1.00042
1.00112
1.00256
1.00688
1.01557
1.0419
1.09853
1.26075
1.68635
2.94469
6.67204
11.7214
11.2221
10.831
10.8932
11.0837
11.2857
11.3999
11.4865
11.5565
11.6245
1
1.00002
1.00006
1.00016
1.00038
1.00102
1.0023
1.0062
1.01399
1.03768
1.08804
1.2326
1.60553
2.70145
5.9324
11.6838
11.1913
10.7377
10.7846
10.9469
11.1363
11.2351
11.3045
11.3588
11.423
1
1.00002
1.00005
1.00015
1.00034
1.00091
1.00209
1.00551
1.01285
1.03298
1.08013
1.20569
1.53671
2.49294
5.31444
11.4416
11.0762
10.6283
10.6543
10.775
10.9438
11.0189
11.0586
11.0788
11.1196
1
1.00002
1.00005
1.00013
1.00031
1.00082
1.00186
1.00501
1.01128
1.03048
1.07065
1.18632
1.47773
2.32876
4.83205
10.8662
10.806
10.5382
10.5073
10.5718
10.7025
10.74
10.7299
10.6789
10.6308
1
1.00001
1.00004
1.00011
1.00029
1.00071
1.00171
1.00439
1.01028
1.02686
1.06372
1.16531
1.42421
2.1725
4.36122
10.0256
10.5902
10.4393
10.3298
10.3555
10.4146
10.398
10.3109
10.0975
9.77009
1
1.00001
1.00004
1.0001
1.00026
1.0006
1.00159
1.00361
1.00973
1.0221
1.0591
1.14093
1.37559
2.01247
3.90025
9.02205
10.4563
10.3382
10.1448
10.1209
10.1006
10.013
9.76606
9.18687
7.68766
1
1.00001
1.00003
1.00008
1.00022
1.00053
1.00132
1.00331
1.00789
1.02026
1.04859
1.1243
1.31667
1.85845
3.42948
7.85679
10.3644
10.2426
9.97676
9.87619
9.79358
9.60994
9.21415
8.42106
6.86262
1
1.00001
1.00003
1.00007
1.00019
1.00043
1.00115
1.00261
1.00703
1.01588
1.04269
1.10018
1.26524
1.69635
2.96069
6.57274
10.2933
10.156
9.82759
9.63466
9.49214
9.23005
8.73944
7.92906
6.68863
1
1.00001
1.00002
1.00006
1.00016
1.00035
1.00095
1.00211
1.00569
1.01292
1.03401
1.08065
1.20929
1.54089
2.49007
5.16853
10.1005
10.0179
9.71065
9.41179
9.20406
8.89917
8.39502
7.65146
6.67102
1
1.00001
1.00002
1.00005
1.00012
1.0003
1.00073
1.00179
1.00449
1.01063
1.02741
1.0654
1.16813
1.4314
2.17794
4.30872
9.43355
9.73988
9.55423
9.20451
8.94493
8.6218
8.14086
7.47806
6.66191
1
1.00001
1.00002
1.00004
1.0001
1.00023
1.00062
1.00139
1.00374
1.00842
1.02259
1.05214
1.13691
1.3427
1.93636
3.61665
8.06211
9.44858
9.33519
9.04557
8.72745
8.38986
7.93939
7.3483
6.64408
1
1
1.00001
1.00003
1.00007
1.0002
1.00045
1.00121
1.0027
1.0073
1.01644
1.04393
1.1035
1.27265
1.71508
2.99572
6.52366
9.25752
9.1841
8.9324
8.55556
8.19711
7.77226
7.2413
6.62249
1
1
1.00001
1.00002
1.00006
1.00015
1.00035
1.00092
1.00207
1.00555
1.01247
1.03347
1.07751
1.20338
1.51941
2.41763
4.87361
8.94943
9.03778
8.85188
8.44629
8.04393
7.63263
7.15124
6.60103
1
1
1.00001
1.00002
1.00005
1.00011
1.00029
1.00065
1.0017
1.00391
1.01011
1.02393
1.06054
1.149
1.38583
2.03055
3.82933
8.13642
8.83766
8.69717
8.34931
7.91793
7.51541
7.0749
6.58095
1
1
1.00001
1.00001
1.00003
1.00008
1.00021
1.00048
1.00129
1.0029
1.00778
1.01752
1.04678
1.1097
1.28901
1.75479
3.08308
6.56938
8.5599
8.49877
8.26613
7.82502
7.42171
7.01066
6.56261
1
1
1
1.00001
1.00002
1.00006
1.00015
1.00037
1.00091
1.00218
1.00557
1.01294
1.03372
1.0796
1.20595
1.52802
2.42736
4.83411
8.18649
8.33639
8.18083
7.80774
7.36593
6.96195
6.54761
1
1
1
1.00001
1.00002
1.00004
1.00011
1.00027
1.00065
1.00161
1.00381
1.00976
1.02275
1.05855
1.14122
1.36559
1.96136
3.57707
7.3254
8.16713
8.06405
7.77935
7.33859
6.93006
6.53656
1
1
1
1.00001
1.00001
1.00003
1.00008
1.00018
1.00048
1.00109
1.00289
1.00648
1.0173
1.03935
1.10356
1.25141
1.67125
2.79635
5.73867
7.91654
7.89877
7.73094
7.34758
6.92203
6.53261
1
1
1
1
1.00001
1.00002
1.00006
1.00013
1.00033
1.00075
1.00198
1.00441
1.01178
1.02647
1.06986
1.16489
1.43199
2.11563
3.88561
7.40183
7.8005
7.67782
7.36623
6.92827
6.53535
1
1
1
1
1.00001
1.00001
1.00004
1.00009
1.00023
1.00052
1.00136
1.0031
1.00803
1.01879
1.04735
1.11526
1.29377
1.76397
3.03973
6.195
7.59085
7.55136
7.35736
6.95206
6.54579
1
1
1
1
1
1.00001
1.00003
1.00006
1.00016
1.00035
1.00093
1.00207
1.00555
1.01237
1.03287
1.07592
1.19725
1.49653
2.31695
4.41436
7.14724
7.40873
7.30266
7.00908
6.57252
1
1
1
1
1
1.00001
1.00002
1.00004
1.0001
1.00024
1.00061
1.0014
1.00364
1.00823
1.02167
1.04962
1.12858
1.31534
1.82455
3.13714
6.16736
7.22016
7.17998
7.002
6.62678
1
1
1
1
1
1
1.00001
1.00003
1.00006
1.00017
1.00038
1.00099
1.00223
1.0058
1.01346
1.03386
1.08191
1.20565
1.52413
2.36953
4.49635
6.82023
7.04833
6.95705
6.70574
1
1
1
1
1
1
1.00001
1.00002
1.00004
1.00011
1.00024
1.00064
1.00142
1.00376
1.00838
1.02217
1.05032
1.13098
1.31777
1.82546
3.09689
5.94612
6.87493
6.84885
6.70204
1
1
1
1
1
1
1
1.00001
1.00003
1.00007
1.00016
1.00041
1.00092
1.00237
1.00545
1.01382
1.03271
1.08151
1.19987
1.51158
2.31395
4.30609
6.47794
6.74035
6.66369
1
1
1
1
1
1
1
1.00001
1.00002
1.00004
1.0001
1.00025
1.00058
1.00147
1.00336
1.00873
1.01963
1.0515
1.11944
1.30757
1.77252
2.95259
5.58939
6.55521
6.55197
1
1
1
1
1
1
1
1
1.00001
1.00003
1.00006
1.00015
1.00036
1.00091
1.00209
1.00537
1.0121
1.0317
1.07254
1.18699
1.46032
2.17996
3.91898
6.1092
6.45452
1
1
1
1
1
1
1
1
1.00001
1.00002
1.00004
1.00009
1.00023
1.00052
1.00136
1.00301
1.00797
1.01775
1.04639
1.10755
1.27517
1.68655
2.72752
5.10339
6.23703
1
1
1
1
1
1
1
1
1
1.00001
1.00002
1.00006
1.00013
1.00033
1.00076
1.00194
1.00437
1.01134
1.02551
1.06615
1.15434
1.39442
1.975
3.37423
5.71322
1
1
1
1
1
1
1
1
1
1.00001
1.00001
1.00003
1.00008
1.00019
1.00048
1.00109
1.00279
1.00639
1.01603
1.03802
1.09359
1.22988
1.5788
2.45076
4.51952
1
1
1
1
1
1
1
1
1
1
1.00001
1.00002
1.00004
1.00012
1.00026
1.00068
1.00152
1.00389
1.00894
1.02229
1.05281
1.13008
1.31852
1.79082
2.90663
1
1
1
1
1
1
1
1
1
1
1
1.00001
1.00003
1.00006
1.00016
1.00038
1.00093
1.00222
1.00526
1.01308
1.03039
1.07658
1.1824
1.4609
2.14101
1
1
1
1
1
1
1
1
1
1
1
1.00001
1.00002
1.00004
1.00009
1.00022
1.00054
1.00123
1.00315
1.00707
1.01829
1.04129
1.1059
1.25125
1.63134
1
1
1
1
1
1
1
1
1
1
1
1
1.00001
1.00002
1.00005
1.00013
1.00028
1.00074
1.00164
1.00422
1.00949
1.02411
1.05551
1.13847
1.33247
1
1
1
1
1
1
1
1
1
1
1
1
1.00001
1.00001
1.00003
1.00007
1.00018
1.00039
1.00099
1.00232
1.00558
1.01358
1.03184
1.07915
1.18897
1
1
1
1
1
1
1
1
1
1
1
1
1
1.00001
1.00002
1.00004
1.0001
1.00022
1.00058
1.00129
1.00329
1.00751
1.01866
1.04405
1.10772
1
1
1
1
1
1
1
1
1
1
1
1
1
1
1.00001
1.00002
1.00006
1.00013
1.00035
1.00077
1.00199
1.00443
1.01137
1.02575
1.065
1
1
1
1
1
1
1
1
1
1
1
1
1
1
1.00001
1.00002
1.00004
1.0001
1.00023
1.00057
1.0013
1.00337
1.00757
1.01978
1.04498
1
1
1
1
1
1
1
1
1
1
1
1
1
1
1.00001
1.00001
1.00003
1.00007
1.00019
1.00045
1.00111
1.00276
1.00655
1.01676
1.03947
1
1
1
1
1
1
1
1
1
1
1
1
1
1
1
1.00001
1.00003
1.00007
1.00016
1.00044
1.001
1.00262
1.0062
1.01572
1.03872
1
1
1
1
1
1
1
1
1
1
1
1
1
1
1
1.00001
1.00003
1.00007
1.00017
1.00039
1.00105
1.00238
1.00645
1.01463
1.03967
1
1
1
1
1
1
1
1
1
1
1
1
1
1
1
1.00001
1.00003
1.00006
1.00017
1.00038
1.00104
1.00234
1.00639
1.01452
1.03928
1
1
1
1
1
1
1
1
1
1
1
1
1
1
1
1.00001
1.00003
1.00007
1.00015
1.00042
1.00094
1.00255
1.00579
1.01569
1.0364
1
1
1
1
1
1
1
1
1
1
1
1
1
1
1
1.00001
1.00003
1.00007
1.00016
1.00039
1.001
1.00235
1.00625
1.01444
1.03855
1
1
1
1
1
1
1
1
1
1
1
1
1
1
1
1.00001
1.00003
1.00006
1.00016
1.00038
1.00102
1.00231
1.00628
1.01427
1.03867
3.3757
2.32732
2.65333
3.71063
3.67351
3.50112
3.39066
3.3385
3.31172
3.25404
3.17832
3.1062
3.04884
2.99741
2.9402
2.879
2.81802
2.76232
2.7143
2.67133
2.62538
2.57431
2.54536
2.53352
2.53064
2.54568
2.59781
2.68963
2.81756
2.96963
3.13332
3.29927
3.46154
3.61642
3.75851
3.88659
4.00161
4.10514
4.20013
4.28449
4.35841
4.42357
4.47989
4.53167
4.57756
4.61419
4.64507
4.67075
4.6918
4.70902
4.72276
4.73348
4.74159
4.74734
4.75089
4.75249
4.75235
4.75135
4.74858
4.7429
4.73485
4.72463
4.712
4.69686
4.67901
4.65848
4.63512
4.60912
4.58038
4.54918
4.51554
4.47971
4.44183
4.40212
4.36075
4.31794
4.27385
4.22868
4.18257
4.1357
4.08818
4.04014
3.99168
3.94291
3.89391
3.84479
3.79567
3.74669
3.69798
3.64969
3.60201
3.55512
3.50926
3.46474
3.42197
3.38149
3.3441
3.31096
3.28368
3.26528
4.18528
3.27927
3.38149
3.71945
3.63451
3.46355
3.37078
3.37269
3.36051
3.27486
3.17603
3.09007
3.03187
2.98974
2.93849
2.87897
2.81801
2.7613
2.7118
2.66837
2.62503
2.57933
2.54559
2.5306
2.52678
2.53914
2.58668
2.67488
2.80173
2.95446
3.11907
3.28572
3.44738
3.60232
3.74449
3.87221
3.98726
4.08909
4.18732
4.27278
4.3468
4.41223
4.46984
4.52274
4.56815
4.60552
4.63675
4.66282
4.68432
4.70195
4.71604
4.72715
4.73556
4.74163
4.74548
4.74736
4.74729
4.74658
4.74434
4.73935
4.73117
4.72112
4.70874
4.69383
4.67617
4.65578
4.63258
4.60667
4.57806
4.54693
4.51338
4.47761
4.43979
4.40013
4.35881
4.31604
4.272
4.22687
4.1808
4.13397
4.08649
4.03849
3.99006
3.94131
3.89233
3.84322
3.79412
3.74515
3.69644
3.64816
3.60047
3.55355
3.50764
3.46301
3.42008
3.37934
3.3417
3.30829
3.28055
3.26171
5.03002
4.0454
3.69193
3.69765
3.64509
3.50992
3.39046
3.35691
3.31239
3.24829
3.16619
3.09035
3.04213
3.00574
2.94288
2.87651
2.81075
2.75157
2.70177
2.66002
2.62083
2.58254
2.5471
2.5262
2.51932
2.52756
2.56877
2.65106
2.7763
2.93027
3.09517
3.26163
3.42045
3.58116
3.7249
3.85419
3.97073
4.0756
4.1728
4.25851
4.33338
4.3996
4.45789
4.5101
4.55538
4.59362
4.62543
4.65203
4.67394
4.69199
4.70645
4.71795
4.72671
4.73317
4.73737
4.73958
4.73959
4.73908
4.73729
4.7331
4.72514
4.71519
4.70304
4.68837
4.67096
4.65077
4.62777
4.60203
4.5736
4.54263
4.50923
4.4736
4.43591
4.39638
4.35517
4.31251
4.26857
4.22353
4.17756
4.13081
4.08342
4.03548
3.98712
3.93841
3.88946
3.84039
3.79131
3.74236
3.69369
3.64542
3.59772
3.5508
3.50482
3.46003
3.41693
3.37603
3.338
3.30396
3.27533
3.2555
5.45099
4.49821
3.95512
3.75098
3.6683
3.54764
3.43027
3.36586
3.3141
3.24595
3.1634
3.08734
3.03207
2.98447
2.93081
2.86964
2.80732
2.75018
2.7015
2.66028
2.61898
2.57872
2.54408
2.51645
2.50326
2.51173
2.5522
2.62702
2.74802
2.89883
3.06453
3.23191
3.3941
3.55201
3.69583
3.82564
3.94282
4.04914
4.14594
4.23279
4.30908
4.37647
4.43572
4.48833
4.53404
4.57317
4.60587
4.63329
4.65594
4.6747
4.68985
4.702
4.71137
4.71841
4.72319
4.7259
4.72628
4.72589
4.72451
4.72116
4.71428
4.70443
4.69245
4.67811
4.66107
4.64125
4.61861
4.59321
4.56513
4.53448
4.50141
4.46609
4.4287
4.38944
4.34851
4.30609
4.26239
4.21757
4.17181
4.12525
4.07803
4.03024
3.98199
3.93337
3.88451
3.83551
3.78654
3.73765
3.6891
3.6409
3.59321
3.54632
3.50039
3.45561
3.41231
3.37099
3.33237
3.29748
3.2677
3.24652
5.68348
4.82121
4.22548
3.88611
3.72613
3.60679
3.48881
3.39574
3.32706
3.2542
3.1722
3.09579
3.0362
2.98455
2.9272
2.86473
2.80247
2.74598
2.69737
2.65493
2.61374
2.57525
2.54303
2.51924
2.50924
2.5155
2.5485
2.62468
2.73982
2.88123
3.03288
3.19504
3.35567
3.51079
3.65475
3.78606
3.90499
4.01306
4.11097
4.19928
4.2774
4.34643
4.40697
4.46036
4.50674
4.54675
4.58049
4.60893
4.63254
4.65217
4.66816
4.6811
4.69123
4.69894
4.70435
4.70763
4.70844
4.70815
4.70706
4.70438
4.6987
4.6892
4.67741
4.66335
4.64671
4.62733
4.60518
4.58027
4.5527
4.52256
4.49
4.45518
4.41827
4.37947
4.33898
4.29698
4.25368
4.20923
4.16382
4.11757
4.07064
4.02308
3.97503
3.92657
3.87787
3.82903
3.78026
3.73141
3.6831
3.63517
3.58782
3.54098
3.49499
3.45007
3.40654
3.36479
3.32553
3.28971
3.25869
3.23587
5.83163
5.06926
4.47582
4.07916
3.84172
3.68539
3.55477
3.44662
3.35772
3.27649
3.19487
3.11679
3.04897
2.98977
2.93063
2.86918
2.80785
2.75147
2.70225
2.65905
2.61941
2.58433
2.55656
2.53905
2.53757
2.5474
2.5833
2.66021
2.7617
2.88016
3.01325
3.14956
3.29863
3.44962
3.59539
3.73114
3.8541
3.96484
4.06445
4.15431
4.23443
4.30559
4.36816
4.4232
4.47106
4.5125
4.54775
4.57763
4.6026
4.62346
4.6406
4.65458
4.66566
4.67421
4.68035
4.68422
4.68546
4.68523
4.68434
4.68209
4.6773
4.66836
4.65683
4.643
4.62673
4.60786
4.58629
4.56204
4.53516
4.50573
4.4739
4.43981
4.40363
4.36553
4.32572
4.28436
4.24167
4.19778
4.1529
4.10713
4.0606
4.01337
3.9656
3.91739
3.86891
3.82031
3.77184
3.72374
3.67567
3.62796
3.58075
3.53404
3.48808
3.44305
3.3993
3.35717
3.31729
3.28056
3.24832
3.22376
5.93078
5.25849
4.69158
4.26736
3.97644
3.77719
3.62567
3.50286
3.40098
3.31155
3.22691
3.14589
3.07218
3.00484
2.94242
2.88138
2.82097
2.76436
2.71425
2.67168
2.63718
2.61118
2.59503
2.59523
2.6033
2.63142
2.69265
2.76488
2.83619
2.91655
3.00978
3.11249
3.22005
3.35229
3.49835
3.64513
3.77979
3.89937
4.00463
4.09794
4.18051
4.25398
4.31899
4.37636
4.4265
4.47014
4.50757
4.5395
4.56634
4.58886
4.60749
4.6228
4.63505
4.6446
4.65155
4.65607
4.65776
4.65757
4.65677
4.65477
4.6505
4.64207
4.63082
4.61721
4.60127
4.58291
4.562
4.5385
4.51246
4.48393
4.45305
4.41991
4.3847
4.34756
4.30868
4.26821
4.22636
4.18327
4.13912
4.09398
4.04799
4.00123
3.95385
3.90605
3.85815
3.81018
3.76224
3.71442
3.66677
3.61936
3.57235
3.52581
3.47994
3.43491
3.39101
3.34857
3.30816
3.2706
3.23725
3.211
5.99909
5.40233
4.87101
4.44108
4.1178
3.88263
3.70629
3.56646
3.45171
3.35309
3.26321
3.17892
3.10095
3.02992
2.96452
2.90222
2.84188
2.78536
2.73619
2.69717
2.67166
2.66002
2.66197
2.67405
2.70968
2.78824
2.87839
2.9336
2.96871
3.00382
3.04346
3.10076
3.16245
3.23672
3.35775
3.51046
3.66151
3.80034
3.92176
4.02615
4.11526
4.19281
4.26081
4.32064
4.37334
4.41965
4.4599
4.49455
4.52392
4.54867
4.56927
4.58622
4.59987
4.61055
4.61838
4.62353
4.6256
4.62542
4.62464
4.62267
4.61847
4.61026
4.59923
4.58582
4.57017
4.55224
4.53196
4.50926
4.48415
4.45666
4.4269
4.39495
4.36095
4.32501
4.28732
4.248
4.20725
4.16518
4.12196
4.07763
4.03231
3.98615
3.93953
3.89255
3.84537
3.79802
3.75062
3.70321
3.65595
3.60887
3.56215
3.51587
3.47019
3.42527
3.38136
3.33875
3.29796
3.25972
3.22546
3.19773
6.04738
5.51237
5.01845
4.59661
4.25782
3.99678
3.79634
3.63863
3.50971
3.40138
3.30481
3.21658
3.13518
3.06034
2.99177
2.92753
2.86731
2.81193
2.76579
2.73409
2.72413
2.72747
2.74306
2.78649
2.88409
3.03664
3.13225
3.1599
3.15829
3.14985
3.12943
3.13007
3.1437
3.18123
3.24724
3.35219
3.49446
3.64761
3.79336
3.92091
4.02827
4.11774
4.19289
4.25704
4.3128
4.36178
4.40499
4.44261
4.47494
4.50252
4.52568
4.54475
4.56019
4.57221
4.58107
4.5869
4.58933
4.58915
4.58835
4.58629
4.58192
4.57363
4.56267
4.54938
4.53392
4.51634
4.49659
4.47465
4.45048
4.42411
4.39559
4.36498
4.33238
4.29787
4.26161
4.22369
4.18429
4.14349
4.10142
4.05803
4.01369
3.9686
3.92298
3.87691
3.83052
3.78385
3.73706
3.69019
3.64341
3.59678
3.55047
3.50453
3.45916
3.41445
3.37066
3.32801
3.28699
3.24825
3.21328
3.18431
6.08326
5.59869
5.14009
4.73273
4.39008
4.1129
3.89283
3.71738
3.57452
3.45534
3.35149
3.2581
3.17377
3.09497
3.02385
2.95777
2.89774
2.84488
2.80445
2.78859
2.79183
2.80733
2.85121
2.95193
3.1589
3.35723
3.43061
3.42603
3.40275
3.34501
3.24877
3.18205
3.1653
3.17384
3.20337
3.26135
3.34599
3.46392
3.61322
3.76119
3.89588
4.01031
4.10409
4.18043
4.24365
4.29727
4.34368
4.38433
4.41939
4.45003
4.47621
4.49786
4.51568
4.52935
4.53958
4.54622
4.54914
4.54896
4.54811
4.54592
4.5413
4.53275
4.52165
4.50832
4.49292
4.47553
4.45619
4.43487
4.41158
4.3863
4.35906
4.32986
4.29879
4.26588
4.23125
4.19495
4.15714
4.11783
4.07703
4.035
3.992
3.94818
3.9037
3.85862
3.81312
3.76725
3.72119
3.675
3.62885
3.5828
3.53702
3.49156
3.4466
3.40224
3.35868
3.31615
3.27508
3.23602
3.20057
3.17065
6.11087
5.66753
5.24084
4.8513
4.51152
4.22604
3.99174
3.80099
3.64457
3.51412
3.40231
3.30357
3.21499
3.13297
3.05991
2.9926
2.93347
2.88471
2.85752
2.85927
2.87166
2.91031
3.00388
3.204
3.53458
3.73151
3.75098
3.73175
3.67241
3.54524
3.39894
3.28979
3.22435
3.20288
3.20791
3.2297
3.27666
3.34089
3.43175
3.56274
3.70802
3.84822
3.97103
4.0729
4.15502
4.221
4.27481
4.31992
4.35851
4.39205
4.42103
4.44538
4.46576
4.48159
4.49359
4.50142
4.50521
4.50505
4.50419
4.50195
4.49717
4.48827
4.47689
4.46336
4.44785
4.43048
4.41135
4.39049
4.36792
4.34361
4.31757
4.28978
4.26027
4.22904
4.19616
4.16165
4.1256
4.08791
4.04878
4.00839
3.96696
3.92456
3.88138
3.83747
3.79304
3.74815
3.703
3.65766
3.6123
3.56697
3.52186
3.47701
3.4326
3.3887
3.34553
3.30325
3.2623
3.22315
3.18744
3.15684
6.13247
5.72266
5.32436
4.95338
4.62097
4.333
4.0898
3.88707
3.7186
3.5774
3.45709
3.35217
3.259
3.1747
3.09912
3.0314
2.9753
2.93439
2.93179
2.94016
2.97128
3.05177
3.22997
3.59535
3.96843
4.10364
4.09211
4.04352
3.92883
3.7378
3.5661
3.43215
3.33627
3.27537
3.24532
3.24699
3.25931
3.29091
3.33615
3.4086
3.51065
3.64538
3.78417
3.91428
4.02628
4.11722
4.18892
4.24547
4.29104
4.32882
4.3608
4.38794
4.41059
4.42861
4.44256
4.45197
4.45738
4.45732
4.4566
4.4545
4.44989
4.44076
4.42905
4.41519
4.39941
4.38188
4.36277
4.34215
4.32009
4.29655
4.27154
4.24502
4.217
4.18742
4.15632
4.12368
4.08948
4.05364
4.01641
3.97787
3.93818
3.8974
3.85572
3.8132
3.77005
3.72636
3.68232
3.638
3.59359
3.54916
3.50487
3.46077
3.41704
3.37375
3.3311
3.28923
3.24857
3.2095
3.17375
3.14271
6.1497
5.76801
5.39456
5.04142
4.71891
4.43259
4.18476
3.97365
3.79516
3.64427
3.51552
3.40405
3.30609
3.21894
3.14197
3.07619
3.025
3.00787
3.01394
3.03893
3.10674
3.26215
3.58918
4.11441
4.41629
4.4416
4.41301
4.32679
4.14406
3.92867
3.74492
3.59707
3.48106
3.39319
3.33116
3.29219
3.28067
3.28509
3.30205
3.33641
3.38564
3.46262
3.57665
3.71006
3.84374
3.96433
4.06519
4.14546
4.20772
4.25606
4.29423
4.32506
4.35022
4.37062
4.38625
4.39743
4.4047
4.4057
4.40515
4.40331
4.3991
4.39055
4.3786
4.36435
4.34821
4.3304
4.31115
4.29057
4.26877
4.24574
4.22152
4.19604
4.1693
4.14122
4.11181
4.081
4.04868
4.01482
3.97962
3.94306
3.90529
3.86633
3.82637
3.78548
3.74386
3.70159
3.65887
3.61579
3.57253
3.52917
3.48586
3.44269
3.39979
3.35727
3.3153
3.27402
3.23383
3.19506
3.15949
3.12826
6.166
5.80591
5.45423
5.11825
4.80656
4.52493
4.27554
4.05912
3.87302
3.71374
3.57722
3.45919
3.3565
3.26658
3.18988
3.12797
3.09432
3.09758
3.11619
3.17161
3.30374
3.58565
4.15334
4.63181
4.77855
4.7617
4.69847
4.55386
4.32569
4.11182
3.92839
3.7743
3.64536
3.53861
3.45225
3.38477
3.33804
3.3076
3.30762
3.31438
3.33241
3.36786
3.4244
3.51372
3.63432
3.76424
3.88971
4.00011
4.09052
4.16076
4.21384
4.25372
4.28407
4.30744
4.32541
4.33813
4.34698
4.34996
4.3496
4.34819
4.34472
4.33749
4.32564
4.3112
4.29476
4.27666
4.25717
4.23646
4.21469
4.1919
4.16816
4.14341
4.11766
4.09083
4.0629
4.03373
4.00322
3.97135
3.93819
3.90371
3.868
3.83107
3.79306
3.75404
3.7142
3.6736
3.63246
3.59085
3.54896
3.50687
3.46475
3.42267
3.38079
3.33919
3.29807
3.25754
3.21801
3.17975
3.14458
3.11339
6.1829
5.8397
5.50682
5.187
4.88644
4.61043
4.36238
4.14265
3.95114
3.78507
3.64173
3.51774
3.41074
3.31908
3.24569
3.1923
3.19268
3.20535
3.25016
3.3639
3.61504
4.13307
4.77116
5.06749
5.06584
5.03016
4.93032
4.72519
4.49578
4.29097
4.11258
3.95652
3.81925
3.69885
3.59423
3.50538
3.43291
3.37646
3.33842
3.31952
3.32171
3.33113
3.35232
3.39293
3.45734
3.55919
3.67979
3.80558
3.92292
4.023
4.10229
4.16188
4.20523
4.23634
4.25867
4.27416
4.28458
4.28979
4.28973
4.28891
4.28646
4.28098
4.26997
4.25577
4.23934
4.22109
4.20139
4.18046
4.15855
4.13575
4.11218
4.08783
4.06272
4.03678
4.01
3.9822
3.95328
3.92323
3.89204
3.85963
3.82605
3.79128
3.75543
3.71851
3.6807
3.64205
3.60274
3.56285
3.52258
3.48198
3.44125
3.40046
3.35979
3.3193
3.27923
3.23965
3.20101
3.1635
3.12897
3.09809
6.20552
5.87305
5.55521
5.24939
4.95954
4.6898
4.44445
4.22392
4.02874
3.85776
3.70879
3.58001
3.46987
3.37977
3.31241
3.29381
3.30351
3.34086
3.43958
3.66232
4.12783
4.83881
5.26253
5.34847
5.32466
5.24904
5.08565
4.86497
4.65528
4.46575
4.29446
4.13822
3.99528
3.86494
3.74719
3.64233
3.55071
3.47309
3.4102
3.36364
3.33216
3.32546
3.3286
3.33963
3.36509
3.41221
3.4882
3.59591
3.71606
3.83541
3.94264
4.03093
4.09845
4.14714
4.18076
4.20311
4.21724
4.2249
4.22652
4.22599
4.22418
4.21991
4.2111
4.19774
4.18179
4.16376
4.14406
4.12299
4.10088
4.07791
4.05427
4.03
4.00517
3.97974
3.95372
3.92692
3.89926
3.87073
3.84128
3.81081
3.77933
3.74676
3.71318
3.67855
3.64301
3.60656
3.56936
3.53148
3.49308
3.45424
3.41514
3.37587
3.33662
3.29747
3.25866
3.22027
3.18276
3.14627
3.11263
3.0824
6.24214
5.90856
5.6008
5.30703
5.0274
4.76519
4.52302
4.30335
4.10618
3.93157
3.77862
3.64667
3.53677
3.45137
3.41136
3.41767
3.4475
3.53215
3.72875
4.14359
4.89127
5.42965
5.58956
5.57708
5.52538
5.4037
5.19892
4.99619
4.80881
4.63442
4.47011
4.31473
4.16812
4.03085
3.90363
3.78705
3.68173
3.5882
3.50693
3.43912
3.38472
3.34656
3.32455
3.32489
3.32805
3.34099
3.37095
3.4262
3.51501
3.62351
3.73944
3.85016
3.94609
4.02218
4.07801
4.11608
4.14017
4.15371
4.15953
4.15931
4.1581
4.15495
4.14829
4.13653
4.12165
4.10433
4.08504
4.06414
4.042
4.01887
3.99504
3.97061
3.94574
3.92045
3.89477
3.86858
3.84176
3.81435
3.78633
3.75755
3.72799
3.69755
3.66625
3.63399
3.60085
3.5668
3.53195
3.49632
3.46007
3.42326
3.38608
3.34861
3.31105
3.2735
3.23622
3.19929
3.16318
3.12803
3.0956
3.06642
6.2995
5.95188
5.64661
5.36198
5.09167
4.83655
4.59875
4.38058
4.18302
4.00659
3.85182
3.71987
3.61586
3.54824
3.55054
3.57288
3.64489
3.81908
4.18972
4.93084
5.55977
5.80362
5.80009
5.76697
5.67888
5.50097
5.3077
5.12739
4.95817
4.79547
4.63701
4.48309
4.33448
4.19273
4.05895
3.93406
3.81871
3.71343
3.61868
3.5349
3.46307
3.40326
3.35754
3.32608
3.31448
3.31448
3.31865
3.33499
3.37177
3.43768
3.53094
3.6381
3.74774
3.84875
3.93308
3.99708
4.04144
4.06903
4.08413
4.08831
4.08784
4.08594
4.08145
4.07222
4.05863
4.0423
4.02385
4.00356
3.98178
3.95873
3.93478
3.91013
3.88504
3.85962
3.83393
3.8078
3.78148
3.75481
3.7278
3.70036
3.67243
3.64389
3.61472
3.58477
3.55407
3.52252
3.49018
3.45703
3.4232
3.38871
3.35375
3.31838
3.28283
3.2472
3.21175
3.17662
3.14226
3.10886
3.07798
3.05036
6.37988
6.01033
5.69741
5.41718
5.1543
4.90573
4.67255
4.45681
4.2601
4.08391
3.93024
3.80471
3.71305
3.69969
3.71684
3.77944
3.93835
4.28288
4.97903
5.66514
5.98639
6.01051
5.98602
5.91404
5.7639
5.58623
5.41781
5.2585
5.10323
4.94903
4.79511
4.64244
4.49308
4.34859
4.21055
4.07978
3.95722
3.84328
3.73848
3.64309
3.55756
3.48241
3.41829
3.36629
3.32736
3.30612
3.29657
3.29645
3.30186
3.32186
3.36555
3.44006
3.53414
3.63863
3.74117
3.83169
3.90395
3.95597
3.98929
4.00672
4.01238
4.0118
4.00946
4.00395
3.99276
3.97776
3.96032
3.9409
3.91981
3.8972
3.87344
3.84876
3.82351
3.79787
3.77192
3.74566
3.71937
3.69299
3.66658
3.64004
3.61335
3.58635
3.55902
3.53116
3.50275
3.47365
3.44388
3.41334
3.38212
3.35021
3.31777
3.28485
3.25167
3.21833
3.18512
3.15221
3.12002
3.08886
3.05997
3.03458
6.45347
6.08376
5.75801
5.47552
5.21683
4.97376
4.74526
4.53268
4.33848
4.16532
4.01952
3.90763
3.86787
3.88148
3.93684
4.08339
4.40716
5.06692
5.78339
6.15762
6.21201
6.19202
6.12886
5.99507
5.83046
5.67599
5.53093
5.38789
5.24256
5.09405
4.94335
4.79238
4.64315
4.49744
4.35664
4.22201
4.09425
3.97403
3.86172
3.75762
3.66185
3.57506
3.49736
3.42953
3.37213
3.32716
3.29414
3.28036
3.26771
3.26831
3.27623
3.30037
3.35177
3.43152
3.52573
3.62513
3.7192
3.79898
3.85938
3.89971
3.92228
3.931
3.93066
3.92838
3.92268
3.9109
3.89496
3.87633
3.85588
3.83387
3.81063
3.78629
3.76118
3.73544
3.70922
3.68267
3.65619
3.62979
3.6036
3.57755
3.55165
3.52575
3.49983
3.4737
3.44729
3.42044
3.39312
3.36519
3.33669
3.30756
3.27791
3.24777
3.21734
3.18672
3.15621
3.12602
3.09654
3.06827
3.04189
3.01959
6.44821
6.19677
5.8415
5.54215
5.28142
5.04175
4.81769
4.60947
4.42024
4.25602
4.12563
4.06095
4.07062
4.11887
4.25471
4.56189
5.19277
5.93095
6.33701
6.41397
6.39592
6.33562
6.20669
6.04968
5.90567
5.7739
5.64509
5.51253
5.37387
5.22974
5.08201
4.93292
4.78447
4.63849
4.49641
4.35932
4.22822
4.10335
3.98542
3.87444
3.77109
3.6753
3.58742
3.50764
3.43652
3.37473
3.32332
3.28296
3.25787
3.24094
3.23005
3.23205
3.24346
3.27221
3.33137
3.41137
3.50453
3.5982
3.68285
3.75129
3.80027
3.82972
3.84443
3.84447
3.84289
3.83797
3.8273
3.81024
3.79031
3.76879
3.74615
3.72243
3.69779
3.6722
3.64589
3.61922
3.59254
3.56598
3.53976
3.51385
3.48833
3.46308
3.43811
3.41323
3.38841
3.36346
3.33834
3.31286
3.28704
3.26075
3.23407
3.207
3.17968
3.15225
3.12496
3.09812
3.07201
3.04743
3.02424
3.0061
6.40757
6.25225
5.93326
5.61842
5.35027
5.1112
4.89133
4.68922
4.51037
4.36431
4.27683
4.28296
4.32534
4.45335
4.75003
5.36333
6.11479
6.54258
6.63192
6.61232
6.54788
6.41141
6.25409
6.11575
5.99394
5.87754
5.75798
5.63133
5.49697
5.35634
5.21143
5.06453
4.91746
4.77203
4.6295
4.49105
4.35742
4.2293
4.10717
3.99129
3.88198
3.77923
3.68342
3.59448
3.51292
3.43887
3.37312
3.31624
3.26948
3.23502
3.21203
3.19241
3.1835
3.18713
3.2019
3.23561
3.30242
3.38175
3.47057
3.5574
3.63286
3.69068
3.72929
3.74969
3.75508
3.75404
3.74996
3.74065
3.72308
3.70272
3.68056
3.65727
3.63305
3.60783
3.58181
3.55533
3.52869
3.50207
3.47575
3.44979
3.42433
3.39934
3.37487
3.35078
3.32709
3.3036
3.28029
3.25697
3.23363
3.21011
3.18646
3.16262
3.13875
3.11496
3.09148
3.06873
3.04677
3.02686
3.00768
2.99501
6.31174
6.23833
6.04585
5.71568
5.42967
5.1853
4.96874
4.77684
4.61802
4.51196
4.51535
4.55384
4.67834
4.97302
5.58496
6.3457
6.78197
6.86973
6.84677
6.77391
6.62115
6.45507
6.3162
6.19965
6.09201
5.98308
5.86741
5.74354
5.61186
5.47406
5.33186
5.18737
5.04209
4.89779
4.75547
4.61648
4.48134
4.35104
4.22575
4.10607
3.99202
3.88392
3.7818
3.68579
3.59609
3.51274
3.43625
3.36685
3.30538
3.25283
3.20995
3.18028
3.15418
3.13404
3.13234
3.13765
3.15522
3.19378
3.2616
3.34123
3.42593
3.50556
3.57157
3.61941
3.64797
3.66089
3.66056
3.65784
3.65049
3.63516
3.61451
3.5914
3.56717
3.54218
3.5167
3.49076
3.46453
3.43815
3.41188
3.38588
3.36036
3.33538
3.31107
3.28739
3.26438
3.24192
3.21999
3.19846
3.17727
3.15633
3.13562
3.11511
3.09493
3.07523
3.05621
3.03833
3.02148
3.00728
2.99332
2.98727
6.20332
6.18411
6.07624
5.83393
5.52648
5.26931
5.05571
4.88371
4.76197
4.76375
4.8015
4.92836
5.23119
5.86037
6.63257
7.06537
7.13912
7.11082
7.02317
6.84211
6.66106
6.51727
6.40126
6.29787
6.19549
6.08786
5.97254
5.84941
5.71932
5.58373
5.44405
5.30194
5.1587
5.01581
4.87425
4.73524
4.59935
4.46753
4.33996
4.21738
4.09964
3.98733
3.88016
3.7786
3.68237
3.59186
3.50701
3.42822
3.35579
3.29024
3.23264
3.18299
3.14577
3.11347
3.08846
3.07076
3.07198
3.08011
3.10168
3.14682
3.21417
3.2925
3.37212
3.44386
3.50051
3.53871
3.55962
3.56385
3.56241
3.55718
3.54545
3.52466
3.50092
3.47616
3.45097
3.42551
3.39984
3.37401
3.34811
3.32231
3.29683
3.27185
3.24756
3.22405
3.20139
3.1796
3.15865
3.13851
3.11914
3.10049
3.08257
3.06541
3.04916
3.03398
3.02014
3.00783
2.99736
2.98972
2.98299
2.98334
5.91745
6.10449
6.05501
5.91526
5.63148
5.36753
5.16587
5.02612
5.02525
5.06376
5.19837
5.52188
6.19309
6.98226
7.40302
7.4471
7.40949
7.29913
7.07704
6.87956
6.72683
6.6081
6.50465
6.40433
6.30056
6.19045
6.07341
5.94976
5.82044
5.6864
5.54884
5.40883
5.26762
5.12622
4.98575
4.84707
4.71099
4.57817
4.4491
4.32423
4.20374
4.08798
3.97685
3.87072
3.7693
3.67304
3.58159
3.49554
3.41468
3.33966
3.2707
3.20856
3.15415
3.1089
3.07278
3.03978
3.015
3.00381
3.00634
3.01699
3.04229
3.09372
3.16037
3.23612
3.31027
3.37387
3.42156
3.45073
3.46391
3.46343
3.46025
3.45177
3.43423
3.4109
3.3857
3.36016
3.33474
3.30939
3.28405
3.25875
3.23365
3.20894
3.18482
3.1615
3.1391
3.11775
3.09752
3.07847
3.06062
3.04402
3.02876
3.01499
3.00291
2.9928
2.98483
2.97852
2.97577
2.97616
2.97835
2.9854
5.23382
5.94184
5.98198
5.91556
5.75173
5.50082
5.31503
5.29804
5.34048
5.48937
5.84592
6.58259
7.39256
7.80292
7.80069
7.74728
7.60419
7.34386
7.12243
6.95497
6.82791
6.71873
6.61592
6.5119
6.40332
6.28913
6.16945
6.04469
5.9155
5.7825
5.64654
5.50834
5.36892
5.22905
5.08975
4.9517
4.81577
4.68246
4.5524
4.42587
4.30329
4.18476
4.07053
3.9606
3.85508
3.75403
3.65743
3.56549
3.47814
3.39576
3.3184
3.24665
3.18083
3.12206
3.07071
3.02979
2.99083
2.95964
2.93613
2.93376
2.9376
2.95045
2.97906
3.03506
3.10169
3.17375
3.24153
3.29705
3.33549
3.35747
3.36187
3.36033
3.35481
3.34244
3.3202
3.29577
3.27041
3.24506
3.21994
3.19516
3.17069
3.1466
3.12301
3.10012
3.07814
3.05729
3.03775
3.01967
3.00324
2.98857
2.97609
2.96586
2.95865
2.95333
2.95289
2.95357
2.95629
2.96324
2.97736
3.00196
3.77609
5.52038
5.88855
5.88199
5.82212
5.6799
5.60433
5.64749
5.8109
6.20947
7.03105
7.8697
8.24231
8.22745
8.13615
7.92409
7.63696
7.39221
7.20635
7.06439
6.94677
6.83772
6.7294
6.61833
6.50333
6.38429
6.26141
6.13499
6.00531
5.87276
5.7378
5.60099
5.46301
5.32455
5.18638
5.04915
4.91358
4.78018
4.6495
4.52186
4.39768
4.27705
4.16027
4.04731
3.93839
3.83341
3.73262
3.63586
3.54335
3.45503
3.37125
3.29201
3.21792
3.14912
3.0867
3.03051
2.9837
2.94123
2.90309
2.87488
2.85766
2.85863
2.86451
2.88074
2.91526
2.97209
3.03835
3.10644
3.16715
3.21447
3.24426
3.25884
3.25843
3.25544
3.24728
3.23016
3.20697
3.18181
3.15667
3.13214
3.10826
3.08492
3.06217
3.0401
3.01893
2.99891
2.9803
2.96341
2.94858
2.9361
2.927
2.92049
2.91941
2.92004
2.92273
2.92926
2.94289
2.96749
2.98962