/*--------------------------------*- C++ -*----------------------------------*\
  =========                 |
  \\      /  F ield         | OpenFOAM: The Open Source CFD Toolbox
   \\    /   O peration     | Website:  https://openfoam.org
    \\  /    A nd           | Version:  10
     \\/     M anipulation  |
\*---------------------------------------------------------------------------*/
FoamFile
{
    format      ascii;
    class       surfaceScalarField;
    location    "6";
    object      phi;
}
// * * * * * * * * * * * * * * * * * * * * * * * * * * * * * * * * * * * * * //

dimensions      [1 0 -1 0 0 0 0];

internalField   nonuniform List<scalar> 
10325
(
0.00840003
2.57229e-10
0.00840004
4.34192e-11
0.00839999
4.11543e-09
0.00840008
3.7073e-10
0.00839975
2.91121e-08
0.0084006
2.46547e-09
0.00839801
1.82461e-07
0.00840407
1.06626e-08
0.00838929
1.04939e-06
0.00841331
3.90793e-07
0.00837392
4.88264e-06
0.00839914
7.86949e-06
0.0083356
3.24846e-05
0.00822739
0.000115212
0.00760113
0.000592983
0.00695294
0.000656557
0.00632814
0.00062788
0.00567884
0.000649684
0.00499899
0.000680388
0.0042817
0.000718454
0.00351674
0.000766583
0.00270384
0.000814701
0.00184779
0.000857724
0.000947952
0.000901123
0.000948967
0.00840003
1.44632e-10
0.00840002
1.18192e-09
0.00840004
3.28035e-09
0.00839997
1.1414e-08
0.00840015
2.53485e-08
0.00839936
7.43239e-08
0.00840138
1.68035e-07
0.00839561
4.42291e-07
0.00840704
1.08287e-06
0.00838411
2.66123e-06
0.00840897
7.16137e-06
0.00836835
1.97135e-05
0.00835652
6.31058e-05
0.00821744
0.000234136
0.00760281
0.00117952
0.00694129
0.00132674
0.00632477
0.00124776
0.00568505
0.00128981
0.0050103
0.0013557
0.00428646
0.00144349
0.0035136
0.00154109
0.00269327
0.00163686
0.0018266
0.00172609
0.00092117
0.00180787
0.00187118
0.00840003
1.8732e-10
0.00840003
1.86976e-09
0.00840001
4.68646e-09
0.00840004
1.86218e-08
0.00839997
3.29894e-08
0.00839983
1.30593e-07
0.00840019
1.84041e-07
0.00839798
8.4699e-07
0.00840142
1.13096e-06
0.00839276
4.97878e-06
0.00839662
9.10996e-06
0.00838104
3.12247e-05
0.00835092
9.19072e-05
0.00822928
0.000345875
0.0076566
0.00172146
0.00698509
0.00200719
0.0063698
0.00186648
0.00573741
0.00192267
0.00506881
0.00202491
0.00434616
0.00216745
0.00356864
0.00232038
0.00273974
0.00246743
0.00185936
0.00260821
0.000936448
0.00273219
0.00280867
0.00840003
4.28407e-10
0.00840002
1.69048e-09
0.00840006
8.40802e-09
0.00839995
1.64435e-08
0.00840008
6.24375e-08
0.00839988
1.08478e-07
0.00839952
4.0111e-07
0.00840016
6.76517e-07
0.00839719
2.42893e-06
0.00839855
4.61832e-06
0.00839415
1.4631e-05
0.00837983
3.69847e-05
0.00835536
0.000121335
0.00825238
0.000437656
0.00776939
0.0021722
0.00709173
0.00269488
0.00647244
0.00248929
0.00584479
0.00255068
0.00518321
0.00268707
0.00446289
0.00288881
0.00368402
0.00310096
0.00284618
0.00330758
0.00194437
0.00351195
0.000985131
0.00369271
0.00379492
0.00840003
3.73106e-10
0.00840001
2.3495e-09
0.00840007
8.10026e-09
0.0083999
2.31002e-08
0.00840035
6.21399e-08
0.00839909
1.52678e-07
0.00840223
4.05808e-07
0.00839467
9.3853e-07
0.00841127
2.53534e-06
0.00837782
5.97551e-06
0.00842329
1.63323e-05
0.00836028
4.43554e-05
0.00838305
0.000139629
0.00828754
0.000502653
0.00797542
0.00245552
0.0072888
0.0033917
0.00665009
0.00313181
0.00601915
0.00318252
0.00536354
0.00334381
0.00464899
0.0036053
0.00386605
0.00388607
0.00301329
0.00416267
0.00208144
0.00444569
0.00106764
0.00470834
0.00486412
0.00840003
3.97282e-10
0.00840001
2.5657e-09
0.00840005
8.60591e-09
0.00839997
2.49685e-08
0.00840018
6.39605e-08
0.00839948
1.6646e-07
0.00840133
4.03574e-07
0.00839622
1.05309e-06
0.00840805
2.53662e-06
0.00838341
6.67056e-06
0.00841894
1.692e-05
0.00837274
4.74582e-05
0.0083985
0.000145752
0.00835473
0.00052001
0.00832553
0.00245572
0.00763044
0.00409626
0.00693694
0.00382969
0.0062891
0.00383109
0.00563215
0.00400133
0.00491787
0.00432053
0.0041308
0.00467477
0.00325854
0.00503701
0.00228598
0.0054205
0.00119462
0.00580146
0.00606033
0.00840003
3.23972e-10
0.00840002
2.4979e-09
0.00840006
7.48549e-09
0.00839997
2.44547e-08
0.00840021
5.55027e-08
0.00839949
1.65293e-07
0.0084015
3.51827e-07
0.00839643
1.03815e-06
0.008409
2.20719e-06
0.00838417
6.46202e-06
0.00842555
1.48873e-05
0.00838056
4.3303e-05
0.00843798
0.000127024
0.00848669
0.000442012
0.00895089
0.0019645
0.00824676
0.00480715
0.00739388
0.00468639
0.00670377
0.00452264
0.00603075
0.00467589
0.00530754
0.00504532
0.00450322
0.00548149
0.0036049
0.00593779
0.00258232
0.00644554
0.00139335
0.00699227
0.00745526
0.00840003
3.86822e-10
0.00840002
2.06164e-09
0.00840008
7.97353e-09
0.00839993
2.02427e-08
0.00840028
5.98605e-08
0.00839954
1.31435e-07
0.00840133
3.82065e-07
0.00839755
7.97921e-07
0.00840566
2.34335e-06
0.00839118
4.96511e-06
0.00841761
1.43122e-05
0.00838795
3.55045e-05
0.00844133
0.000107659
0.00850318
0.000356334
0.00892528
0.00153019
0.00852021
0.00520395
0.00768828
0.00551531
0.00707769
0.00513324
0.00642967
0.0053246
0.00573761
0.00573865
0.00494988
0.00627119
0.00404582
0.00684402
0.00299406
0.00749931
0.00170643
0.00828178
0.00916349
0.00840003
3.15147e-10
0.00840002
2.19148e-09
0.00840005
6.7623e-09
0.00839998
2.11064e-08
0.00840015
5.06276e-08
0.00839963
1.36186e-07
0.00840114
3.28484e-07
0.00839716
8.25101e-07
0.00840723
2.05874e-06
0.00838659
5.03259e-06
0.00842222
1.30022e-05
0.00837925
3.39947e-05
0.00842554
9.91131e-05
0.00842933
0.000325818
0.00860889
0.00134611
0.00832981
0.00546262
0.00796315
0.00587138
0.0073596
0.00573787
0.00673513
0.0059493
0.00613485
0.00633957
0.00542155
0.00698562
0.00459051
0.00767683
0.00359786
0.00849387
0.00222769
0.00965368
0.0113928
0.00840003
2.62514e-10
0.00840003
2.31928e-09
0.00840001
6.26704e-09
0.00840005
2.27229e-08
0.00839999
4.65871e-08
0.00839998
1.5065e-07
0.00840019
2.89859e-07
0.00839895
9.30527e-07
0.00840195
1.78712e-06
0.00839496
5.61213e-06
0.00840593
1.18859e-05
0.00839338
3.51578e-05
0.00840371
9.50414e-05
0.00840309
0.000316412
0.00850586
0.00123788
0.00832566
0.00562074
0.00797017
0.00622391
0.00751038
0.00619827
0.00703845
0.00642205
0.00651858
0.00686054
0.00595398
0.00755112
0.00529606
0.00833576
0.00440137
0.00938986
0.00309954
0.0109573
0.0144938
0.00840003
3.87595e-10
0.00840004
1.90036e-09
0.00840001
7.85446e-09
0.00840006
1.86591e-08
0.00839991
5.80982e-08
0.00840034
1.22569e-07
0.00839909
3.69762e-07
0.00840234
7.48088e-07
0.00839433
2.27574e-06
0.00841204
4.71981e-06
0.00837865
1.3881e-05
0.00842475
3.30822e-05
0.00837279
9.82117e-05
0.00841546
0.000309443
0.00845026
0.00117423
0.00844455
0.00560662
0.00805377
0.00661536
0.00765987
0.0065933
0.00732018
0.00676176
0.00693054
0.0072502
0.00655516
0.00792692
0.00610944
0.00878245
0.00568084
0.0098198
0.00562573
0.0110136
0.0114428
0.00867773
0.00840003
2.9321e-10
0.00840003
2.24636e-09
0.00840001
6.76955e-09
0.00840007
2.19925e-08
0.00839995
5.04018e-08
0.00840011
1.47942e-07
0.00839992
3.14073e-07
0.00839961
9.24189e-07
0.00840043
1.93598e-06
0.00839796
5.64624e-06
0.0084
1.25669e-05
0.00839928
3.56048e-05
0.00839321
9.50969e-05
0.0084039
0.00030467
0.00845885
0.00110831
0.00874176
0.00529594
0.00832679
0.00703308
0.00791944
0.00700295
0.00759833
0.00708559
0.0073164
0.00753379
0.00705265
0.00819213
0.00684114
0.00899515
0.00678332
0.00987892
0.00719426
0.0106043
0.0104883
0.00814868
0.00840003
3.22842e-10
0.00840003
1.93074e-09
0.00840002
6.94191e-09
0.00840006
1.88325e-08
0.00839995
5.18884e-08
0.00840026
1.26329e-07
0.00839938
3.3186e-07
0.00840185
7.9243e-07
0.00839581
2.06249e-06
0.00841057
4.94421e-06
0.00838195
1.30383e-05
0.00842803
3.27247e-05
0.00837881
9.18791e-05
0.00844385
0.000280211
0.00852356
0.000997561
0.00934415
0.00445165
0.00885365
0.0075284
0.00833717
0.00752352
0.00799096
0.00743384
0.0077497
0.00777589
0.00757996
0.00836244
0.00753986
0.00903635
0.00773981
0.00967932
0.00823824
0.0101069
0.00991311
0.00881438
0.00840003
2.76568e-10
0.00840004
1.6425e-09
0.00840001
5.99947e-09
0.00840008
1.60632e-08
0.00839993
4.41853e-08
0.00840036
1.07825e-07
0.00839945
2.72257e-07
0.00840187
6.81118e-07
0.00839716
1.63491e-06
0.00840903
4.2614e-06
0.00839011
1.0006e-05
0.00843062
2.67999e-05
0.00840631
6.91433e-05
0.00852075
0.000205607
0.00880246
0.000685445
0.0103784
0.00284651
0.00969356
0.00821785
0.00909999
0.00812144
0.00857861
0.00795862
0.00828208
0.00807425
0.00815732
0.00848853
0.00819683
0.00899843
0.00842972
0.00944765
0.00885983
0.00967718
0.00944769
0.00932532
0.00840003
2.16276e-10
0.00840003
1.44012e-09
0.00840004
4.71389e-09
0.00840001
1.41184e-08
0.00840009
3.52966e-08
0.00839998
9.21341e-08
0.00840016
2.26453e-07
0.00840021
5.51796e-07
0.00839973
1.40354e-06
0.00840235
3.29796e-06
0.00839949
8.66725e-06
0.00841012
2.08392e-05
0.00841975
5.62772e-05
0.00846474
0.000157633
0.00863375
0.00051265
0.00945098
0.0020192
0.0099158
0.00774149
0.00958021
0.00845698
0.00906029
0.00847979
0.00879267
0.00834344
0.00869312
0.00858962
0.00874588
0.0089465
0.0089573
0.00923748
0.00930807
0.0093278
0.00907055
0.00968581
0.00840003
2.21136e-10
0.00840003
1.13479e-09
0.00840002
4.59709e-09
0.00840005
1.10599e-08
0.00839999
3.38205e-08
0.00840018
7.39495e-08
0.0083997
2.10158e-07
0.00840112
4.64145e-07
0.0083979
1.25973e-06
0.00840657
2.88467e-06
0.00839007
7.5972e-06
0.00842419
1.83054e-05
0.00838493
4.8805e-05
0.00845744
0.000133928
0.00849962
0.000425574
0.00895261
0.00157978
0.00984555
0.0068158
0.00970045
0.00859982
0.00945671
0.00872334
0.00920525
0.00859668
0.00913055
0.00866595
0.00919533
0.00888314
0.00937698
0.00905573
0.00965412
0.00905088
0.00877641
0.00994852
0.00840003
1.68744e-10
0.00840003
1.08814e-09
0.00840004
3.64493e-09
0.00840002
1.0584e-08
0.00840008
2.71364e-08
0.00839992
6.98661e-08
0.00840041
1.73367e-07
0.00839927
4.29095e-07
0.00840249
1.07328e-06
0.0083958
2.61745e-06
0.0084126
6.63741e-06
0.0083839
1.63988e-05
0.00843563
4.2901e-05
0.00839717
0.000116711
0.00850673
0.000358533
0.00878129
0.00127432
0.0101537
0.00542004
0.0100701
0.00868553
0.00981485
0.00898069
0.00957613
0.00883772
0.0095051
0.00873832
0.0095629
0.00882619
0.0097135
0.00890596
0.00992731
0.00883703
0.00855448
0.0101492
0.00840003
1.24054e-10
0.00840003
9.11066e-10
0.00840003
2.80316e-09
0.00840003
8.89607e-09
0.00840005
2.09998e-08
0.0084
5.84473e-08
0.00840021
1.33131e-07
0.00839972
3.5598e-07
0.00840156
8.2163e-07
0.00839775
2.14374e-06
0.00840976
5.09196e-06
0.00839101
1.30414e-05
0.00843751
3.25476e-05
0.00841928
8.72162e-05
0.0085654
0.00025226
0.00896634
0.000841223
0.0110155
0.00334372
0.0106818
0.00901877
0.0104785
0.00918926
0.010129
0.00919198
0.00993204
0.00893764
0.0099187
0.00884125
0.0100167
0.00880879
0.0101689
0.00868515
0.00839529
0.010328
0.00840003
1.06287e-10
0.00840003
6.87329e-10
0.00840002
2.34414e-09
0.00840005
6.70949e-09
0.0084
1.73295e-08
0.00840014
4.45146e-08
0.0083999
1.0743e-07
0.00840058
2.75705e-07
0.00839946
6.44673e-07
0.00840278
1.66928e-06
0.0083977
3.88498e-06
0.00841267
1.01816e-05
0.00839891
2.43237e-05
0.00845142
6.53337e-05
0.00848838
0.000179599
0.00877198
0.000573843
0.00992857
0.00217338
0.0110062
0.00792526
0.0108375
0.00935857
0.0105644
0.00946686
0.0103285
0.009176
0.0102527
0.00891765
0.0102951
0.00876663
0.0103919
0.00858847
0.0082911
0.0104954
0.00840003
8.99243e-11
0.00840003
5.25577e-10
0.00840003
1.93591e-09
0.00840003
5.15319e-09
0.00840003
1.43607e-08
0.00840007
3.44091e-08
0.00839996
8.95694e-08
0.0084004
2.13724e-07
0.00839942
5.37692e-07
0.00840261
1.31836e-06
0.00839643
3.22828e-06
0.00841432
8.11372e-06
0.00838774
1.99888e-05
0.00844735
5.1945e-05
0.00843023
0.000141153
0.0086139
0.000433205
0.00919389
0.00156138
0.0109311
0.00616994
0.0110279
0.0092614
0.0108996
0.00959548
0.0106474
0.00942972
0.0105528
0.00901344
0.0105549
0.00876462
0.0106055
0.00853736
0.00823115
0.0106653
0.00840003
7.01486e-11
0.00840003
4.21834e-10
0.00840003
1.47997e-09
0.00840003
4.11715e-09
0.00840005
1.09701e-08
0.00840002
2.69426e-08
0.0084001
6.99591e-08
0.00840006
1.62273e-07
0.00840016
4.32141e-07
0.00840075
9.69204e-07
0.0083998
2.63839e-06
0.0084058
5.88777e-06
0.00840062
1.61367e-05
0.00842801
3.8036e-05
0.00844725
0.000105665
0.00859006
0.000300916
0.00912084
0.00101528
0.0114143
0.00385173
0.0114575
0.00921392
0.0113867
0.00966799
0.0111658
0.00965234
0.010915
0.00926562
0.0108285
0.00885141
0.0108274
0.00853828
0.00821491
0.0108422
0.00840003
4.79949e-11
0.00840003
3.29212e-10
0.00840003
1.07561e-09
0.00840004
3.20915e-09
0.00840003
7.96449e-09
0.00840006
2.12298e-08
0.00840003
4.92318e-08
0.00840011
1.30666e-07
0.00840021
2.95366e-07
0.00840016
7.8638e-07
0.00840178
1.77523e-06
0.00840023
4.72286e-06
0.00841078
1.08603e-05
0.00841089
2.88017e-05
0.00845438
7.13182e-05
0.0085435
0.000202542
0.00893279
0.000628998
0.010449
0.00232051
0.0117526
0.00789669
0.0117118
0.00970733
0.0115097
0.00985375
0.0112512
0.00952437
0.011127
0.00897487
0.0110663
0.00859808
0.0082419
0.011039
0.00840003
3.85544e-11
0.00840003
2.37817e-10
0.00840003
8.33031e-10
0.00840003
2.32278e-09
0.00840003
6.15861e-09
0.00840004
1.53288e-08
0.00840002
3.8651e-08
0.00840016
9.40698e-08
0.00839989
2.34339e-07
0.00840104
5.6819e-07
0.00839887
1.41332e-06
0.0084066
3.44727e-06
0.00839438
8.59912e-06
0.00843117
2.13388e-05
0.00839899
5.47438e-05
0.00851275
0.00014718
0.00864118
0.000443969
0.00941887
0.0015664
0.0116547
0.00563163
0.0119068
0.00945054
0.0119083
0.00984918
0.0117051
0.00972592
0.0114405
0.00923922
0.0113227
0.00871449
0.00830899
0.0112544
0.00840003
2.74381e-11
0.00840003
1.68293e-10
0.00840003
5.92081e-10
0.00840003
1.64325e-09
0.00840003
4.38699e-09
0.00840004
1.07644e-08
0.00840003
2.74967e-08
0.00840013
6.52112e-08
0.00839996
1.65579e-07
0.00840084
3.89146e-07
0.00839938
9.8791e-07
0.00840533
2.3255e-06
0.00839697
5.90478e-06
0.00842835
1.40898e-05
0.00840297
3.62989e-05
0.00851795
9.221e-05
0.00863503
0.000262357
0.00939807
0.000837342
0.0120159
0.00298274
0.0124465
0.00901167
0.0123829
0.00990876
0.0121062
0.00999923
0.0117888
0.00955475
0.0116077
0.00889475
0.00843036
0.0114856
0.00840003
1.94711e-11
0.00840003
1.2128e-10
0.00840003
4.23724e-10
0.00840003
1.18602e-09
0.00840003
3.11778e-09
0.00840005
7.82847e-09
0.00840002
1.92627e-08
0.00840013
4.77509e-08
0.00839997
1.15167e-07
0.00840056
2.87143e-07
0.0083998
6.83043e-07
0.00840278
1.7177e-06
0.00839943
4.07263e-06
0.00841318
1.03421e-05
0.00840602
2.49607e-05
0.0084613
6.49041e-05
0.00851013
0.000173618
0.00884799
0.000532911
0.00989989
0.00190151
0.0122576
0.00663738
0.0124991
0.00966324
0.0125302
0.0099646
0.0121752
0.00990801
0.0119181
0.00915177
0.00860808
0.0117399
0.00840003
1.40407e-11
0.00840003
8.37539e-11
0.00840003
3.03494e-10
0.00840003
8.18176e-10
0.00840003
2.24254e-09
0.00840004
5.3897e-09
0.00840003
1.392e-08
0.00840008
3.29178e-08
0.0084
8.29851e-08
0.00840041
1.98608e-07
0.00839972
4.9188e-07
0.00840254
1.19106e-06
0.00839833
2.92737e-06
0.00841397
7.20751e-06
0.00839577
1.77002e-05
0.00845819
4.49723e-05
0.00845564
0.000116968
0.00870569
0.000336846
0.00945011
0.00111653
0.0121573
0.00391184
0.0127328
0.00908013
0.0127905
0.00990505
0.0126851
0.0100113
0.0122711
0.00956566
0.00886609
0.0120128
0.00840003
9.7989e-12
0.00840003
5.81367e-11
0.00840003
2.09123e-10
0.00840003
5.68622e-10
0.00840003
1.53745e-09
0.00840003
3.72777e-09
0.00840004
9.59562e-09
0.00840004
2.25093e-08
0.00840007
5.7773e-08
0.00840016
1.33767e-07
0.00840011
3.43336e-07
0.00840112
7.97857e-07
0.00839999
2.03455e-06
0.00840761
4.77871e-06
0.00840072
1.21367e-05
0.0084387
2.947e-05
0.00844663
7.63077e-05
0.00860829
0.000205895
0.00906458
0.000634279
0.0107637
0.0022127
0.0127462
0.00707415
0.012926
0.00972163
0.0129562
0.00997872
0.0126268
0.0098947
0.00916737
0.0123277
0.00840003
6.2635e-12
0.00840003
4.15274e-11
0.00840003
1.36918e-10
0.00840003
4.04464e-10
0.00840003
1.01404e-09
0.00840003
2.63108e-09
0.00840004
6.36695e-09
0.00840002
1.58146e-08
0.00840011
3.84919e-08
0.00839999
9.34039e-08
0.00840048
2.31042e-07
0.00839992
5.52325e-07
0.00840237
1.37676e-06
0.00840006
3.28375e-06
0.00841105
8.28453e-06
0.00840681
1.98741e-05
0.00845407
5.13239e-05
0.00849237
0.000132068
0.00877379
0.000385369
0.00966918
0.00128949
0.012427
0.00429368
0.0130926
0.00904898
0.0131858
0.00988517
0.0130701
0.0100102
0.0095575
0.0126801
0.00840003
4.28823e-12
0.00840003
2.66108e-11
0.00840003
9.38316e-11
0.00840003
2.61362e-10
0.00840003
6.89839e-10
0.00840003
1.72835e-09
0.00840003
4.23683e-09
0.00840004
1.05389e-08
0.00840006
2.51211e-08
0.00840004
6.30739e-08
0.00840028
1.48309e-07
0.00839997
3.73868e-07
0.00840182
8.77726e-07
0.00839938
2.21263e-06
0.00841113
5.22019e-06
0.00839873
1.32049e-05
0.00845501
3.18945e-05
0.00844514
8.29056e-05
0.00867077
0.000222532
0.00922528
0.000686327
0.0111958
0.0023284
0.0131537
0.00706739
0.0132942
0.00974096
0.0133851
0.00991696
0.00987154
0.0130704
0.00840003
2.69403e-12
0.00840003
1.8614e-11
0.00840003
5.97815e-11
0.00840003
1.80862e-10
0.00840003
4.42933e-10
0.00840003
1.17137e-09
0.00840004
2.76924e-09
0.00840003
7.01391e-09
0.00840006
1.67124e-08
0.00840002
4.11813e-08
0.00840022
9.99116e-08
0.00840001
2.40743e-07
0.00840106
5.97794e-07
0.00840018
1.40769e-06
0.00840537
3.56559e-06
0.00840247
8.34195e-06
0.00842732
2.14805e-05
0.00843245
5.17617e-05
0.00855102
0.000138627
0.00880324
0.000392869
0.00983821
0.00131
0.012663
0.00420613
0.0134687
0.00892581
0.0135837
0.00980048
0.0100226
0.013431
0.00840003
1.84133e-12
0.00840003
1.15123e-11
0.00840003
4.01854e-11
0.00840003
1.12513e-10
0.00840003
2.95945e-10
0.00840003
7.37286e-10
0.00840003
1.82325e-09
0.00840004
4.45396e-09
0.00840003
1.08136e-08
0.00840006
2.64779e-08
0.00840008
6.35492e-08
0.00840016
1.56345e-07
0.00840046
3.73402e-07
0.00840043
9.22681e-07
0.00840334
2.19835e-06
0.00840149
5.45308e-06
0.00842114
1.31007e-05
0.00841649
3.29052e-05
0.00850643
8.24559e-05
0.00863658
0.000223687
0.00929031
0.000678652
0.0112193
0.00225539
0.0134203
0.00670182
0.0135854
0.00963093
0.00980553
0.0137993
0.00840003
1.18728e-12
0.00840003
7.32805e-12
0.00840003
2.5975e-11
0.00840003
7.16711e-11
0.00840003
1.90099e-10
0.00840003
4.72035e-10
0.00840003
1.16018e-09
0.00840004
2.87258e-09
0.00840003
6.82116e-09
0.00840005
1.70732e-08
0.00840006
3.98463e-08
0.00840013
1.01098e-07
0.00840028
2.32775e-07
0.00840036
5.94439e-07
0.00840201
1.36789e-06
0.00840116
3.49745e-06
0.00841329
8.09533e-06
0.00840859
2.07699e-05
0.00846935
4.99603e-05
0.00852059
0.000132387
0.00886643
0.00036913
0.00988105
0.00120568
0.0127795
0.00377686
0.0137927
0.00860686
0.00973824
0.0138565
0.00840003
7.42092e-13
0.00840003
4.68756e-12
0.00840003
1.60514e-11
0.00840003
4.56144e-11
0.00840003
1.18688e-10
0.00840003
2.94676e-10
0.00840003
7.39878e-10
0.00840003
1.75207e-09
0.00840003
4.42247e-09
0.00840005
1.0277e-08
0.00840004
2.61151e-08
0.00840014
6.01102e-08
0.00840003
1.53398e-07
0.0084008
3.53336e-07
0.00839995
8.98163e-07
0.00840457
2.08026e-06
0.00840019
5.27536e-06
0.00842448
1.24284e-05
0.00841144
3.14981e-05
0.00851385
7.78021e-05
0.0086147
0.000209772
0.00923022
0.000623969
0.0109344
0.00204782
0.0135155
0.00600137
0.00933518
0.0139121
0.00840003
4.55907e-13
0.00840003
2.87326e-12
0.00840003
9.98817e-12
0.00840003
2.807e-11
0.00840003
7.32708e-11
0.00840003
1.83833e-10
0.00840003
4.4675e-10
0.00840003
1.10856e-09
0.00840003
2.62046e-09
0.00840004
6.54362e-09
0.00840004
1.52762e-08
0.00840007
3.83749e-08
0.00840013
8.89164e-08
0.0084002
2.24047e-07
0.00840079
5.19695e-07
0.00840072
1.30251e-06
0.00840522
3.04744e-06
0.00840374
7.60386e-06
0.0084309
1.81238e-05
0.00843602
4.55733e-05
0.00856642
0.000114998
0.00882655
0.000319925
0.00989064
0.00100117
0.0127666
0.00308319
0.00802365
0.0140641
0.00840003
2.92844e-13
0.00840003
1.7169e-12
0.00840003
6.25158e-12
0.00840003
1.67633e-11
0.00840003
4.5774e-11
0.00840003
1.0886e-10
0.00840003
2.82314e-10
0.00840003
6.49817e-10
0.00840003
1.66824e-09
0.00840004
3.82064e-09
0.00840003
9.70944e-09
0.00840008
2.24904e-08
0.00840004
5.62737e-08
0.0084003
1.32299e-07
0.0084001
3.25357e-07
0.00840151
7.81991e-07
0.00840078
1.87975e-06
0.00840745
4.62874e-06
0.00840676
1.09827e-05
0.00843774
2.77612e-05
0.00846096
6.7508e-05
0.00863231
0.000180449
0.009072
0.000521253
0.0104697
0.00170038
0.00500654
0.0134478
0.00840003
1.5913e-13
0.00840003
1.09202e-12
0.00840003
3.55648e-12
0.00840003
1.06501e-11
0.00840003
2.61358e-11
0.00840003
6.90918e-11
0.00840003
1.60253e-10
0.00840003
4.12205e-10
0.00840003
9.45523e-10
0.00840003
2.40118e-09
0.00840004
5.55061e-09
0.00840003
1.38968e-08
0.0084001
3.25235e-08
0.00840005
8.01051e-08
0.00840042
1.90986e-07
0.00840022
4.60818e-07
0.00840212
1.12113e-06
0.0084016
2.65267e-06
0.00841086
6.59788e-06
0.00841274
1.54934e-05
0.00845883
3.93666e-05
0.00851163
9.66581e-05
0.00879987
0.000264396
0.00967611
0.000797594
0.00245968
0.0122141
0.00840003
1.04735e-13
0.00840003
6.15845e-13
0.00840003
2.25736e-12
0.00840003
6.00359e-12
0.00840003
1.65018e-11
0.00840003
3.91013e-11
0.00840003
1.00714e-10
0.00840003
2.34364e-10
0.00840003
5.88627e-10
0.00840003
1.3809e-09
0.00840003
3.40203e-09
0.00840005
8.10556e-09
0.00840004
1.95768e-08
0.00840012
4.75604e-08
0.0084001
1.12539e-07
0.00840044
2.78618e-07
0.00840067
6.48165e-07
0.00840172
1.62775e-06
0.00840486
3.75507e-06
0.00840836
9.53301e-06
0.00843004
2.22088e-05
0.00846016
5.72287e-05
0.00858924
0.000142998
0.00896284
0.000409523
0.00129107
0.0101289
0.00840003
5.84345e-14
0.00840003
3.80751e-13
0.00840003
1.27326e-12
0.00840003
3.71198e-12
0.00840003
9.3441e-12
0.00840003
2.39589e-11
0.00840003
5.74353e-11
0.00840003
1.41776e-10
0.00840003
3.4102e-10
0.00840003
8.19854e-10
0.00840003
2.00402e-09
0.00840003
4.72371e-09
0.00840005
1.17298e-08
0.00840006
2.72458e-08
0.0084001
6.83876e-08
0.00840025
1.57648e-07
0.0084003
3.9715e-07
0.0084016
9.18818e-07
0.00840118
2.29596e-06
0.00841006
5.39043e-06
0.00840722
1.34076e-05
0.00845483
3.22674e-05
0.00847796
8.1777e-05
0.00871424
0.000213354
0.000630371
0.00933868
0.00840003
3.38377e-14
0.00840003
2.17657e-13
0.00840003
7.48914e-13
0.00840003
2.12084e-12
0.00840003
5.47582e-12
0.00840003
1.37595e-11
0.00840003
3.3193e-11
0.00840003
8.24025e-11
0.00840003
1.92998e-10
0.00840003
4.82765e-10
0.00840003
1.11168e-09
0.00840003
2.80217e-09
0.00840004
6.42222e-09
0.00840004
1.61384e-08
0.00840011
3.72048e-08
0.00840007
9.25161e-08
0.00840052
2.16147e-07
0.00840027
5.28574e-07
0.00840277
1.25846e-06
0.0084019
3.01486e-06
0.00841521
7.34997e-06
0.00841397
1.74286e-05
0.00848154
4.36778e-05
0.00853762
0.000107862
0.000294795
0.00892498
0.00840003
1.9635e-14
0.00840003
1.2419e-13
0.00840003
4.29092e-13
0.00840003
1.20601e-12
0.00840003
3.14796e-12
0.00840003
7.76614e-12
0.00840003
1.92332e-11
0.00840003
4.58868e-11
0.00840003
1.12455e-10
0.00840003
2.66345e-10
0.00840003
6.49109e-10
0.00840003
1.53866e-09
0.00840003
3.73165e-09
0.00840005
8.88857e-09
0.00840004
2.13937e-08
0.00840014
5.13865e-08
0.00840011
1.2245e-07
0.00840059
2.96502e-07
0.00840067
7.01112e-07
0.00840252
1.71411e-06
0.00840514
4.02259e-06
0.00841194
9.93207e-06
0.0084328
2.355e-05
0.00847908
5.92842e-05
0.000150004
0.00861885
0.00840003
1.10226e-14
0.00840003
6.78164e-14
0.00840003
2.40047e-13
0.00840003
6.61448e-13
0.00840003
1.75318e-12
0.00840003
4.25973e-12
0.00840003
1.06758e-11
0.00840003
2.51172e-11
0.00840003
6.21667e-11
0.00840003
1.45391e-10
0.00840003
3.57412e-10
0.00840003
8.3749e-10
0.00840003
2.04481e-09
0.00840004
4.82804e-09
0.00840004
1.16621e-08
0.0084001
2.77767e-08
0.00840006
6.65995e-08
0.00840041
1.59726e-07
0.00840026
3.79895e-07
0.00840208
9.18218e-07
0.00840176
2.17446e-06
0.00841043
5.29324e-06
0.00841292
1.25736e-05
0.00845536
3.11289e-05
7.65317e-05
0.00850182
0.00840003
5.56678e-15
0.00840003
3.74088e-14
0.00840003
1.21114e-13
0.00840003
3.63699e-13
0.00840003
8.85049e-13
0.00840003
2.31941e-12
0.00840003
5.39298e-12
0.00840003
1.3467e-11
0.00840003
3.14671e-11
0.00840003
7.62684e-11
0.00840003
1.8165e-10
0.00840003
4.27268e-10
0.00840003
1.04312e-09
0.00840003
2.39184e-09
0.00840004
5.955e-09
0.00840006
1.33721e-08
0.00840006
3.37104e-08
0.00840025
7.51696e-08
0.00840014
1.89114e-07
0.00840136
4.22302e-07
0.00840078
1.0536e-06
0.00840756
2.38643e-06
0.00840546
5.85263e-06
0.00844045
1.35947e-05
3.34773e-05
0.00844863
0.00840003
2.90133e-15
0.00840003
1.77212e-14
0.00840003
6.54097e-14
0.00840003
1.73914e-13
0.00840003
4.69257e-13
0.00840003
1.11825e-12
0.00840003
2.77355e-12
0.00840003
6.56195e-12
0.00840003
1.56149e-11
0.00840003
3.73346e-11
0.00840003
8.6555e-11
0.00840003
2.10284e-10
0.00840003
4.77394e-10
0.00840003
1.16863e-09
0.00840003
2.62076e-09
0.00840004
6.46584e-09
0.00840006
1.43209e-08
0.00840009
3.52423e-08
0.00840024
7.82762e-08
0.00840023
1.89946e-07
0.00840152
4.25771e-07
0.00840076
1.01194e-06
0.00840941
2.301e-06
0.00840481
5.36045e-06
1.2454e-05
0.00844918
0.00840003
1.53938e-15
0.00840003
8.93895e-15
0.00840003
3.04818e-14
0.00840003
8.49614e-14
0.00840003
2.21969e-13
0.00840003
5.24791e-13
0.00840003
1.35141e-12
0.00840003
2.90231e-12
0.00840003
7.77462e-12
0.00840003
1.56466e-11
0.00840003
4.34943e-11
0.00840003
8.43658e-11
0.00840003
2.35511e-10
0.00840003
4.60648e-10
0.00840003
1.24913e-09
0.00840004
2.52254e-09
0.00840003
6.44354e-09
0.0084001
1.39211e-08
0.00840005
3.2229e-08
0.00840027
7.69233e-08
0.00840039
1.57225e-07
0.00840059
4.14297e-07
0.00840311
7.42322e-07
0.00840156
2.17382e-06
3.53714e-06
0.00841697
0.00840003
6.23145e-16
0.00840003
3.72741e-15
0.00840003
1.52409e-14
0.00840003
3.66042e-14
0.00840003
1.08428e-13
0.00840003
2.33253e-13
0.00840003
6.13938e-13
0.00840003
1.36994e-12
0.00840003
3.22534e-12
0.00840003
7.83259e-12
0.00840003
1.64722e-11
0.00840003
4.40758e-11
0.00840003
8.30278e-11
0.00840003
2.41959e-10
0.00840003
4.16312e-10
0.00840002
1.31441e-09
0.00840006
2.03559e-09
0.00839999
6.99271e-09
0.00840017
1.01939e-08
0.00839985
3.52982e-08
0.0084007
5.20716e-08
0.00839917
1.7122e-07
0.00840249
2.70774e-07
0.00839659
7.70007e-07
1.37176e-06
0.00840792
0.00840003
4.00586e-16
0.00840003
1.91023e-15
0.00840003
6.54357e-15
0.00840003
1.84535e-14
0.00840003
4.31699e-14
0.00840003
1.16902e-13
0.00840003
2.39303e-13
0.00840003
6.74749e-13
0.00840003
1.26241e-12
0.00840003
3.72976e-12
0.00840003
6.54928e-12
0.00840003
2.00856e-11
0.00840003
3.37087e-11
0.00840003
1.05657e-10
0.00840003
1.77911e-10
0.00840003
5.32548e-10
0.00840003
1.00005e-09
0.00840004
2.56033e-09
0.00839999
5.52721e-09
0.00840016
1.23049e-08
0.00839953
3.03535e-08
0.00840127
5.28533e-08
0.00839639
1.63609e-07
0.00840698
2.36996e-07
8.32055e-07
0.00838335
0.00840003
2.87314e-18
0.00840003
1.48452e-15
0.00840003
1.03357e-15
0.00840003
1.34906e-14
0.00840003
9.28088e-15
0.00840003
7.62021e-14
0.00840003
7.42363e-14
0.00840003
3.78977e-13
0.00840003
5.56903e-13
0.00840003
1.7397e-12
0.00840003
3.76784e-12
0.00840003
7.22697e-12
0.00840003
2.73053e-11
0.00840003
2.53489e-11
0.00840003
1.81977e-10
0.00840003
5.13397e-11
0.00840002
1.14721e-09
0.00840006
-7.42552e-11
0.00839993
6.6575e-09
0.00840026
-1.42498e-09
0.00839929
3.64028e-08
0.00840162
-1.19363e-08
0.00839554
1.95402e-07
0.00840805
-4.55822e-08
9.59751e-07
0.00837967
0.00840003
1.51761e-16
0.00840003
1.25957e-16
0.00840003
3.15481e-15
0.00840003
3.96981e-16
0.00840003
2.2552e-14
0.00840003
8.15862e-18
0.00840003
1.30472e-13
0.00840003
-1.80156e-14
0.00840003
6.52608e-13
0.00840003
1.10924e-13
0.00840003
3.10565e-12
0.00840003
2.30093e-12
0.00840003
1.21988e-11
0.00840003
2.74055e-11
0.00840003
3.87979e-11
0.00840003
2.2456e-10
0.00840004
4.75717e-11
0.00839999
1.70671e-09
0.00840013
-7.14115e-10
0.00839972
1.16599e-08
0.00840074
-7.84619e-09
0.00839801
7.34105e-08
0.00840432
-5.86251e-08
0.00838894
4.17907e-07
-1.86003e-07
0.00841537
0.00840003
8.15049e-17
0.00840003
2.42292e-16
0.00840003
1.12627e-15
0.00840003
2.27935e-15
0.00840003
6.08975e-15
0.00840003
1.53277e-14
0.00840003
2.83299e-14
0.00840003
9.83808e-14
0.00840003
8.91176e-14
0.00840003
6.46067e-13
0.00840003
6.51279e-14
0.00840003
4.22755e-12
0.00840003
-1.66695e-12
0.00840003
2.47509e-11
0.00840003
-2.11956e-11
0.00840003
1.58185e-10
0.00840004
-1.40082e-10
0.00840002
7.8382e-10
0.00840002
-3.55336e-10
0.00840003
3.84099e-09
0.00839971
2.06986e-09
0.00840053
1.69363e-08
0.00839719
3.3504e-08
0.0084034
6.81755e-08
2.39599e-07
0.00838728
0.00840003
0.00840003
0.00840003
0.00840003
0.00840003
0.00840003
0.00840003
0.00840003
0.00840003
0.00840003
0.00840003
0.00840003
0.00840003
0.00840003
0.00840003
0.00840003
0.00840003
0.00840004
0.00839997
0.00840016
0.00839946
0.00840119
0.00839612
0.00840652
0.00838213
0.00448842
0.00418858
0.00249494
0.00199207
0.00135051
0.00114297
-0.00032549
0.00167304
-0.00111156
0.000782979
-0.00169231
0.000575316
-0.00207411
0.00037595
-0.00223633
0.000155905
-0.00228021
3.75936e-05
-0.00238076
9.45038e-05
-0.00251772
0.000130799
-0.00264893
0.000125229
-0.00274623
9.16261e-05
-0.002819
6.76845e-05
-0.00289424
7.07849e-05
-0.00297139
7.35574e-05
-0.0030464
7.18856e-05
-0.00311491
6.60868e-05
-0.00317392
5.68429e-05
-0.00322014
4.45436e-05
-0.00325267
3.16934e-05
-0.00327827
2.5102e-05
-0.00331675
3.81924e-05
-0.00335772
4.04385e-05
-0.00339101
3.26856e-05
-0.00341401
2.14996e-05
-0.00341931
2.53572e-06
-0.00339437
-2.8821e-05
-0.00332585
-7.40208e-05
-0.00320999
-0.000121764
-0.00305338
-0.000163679
-0.00286232
-0.000198266
-0.00264537
-0.000224887
-0.00240441
-0.000249076
-0.00215377
-0.000259149
-0.00189784
-0.000264751
-0.00164148
-0.000265605
-0.00138277
-0.000268229
-0.00111833
-0.000274295
-0.000856221
-0.000272854
-0.000598425
-0.000269039
-0.000341461
-0.000268988
-7.56983e-05
-0.000278594
0.000174215
-0.000263347
0.000405615
-0.00024559
0.000626836
-0.000236338
0.000838262
-0.000227427
0.00104014
-0.000218847
0.00123335
-0.000210849
0.00141745
-0.000202693
0.00159294
-0.000194561
0.00176024
-0.000186954
0.00191948
-0.000179534
0.00207162
-0.000172606
0.00221713
-0.00016595
0.00235615
-0.000159429
0.00248822
-0.000152481
0.00261382
-0.000145747
0.00273396
-0.0001398
0.00285034
-0.000134938
0.00296211
-0.000129261
0.00306992
-0.000123905
0.00317392
-0.000118913
0.00327488
-0.000114149
0.00337269
-0.000109661
0.00346788
-0.000105207