/*--------------------------------*- C++ -*----------------------------------*\
  =========                 |
  \\      /  F ield         | OpenFOAM: The Open Source CFD Toolbox
   \\    /   O peration     | Website:  https://openfoam.org
    \\  /    A nd           | Version:  10
     \\/     M anipulation  |
\*---------------------------------------------------------------------------*/
FoamFile
{
    format      ascii;
    class       volScalarField;
    location    "6";
    object      T;
}
// * * * * * * * * * * * * * * * * * * * * * * * * * * * * * * * * * * * * * //

dimensions      [0 0 0 1 0 0 0];

internalField   nonuniform List<scalar> 
5250
(
1.00001
1.00002
1.00004
1.00011
1.00028
1.00069
1.00171
1.00413
1.01066
1.02566
1.06704
1.17498
1.4728
2.16278
2.67115
2.7605
2.74583
2.74184
2.75321
2.76918
2.78097
2.78826
2.79355
2.79759
2.79935
1
1.00002
1.00005
1.00011
1.00028
1.00067
1.00168
1.00418
1.01016
1.02597
1.06513
1.17292
1.46533
2.14937
2.66684
2.76034
2.74517
2.74086
2.75224
2.76814
2.77984
2.7871
2.79238
2.79638
2.79806
1
1.00001
1.00005
1.0001
1.00029
1.00062
1.0017
1.00386
1.01019
1.02448
1.06389
1.16598
1.45046
2.11911
2.65628
2.75931
2.74305
2.73788
2.74911
2.76503
2.77637
2.78363
2.78895
2.79299
2.79469
1
1.00002
1.00004
1.00011
1.00023
1.00067
1.00146
1.00398
1.00917
1.02412
1.05927
1.1589
1.42456
2.07306
2.63909
2.75731
2.73923
2.73282
2.74409
2.75966
2.7717
2.77886
2.78357
2.78742
2.78937
1
1.00001
1.00004
1.0001
1.00023
1.00061
1.00137
1.00377
1.0083
1.02304
1.05427
1.1479
1.39279
2.00701
2.6147
2.75361
2.73372
2.72541
2.73637
2.752
2.76316
2.77067
2.7761
2.77991
2.78154
1
1.00001
1.00003
1.00009
1.00022
1.00053
1.00131
1.0033
1.00786
1.02056
1.05003
1.13323
1.35575
1.9222
2.58152
2.74625
2.72444
2.71438
2.72547
2.74094
2.75328
2.75975
2.76507
2.76838
2.77004
1
1.00001
1.00003
1.00008
1.0002
1.00048
1.00116
1.00302
1.00696
1.01866
1.04427
1.11864
1.31346
1.82126
2.53659
2.73289
2.71079
2.69998
2.71145
2.72669
2.73903
2.74619
2.75019
2.75319
2.75343
1
1.00001
1.00003
1.00008
1.00016
1.00047
1.00096
1.00288
1.00599
1.017
1.03913
1.10606
1.27653
1.73499
2.48675
2.71811
2.69562
2.68515
2.6947
2.70926
2.72054
2.72673
2.72994
2.73041
2.72745
1
1.00001
1.00003
1.00006
1.00016
1.00039
1.00095
1.00242
1.00566
1.015
1.03555
1.09444
1.24816
1.66338
2.4256
2.69722
2.68512
2.67604
2.67982
2.69061
2.70013
2.70366
2.70327
2.69809
2.68368
1
1.00001
1.00002
1.00005
1.00015
1.00032
1.0009
1.00203
1.00536
1.01276
1.03276
1.08271
1.22142
1.58998
2.34035
2.66417
2.67641
2.66862
2.66568
2.67147
2.67591
2.67567
2.66822
2.64717
2.58976
1
1.00001
1.00002
1.00005
1.00012
1.00031
1.00076
1.00183
1.00474
1.01104
1.02934
1.07175
1.19387
1.51638
2.23061
2.62101
2.66791
2.65922
2.65196
2.65239
2.65166
2.64452
2.62394
2.57556
2.46487
1
1.00001
1.00002
1.00004
1.00012
1.00024
1.0007
1.00152
1.00413
1.00954
1.02505
1.06158
1.16497
1.4395
2.09319
2.56429
2.6578
2.64819
2.63756
2.63237
2.62609
2.61112
2.57833
2.51113
2.38835
1
1.00001
1.00001
1.00004
1.00009
1.00022
1.00055
1.00131
1.00344
1.00785
1.02125
1.05042
1.13601
1.36006
1.92671
2.49043
2.63868
2.6303
2.61764
2.61012
2.59955
2.57759
2.53777
2.46888
2.36041
1
1
1.00001
1.00003
1.00008
1.00017
1.00047
1.00102
1.00288
1.00616
1.01725
1.03964
1.10717
1.27792
1.72832
2.39626
2.60613
2.60311
2.59319
2.58245
2.57109
2.54785
2.50578
2.44173
2.35056
1
1
1.00001
1.00003
1.00005
1.00016
1.00033
1.00094
1.00206
1.00555
1.01292
1.03366
1.0837
1.22406
1.5885
2.29254
2.56763
2.57658
2.56753
2.55531
2.54005
2.51813
2.47884
2.42154
2.3432
1
1
1.00001
1.00002
1.00005
1.00012
1.0003
1.00069
1.00184
1.00411
1.01128
1.02575
1.06927
1.17678
1.47649
2.13544
2.50458
2.55694
2.54687
2.53534
2.51627
2.49105
2.45458
2.4033
2.33578
1
1
1.00001
1.00002
1.00004
1.0001
1.00022
1.00059
1.00132
1.00366
1.00795
1.02214
1.05159
1.14018
1.36807
1.93561
2.41793
2.53309
2.5275
2.51368
2.49483
2.46928
2.43415
2.38792
2.32898
1
1
1
1.00001
1.00003
1.00007
1.00018
1.00043
1.00105
1.00267
1.00621
1.01645
1.03881
1.10288
1.26745
1.69758
2.30159
2.49548
2.50165
2.49055
2.46994
2.44617
2.41396
2.37252
2.3211
1
1
1
1.00001
1.00002
1.00005
1.00015
1.0003
1.00089
1.00179
1.00528
1.01119
1.03105
1.0739
1.19918
1.52012
2.16097
2.44341
2.47408
2.46528
2.44739
2.42259
2.39493
2.35793
2.31316
1
1
1
1.00001
1.00002
1.00004
1.0001
1.00025
1.00062
1.00144
1.00383
1.00859
1.0233
1.055
1.14787
1.38684
1.95814
2.35815
2.4453
2.44151
2.4259
2.40303
2.37537
2.34334
2.30357
1
1
1
1.00001
1.00001
1.00003
1.00007
1.0002
1.00042
1.00114
1.00257
1.0067
1.01602
1.04072
1.10307
1.2726
1.70322
2.2383
2.40436
2.41531
2.40497
2.38376
2.35856
2.32795
2.29353
1
1
1
1
1.00001
1.00002
1.00006
1.00012
1.00034
1.00074
1.00198
1.00456
1.01165
1.02822
1.07217
1.1855
1.4894
2.0765
2.34475
2.38639
2.38075
2.36369
2.33893
2.31348
2.28073
1
1
1
1
1.00001
1.00002
1.00004
1.00009
1.00023
1.00055
1.0014
1.00318
1.00855
1.01936
1.05185
1.12829
1.34325
1.85204
2.24833
2.35314
2.35697
2.34583
2.32302
2.29726
2.26857
1
1
1
1
1
1.00001
1.00003
1.00006
1.00016
1.00037
1.00096
1.00215
1.00584
1.01284
1.03487
1.0827
1.21989
1.56603
2.10605
2.30156
2.32769
2.32227
2.30513
2.28112
2.25496
1
1
1
1
1
1.00001
1.00002
1.00004
1.00012
1.00024
1.0007
1.00142
1.00416
1.00876
1.0242
1.05644
1.15085
1.38829
1.92362
2.23508
2.29926
2.29864
2.28548
2.26387
2.23932
1
1
1
1
1
1.00001
1.00001
1.00003
1.00007
1.00018
1.00045
1.00101
1.00275
1.00595
1.01646
1.03721
1.10005
1.25343
1.65618
2.11273
2.25783
2.27377
2.26609
2.24769
2.22412
1
1
1
1
1
1
1.00001
1.00002
1.00005
1.00013
1.00028
1.00072
1.00171
1.00415
1.01038
1.02492
1.06344
1.16127
1.42135
1.93316
2.19046
2.24275
2.24257
2.22951
2.20956
1
1
1
1
1
1
1.00001
1.00001
1.00003
1.00008
1.00018
1.00051
1.00102
1.003
1.00621
1.01737
1.03941
1.10527
1.26602
1.67737
2.07907
2.20387
2.21859
2.21184
2.1951
1
1
1
1
1
1
1
1.00001
1.00002
1.00005
1.00012
1.0003
1.0007
1.00183
1.00405
1.01098
1.02451
1.06555
1.16099
1.4241
1.9053
2.13804
2.18653
2.18882
2.17849
1
1
1
1
1
1
1
1.00001
1.00001
1.00003
1.00007
1.00021
1.00042
1.00123
1.00248
1.00714
1.01528
1.04148
1.09905
1.26232
1.6492
2.02934
2.14914
2.1656
2.16066
1
1
1
1
1
1
1
1
1.00001
1.00002
1.00005
1.00011
1.0003
1.00068
1.00171
1.00411
1.00988
1.02475
1.06032
1.15404
1.39973
1.85334
2.08242
2.13327
2.13795
1
1
1
1
1
1
1
1
1.00001
1.00001
1.00003
1.00007
1.00019
1.00042
1.00106
1.00252
1.00607
1.01516
1.03635
1.09259
1.23574
1.59043
1.96667
2.09414
2.11523
1
1
1
1
1
1
1
1
1
1.00001
1.00002
1.00004
1.00011
1.00025
1.00066
1.00145
1.00395
1.00844
1.02318
1.05262
1.13913
1.35374
1.78127
2.02148
2.08283
1
1
1
1
1
1
1
1
1
1
1.00001
1.00003
1.00007
1.00015
1.00039
1.0009
1.0022
1.00535
1.01272
1.03189
1.07767
1.19846
1.50019
1.88976
2.0398
1
1
1
1
1
1
1
1
1
1
1.00001
1.00002
1.00004
1.00009
1.00024
1.0005
1.00143
1.00289
1.00826
1.01766
1.04763
1.11326
1.29897
1.68458
1.96095
1
1
1
1
1
1
1
1
1
1
1
1.00001
1.00002
1.00006
1.00012
1.00034
1.00069
1.002
1.00406
1.01139
1.02481
1.06578
1.15902
1.41165
1.80397
1
1
1
1
1
1
1
1
1
1
1
1.00001
1.00001
1.00003
1.00008
1.00017
1.00048
1.00101
1.0027
1.00601
1.01543
1.03647
1.09252
1.23272
1.56757
1
1
1
1
1
1
1
1
1
1
1
1
1.00001
1.00002
1.00004
1.00011
1.00025
1.00062
1.00148
1.00351
1.00873
1.02039
1.0517
1.1267
1.32687
1
1
1
1
1
1
1
1
1
1
1
1
1
1.00001
1.00002
1.00006
1.00014
1.00036
1.00077
1.00213
1.00433
1.01226
1.02598
1.06979
1.16629
1
1
1
1
1
1
1
1
1
1
1
1
1
1.00001
1.00002
1.00003
1.00009
1.00018
1.00051
1.00104
1.00286
1.00619
1.01619
1.0374
1.09578
1
1
1
1
1
1
1
1
1
1
1
1
1
1
1.00001
1.00002
1.00005
1.0001
1.00029
1.00059
1.00168
1.0034
1.0095
1.0205
1.05428
1
1
1
1
1
1
1
1
1
1
1
1
1
1
1
1.00001
1.00003
1.00007
1.00017
1.00036
1.00099
1.00204
1.00573
1.01189
1.03263
1
1
1
1
1
1
1
1
1
1
1
1
1
1
1
1.00001
1.00002
1.00004
1.00012
1.00027
1.00065
1.00158
1.00375
1.00947
1.02214
1
1
1
1
1
1
1
1
1
1
1
1
1
1
1
1.00001
1.00002
1.00003
1.0001
1.0002
1.00058
1.00126
1.00337
1.00782
1.02007
1
1
1
1
1
1
1
1
1
1
1
1
1
1
1
1.00001
1.00001
1.00004
1.00008
1.00023
1.00045
1.00138
1.0028
1.00818
1.01819
1
1
1
1
1
1
1
1
1
1
1
1
1
1
1
1.00001
1.00001
1.00003
1.00008
1.0002
1.00049
1.00121
1.00307
1.00735
1.01926
1
1
1
1
1
1
1
1
1
1
1
1
1
1
1
1.00001
1.00001
1.00003
1.00008
1.00019
1.0005
1.00116
1.00314
1.00708
1.01949
1
1
1
1
1
1
1
1
1
1
1
1
1
1
1
1.00001
1.00001
1.00003
1.00008
1.0002
1.00046
1.00128
1.00276
1.00793
1.01755
1
1
1
1
1
1
1
1
1
1
1
1
1
1
1
1.00001
1.00001
1.00003
1.00007
1.00021
1.00046
1.00122
1.00292
1.00737
1.01852
1
1
1
1
1
1
1
1
1
1
1
1
1
1
1
1.00001
1.00001
1.00003
1.00008
1.0002
1.00048
1.00117
1.003
1.00714
1.01887
2.29216
2.30226
2.60917
2.70751
2.8655
2.86384
2.82083
2.80104
2.79151
2.77964
2.76344
2.74331
2.72764
2.7125
2.69933
2.68256
2.66734
2.64995
2.63687
2.62234
2.61101
2.59561
2.58461
2.57775
2.5746
2.57683
2.5846
2.6048
2.63179
2.66477
2.69863
2.73038
2.76047
2.78611
2.80875
2.82614
2.8432
2.85486
2.86805
2.87594
2.88251
2.88692
2.88976
2.89281
2.89336
2.89374
2.89353
2.89296
2.89118
2.88987
2.888
2.88535
2.8829
2.88037
2.87717
2.87398
2.87078
2.86771
2.86434
2.86097
2.85696
2.85311
2.84821
2.84408
2.8382
2.83374
2.82673
2.82166
2.81397
2.80771
2.79985
2.79244
2.784
2.77618
2.76714
2.75857
2.74944
2.74038
2.73081
2.72143
2.71175
2.70212
2.69215
2.68237
2.67234
2.66246
2.65228
2.64234
2.63227
2.62249
2.61248
2.6029
2.59326
2.58431
2.57538
2.56732
2.55973
2.5535
2.54864
2.54518
2.29602
2.32485
2.51603
2.63252
2.70922
2.80971
2.85485
2.89693
2.8961
2.85868
2.84325
2.82324
2.81147
2.80328
2.79179
2.77956
2.76402
2.74786
2.73719
2.72122
2.7115
2.69621
2.68345
2.67611
2.67343
2.67372
2.68283
2.69953
2.72387
2.75001
2.77602
2.79959
2.81854
2.83533
2.84771
2.85534
2.85894
2.8609
2.86115
2.85902
2.85367
2.85114
2.84585
2.84223
2.83804
2.83325
2.82888
2.82388
2.81867
2.81431
2.80875
2.80379
2.79888
2.79459
2.78915
2.78436
2.77878
2.77436
2.76866
2.76421
2.75799
2.75303
2.74649
2.74073
2.73392
2.72731
2.7199
2.71259
2.70449
2.69651
2.68782
2.67925
2.67002
2.66104
2.65133
2.642
2.63196
2.62238
2.6121
2.60235
2.59189
2.58206
2.57148
2.56164
2.55101
2.54115
2.53053
2.52078
2.5103
2.50068
2.49042
2.4811
2.47127
2.46247
2.45338
2.44543
2.43766
2.43145
2.42648
2.42319
2.29141
2.28006
2.33694
2.45601
2.51327
2.5726
2.64582
2.72883
2.80657
2.82971
2.85827
2.8808
2.89485
2.87826
2.85624
2.84214
2.82788
2.82194
2.81057
2.79922
2.79264
2.7829
2.77162
2.76606
2.76493
2.76698
2.77656
2.78906
2.80726
2.82259
2.83398
2.84097
2.84493
2.84675
2.84221
2.83504
2.82705
2.82027
2.81263
2.80494
2.7966
2.78882
2.77921
2.77224
2.76261
2.75518
2.74625
2.73927
2.73084
2.72426
2.71704
2.71136
2.7042
2.69913
2.69322
2.68893
2.68323
2.6791
2.67383
2.66967
2.66455
2.66004
2.65459
2.64973
2.64372
2.63821
2.63161
2.62533
2.61802
2.61102
2.60307
2.59535
2.58687
2.57856
2.56967
2.56084
2.55165
2.54244
2.53302
2.52354
2.51399
2.50432
2.49471
2.48489
2.47527
2.4654
2.45583
2.446
2.43653
2.42686
2.4176
2.40828
2.39936
2.39051
2.38215
2.3741
2.36695
2.36056
2.35593
2.35249
2.27761
2.24075
2.24645
2.29531
2.35475
2.39995
2.45863
2.51347
2.58529
2.65775
2.7128
2.76652
2.81269
2.83125
2.83669
2.84023
2.85148
2.85648
2.85445
2.84516
2.83496
2.82725
2.82212
2.82007
2.82043
2.82582
2.8287
2.83337
2.83545
2.83526
2.82971
2.82458
2.8171
2.81182
2.80186
2.79528
2.78321
2.77528
2.76187
2.75181
2.73787
2.72619
2.71229
2.70069
2.68692
2.67592
2.66306
2.65244
2.64086
2.63137
2.6206
2.61201
2.603
2.59504
2.58685
2.57989
2.57315
2.56719
2.56122
2.5556
2.55003
2.54474
2.5395
2.53424
2.52897
2.52348
2.518
2.51208
2.50622
2.49979
2.49344
2.48649
2.47964
2.47222
2.46492
2.45713
2.44943
2.44135
2.43332
2.42503
2.41671
2.40826
2.39968
2.39114
2.38233
2.37379
2.36483
2.35641
2.3474
2.33917
2.33027
2.32227
2.31356
2.3059
2.29776
2.29086
2.28388
2.27849
2.27392
2.27145
2.27133
2.22092
2.20088
2.21163
2.24454
2.27578
2.31678
2.35761
2.40594
2.45314
2.50682
2.5544
2.61307
2.67092
2.72416
2.75377
2.77395
2.78936
2.7993
2.80299
2.80504
2.80759
2.80974
2.81341
2.81317
2.81199
2.80806
2.8046
2.7959
2.78552
2.77387
2.76352
2.75221
2.74024
2.72799
2.71435
2.69997
2.68595
2.67095
2.65807
2.64347
2.63145
2.6178
2.60673
2.59417
2.58392
2.57245
2.56321
2.55283
2.54438
2.53546
2.52762
2.51942
2.51258
2.50524
2.49861
2.4917
2.48588
2.48007
2.4745
2.46845
2.46278
2.45693
2.45148
2.4456
2.44008
2.43401
2.42834
2.422
2.41609
2.40945
2.40327
2.39629
2.38983
2.38253
2.37583
2.36823
2.36134
2.35351
2.34644
2.33842
2.3312
2.32302
2.31565
2.30738
2.2999
2.29159
2.28403
2.27568
2.26805
2.25966
2.25207
2.24393
2.23664
2.229
2.22234
2.2157
2.21041
2.20596
2.20353
2.2676
2.21341
2.17895
2.16832
2.17586
2.19241
2.2158
2.24328
2.27536
2.30935
2.34442
2.38438
2.42309
2.46978
2.51203
2.5593
2.60161
2.64011
2.67461
2.70433
2.72473
2.73891
2.74784
2.755
2.75784
2.75848
2.75268
2.74034
2.719
2.69626
2.67056
2.64862
2.62821
2.61201
2.5955
2.58181
2.56671
2.55433
2.54143
2.53097
2.5197
2.51082
2.50084
2.49323
2.48409
2.47718
2.46874
2.46223
2.45456
2.44852
2.44142
2.4361
2.42978
2.42481
2.41916
2.41493
2.4096
2.40547
2.40086
2.3974
2.39281
2.38871
2.38381
2.37957
2.37458
2.37005
2.36476
2.3598
2.35413
2.34874
2.34267
2.33686
2.33041
2.32422
2.31743
2.31094
2.30388
2.29716
2.28989
2.283
2.27549
2.26848
2.26073
2.2536
2.24568
2.23847
2.23041
2.22314
2.21506
2.20786
2.19991
2.19284
2.18517
2.17836
2.17116
2.16487
2.15854
2.15343
2.14906
2.14676
2.26669
2.21182
2.17079
2.14629
2.13753
2.13928
2.14831
2.16297
2.1819
2.20464
2.22793
2.25492
2.2836
2.31438
2.34773
2.38107
2.41633
2.4512
2.48743
2.52213
2.55647
2.5881
2.61622
2.63575
2.65156
2.6581
2.65348
2.63233
2.59808
2.56194
2.5264
2.49541
2.47155
2.4566
2.44749
2.44109
2.43443
2.42949
2.42332
2.41885
2.41342
2.40952
2.40456
2.40102
2.39622
2.39253
2.38781
2.38415
2.3792
2.37536
2.37046
2.36619
2.36135
2.35732
2.35254
2.34834
2.34381
2.33991
2.33562
2.33199
2.32791
2.3241
2.31963
2.31572
2.3111
2.30701
2.30208
2.29765
2.29233
2.28753
2.28183
2.27671
2.27062
2.26519
2.25876
2.25306
2.24633
2.24039
2.23345
2.2273
2.22021
2.21389
2.20669
2.20015
2.19278
2.18606
2.17854
2.17171
2.16415
2.15724
2.14973
2.1428
2.13546
2.12866
2.1217
2.11532
2.10913
2.10378
2.09935
2.09673
2.26469
2.21215
2.16859
2.13641
2.11723
2.10715
2.1059
2.10959
2.118
2.13026
2.1447
2.16078
2.18051
2.20074
2.22453
2.24799
2.27386
2.30051
2.32884
2.36066
2.39227
2.42695
2.45779
2.48677
2.51497
2.53235
2.52975
2.50424
2.46632
2.42505
2.38621
2.35561
2.33118
2.31966
2.31805
2.32192
2.32656
2.33077
2.33265
2.33426
2.33375
2.333
2.33139
2.32999
2.32728
2.32542
2.32224
2.32018
2.31681
2.31436
2.31079
2.30823
2.30449
2.30168
2.29806
2.2951
2.29106
2.28795
2.28417
2.28102
2.27695
2.2733
2.26883
2.26504
2.26056
2.25671
2.25216
2.24808
2.24325
2.23879
2.23358
2.2287
2.22307
2.21777
2.21179
2.20614
2.19988
2.19392
2.18745
2.18118
2.17449
2.168
2.16109
2.15446
2.14745
2.14081
2.13378
2.12716
2.12015
2.11353
2.10661
2.10006
2.09332
2.08695
2.0805
2.07456
2.06868
2.0637
2.05929
2.05702
2.26297
2.21295
2.16936
2.13302
2.10748
2.08973
2.07979
2.07571
2.07601
2.07954
2.0869
2.09459
2.10605
2.11896
2.13299
2.15082
2.16637
2.18865
2.20846
2.23721
2.26559
2.29731
2.33085
2.36765
2.41157
2.4367
2.43287
2.40651
2.37029
2.32776
2.29061
2.25988
2.23842
2.22435
2.2208
2.22518
2.23473
2.24465
2.25319
2.25893
2.26266
2.26457
2.26547
2.26554
2.26506
2.26446
2.26316
2.26214
2.26009
2.25865
2.25643
2.25473
2.25243
2.25078
2.2482
2.24623
2.24347
2.24134
2.23855
2.23639
2.23319
2.23043
2.22663
2.22341
2.21933
2.21585
2.21158
2.20775
2.20318
2.19894
2.19401
2.1894
2.18413
2.17922
2.17364
2.16852
2.16269
2.15741
2.15131
2.14574
2.13931
2.1334
2.12667
2.1206
2.11374
2.10751
2.10055
2.09417
2.08718
2.08069
2.07372
2.06721
2.06035
2.05398
2.04737
2.04138
2.03532
2.03022
2.02559
2.02317
2.25918
2.21318
2.17074
2.13336
2.10306
2.08078
2.06435
2.0543
2.04808
2.04607
2.04647
2.04939
2.05318
2.06138
2.06755
2.08006
2.08961
2.10561
2.12288
2.14661
2.17327
2.20263
2.24123
2.29152
2.34653
2.37138
2.36407
2.33948
2.30369
2.26092
2.21941
2.18749
2.16571
2.14899
2.13996
2.1367
2.14133
2.15174
2.16501
2.17753
2.18814
2.19555
2.20146
2.20496
2.20777
2.20958
2.2106
2.21186
2.2121
2.21206
2.21187
2.21139
2.21025
2.20925
2.20717
2.20574
2.20298
2.20111
2.1985
2.19669
2.19394
2.19159
2.18849
2.18572
2.18235
2.17925
2.17556
2.17215
2.16804
2.16427
2.1597
2.15555
2.15052
2.14595
2.14053
2.13552
2.12981
2.12447
2.11851
2.11286
2.10674
2.10088
2.09462
2.08863
2.08224
2.07609
2.06959
2.06333
2.0568
2.05049
2.04397
2.03766
2.03119
2.02497
2.01865
2.01269
2.00676
2.00153
1.99684
1.9942
2.25452
2.21204
2.17185
2.13462
2.10306
2.07665
2.05664
2.04124
2.03062
2.02328
2.01899
2.01699
2.01714
2.0186
2.02171
2.02792
2.03531
2.04623
2.0634
2.08362
2.10915
2.14076
2.18884
2.25703
2.31493
2.33096
2.31939
2.29541
2.25821
2.21512
2.17285
2.14035
2.11573
2.10003
2.08929
2.08333
2.0828
2.08687
2.09721
2.11283
2.12765
2.14197
2.15227
2.16064
2.16595
2.17017
2.17279
2.17504
2.17636
2.17744
2.17831
2.17819
2.17787
2.17722
2.17579
2.17457
2.17213
2.1703
2.16777
2.16588
2.16308
2.16063
2.15749
2.15472
2.15127
2.14818
2.14441
2.14106
2.13697
2.13334
2.12894
2.12503
2.12035
2.11611
2.11113
2.10651
2.10124
2.09624
2.09062
2.08528
2.07938
2.07383
2.06772
2.06202
2.05575
2.04994
2.04355
2.03759
2.03111
2.02501
2.01851
2.01239
2.00597
1.99997
1.99374
1.98804
1.98219
1.97717
1.97244
1.96994
2.24756
2.20957
2.1715
2.13592
2.10359
2.07617
2.05266
2.03477
2.01984
2.00927
2.0009
1.99518
1.99146
1.98946
1.9896
1.99129
1.99604
2.00666
2.02238
2.04174
2.06813
2.10846
2.17423
2.25289
2.3014
2.30637
2.29217
2.26508
2.22718
2.18347
2.1448
2.11198
2.08624
2.06724
2.0538
2.0451
2.03974
2.03793
2.04074
2.04868
2.06257
2.07844
2.09438
2.10754
2.11821
2.12577
2.13137
2.13497
2.13788
2.13966
2.14121
2.14199
2.14285
2.14273
2.14242
2.14177
2.14027
2.13918
2.13724
2.136
2.1336
2.13155
2.12859
2.12609
2.12278
2.11994
2.11632
2.11323
2.10934
2.10601
2.10188
2.0983
2.09394
2.09003
2.08539
2.08108
2.07611
2.07144
2.06611
2.06116
2.05557
2.0504
2.04456
2.03914
2.0331
2.02744
2.02128
2.01543
2.0092
2.00322
1.99693
1.99087
1.98456
1.97851
1.97227
1.9664
1.96047
1.95524
1.9504
1.94768
2.23642
2.2037
2.16931
2.13562
2.10405
2.07613
2.05149
2.03081
2.0143
2.00004
1.98974
1.98059
1.97436
1.96948
1.96689
1.96704
1.97122
1.98184
1.99656
2.01762
2.05051
2.10646
2.19324
2.26877
2.29435
2.28944
2.27309
2.2437
2.20496
2.16407
2.12868
2.09747
2.07175
2.05005
2.03313
2.02104
2.01294
2.00772
2.00616
2.0076
2.01333
2.0249
2.04034
2.05734
2.0724
2.08559
2.09491
2.1024
2.107
2.11086
2.11281
2.11485
2.11543
2.11635
2.11613
2.11563
2.1144
2.1133
2.11132
2.1099
2.10739
2.10515
2.10196
2.09925
2.09571
2.09279
2.08908
2.08604
2.08222
2.07905
2.07515
2.07182
2.06778
2.06412
2.05978
2.05576
2.05103
2.0466
2.04148
2.03677
2.03139
2.02644
2.02087
2.01566
2.00991
2.00444
1.99852
1.99284
1.98682
1.981
1.97496
1.96914
1.96316
1.95743
1.95154
1.94603
1.94032
1.93535
1.93056
1.92798
2.22685
2.1961
2.16494
2.13381
2.1035
2.07584
2.05121
2.02892
2.01065
1.99511
1.9818
1.9718
1.9625
1.9567
1.95204
1.95215
1.95823
1.96866
1.98497
2.01107
2.05793
2.13886
2.23146
2.28185
2.28892
2.2792
2.25912
2.22727
2.18932
2.15348
2.12153
2.0921
2.0668
2.04373
2.02488
2.00886
1.99635
1.98815
1.98308
1.98008
1.97998
1.98332
1.9917
2.0046
2.02108
2.03707
2.05156
2.06297
2.07221
2.07796
2.08266
2.08507
2.08717
2.08789
2.08862
2.08833
2.08747
2.08658
2.08475
2.08361
2.0813
2.07944
2.07622
2.0737
2.07015
2.06735
2.06362
2.06063
2.05681
2.05371
2.04989
2.04666
2.04277
2.03932
2.03527
2.03154
2.02724
2.02315
2.0185
2.01407
2.0091
2.00437
1.99911
1.99414
1.98865
1.98346
1.9778
1.97244
1.96666
1.96115
1.95524
1.94964
1.94366
1.93807
1.93215
1.9267
1.92104
1.91604
1.9113
1.90855
2.21366
2.18712
2.15795
2.12973
2.10144
2.07469
2.05002
2.02842
2.00789
1.99194
1.97685
1.96522
1.95537
1.94782
1.94411
1.94586
1.9541
1.96623
1.9874
2.02631
2.09712
2.1958
2.26783
2.28818
2.28392
2.27194
2.24775
2.21515
2.1807
2.14937
2.11998
2.09282
2.06792
2.04469
2.02422
2.00543
1.99015
1.97758
1.96815
1.96236
1.95854
1.95744
1.95874
1.96407
1.97478
1.98915
2.0051
2.02088
2.0336
2.04426
2.05139
2.05658
2.05957
2.06159
2.06239
2.06269
2.06211
2.0613
2.05958
2.05851
2.05633
2.05448
2.05129
2.04866
2.04502
2.04202
2.03815
2.03498
2.03108
2.02786
2.02401
2.02075
2.0169
2.01352
2.00957
2.00604
2.00187
1.99812
1.99372
1.98967
1.98501
1.98067
1.97576
1.97109
1.9659
1.96094
1.95551
1.95034
1.94479
1.93952
1.9339
1.92859
1.92294
1.91765
1.91203
1.90688
1.90145
1.89676
1.89216
1.88967
2.20044
2.17655
2.15089
2.12423
2.09829
2.07296
2.04861
2.02718
2.00719
1.98926
1.97466
1.96088
1.95117
1.94316
1.94224
1.94698
1.95705
1.97426
2.0072
2.068
2.16572
2.25086
2.28646
2.28916
2.28091
2.2636
2.23697
2.20614
2.17692
2.14909
2.12228
2.09695
2.07243
2.04951
2.02793
2.00813
1.99044
1.97444
1.96137
1.95085
1.94369
1.93955
1.93687
1.93664
1.93922
1.94619
1.9585
1.97305
1.9888
2.00275
2.01447
2.02312
2.0291
2.03282
2.03476
2.0356
2.03548
2.03472
2.0331
2.03208
2.02999
2.02848
2.02545
2.02304
2.01943
2.01654
2.01266
2.00954
2.0056
2.00239
1.99849
1.99525
1.99138
1.98805
1.98411
1.98063
1.97652
1.97282
1.96857
1.9647
1.96029
1.95629
1.95175
1.94758
1.94284
1.9384
1.93338
1.92864
1.92337
1.91842
1.91296
1.9079
1.90235
1.8973
1.89184
1.8869
1.88172
1.8772
1.87283
1.87039
2.18634
2.16429
2.14099
2.11719
2.09222
2.06876
2.04598
2.02408
2.00543
1.98728
1.97221
1.95925
1.94915
1.94394
1.94619
1.95423
1.96948
1.99635
2.04966
2.14248
2.23663
2.28328
2.29193
2.28703
2.27571
2.25443
2.22789
2.20152
2.17615
2.15111
2.12661
2.10228
2.07854
2.05572
2.03357
2.01311
1.99348
1.97598
1.95992
1.94631
1.93515
1.92635
1.92121
1.91767
1.91602
1.91637
1.92039
1.92948
1.94222
1.95678
1.97111
1.98353
1.99344
2.0005
2.00489
2.00739
2.00823
2.00801
2.00672
2.00571
2.00375
2.0024
1.99966
1.99744
1.99396
1.99115
1.98727
1.98409
1.97999
1.97663
1.9725
1.96911
1.96503
1.96165
1.95764
1.95428
1.95031
1.94692
1.94299
1.93951
1.93545
1.93179
1.92752
1.92362
1.91911
1.91493
1.91017
1.90575
1.9008
1.89622
1.89115
1.88647
1.88134
1.87662
1.87151
1.86686
1.86192
1.85768
1.85349
1.85124
2.17283
2.1517
2.13065
2.10929
2.08706
2.06452
2.04321
2.02224
2.00294
1.98568
1.96993
1.95773
1.94971
1.95008
1.9568
1.96883
1.99241
2.04023
2.12345
2.22235
2.28006
2.29481
2.29222
2.28454
2.26906
2.24545
2.22191
2.19844
2.17603
2.15264
2.1298
2.10627
2.08372
2.06078
2.03918
2.0178
1.99793
1.97891
1.9616
1.94561
1.93159
1.9197
1.90975
1.90308
1.89862
1.89565
1.89433
1.89565
1.90113
1.91103
1.92384
1.93749
1.95058
1.96135
1.96965
1.97494
1.97814
1.97923
1.97909
1.97815
1.97633
1.97515
1.97267
1.97073
1.96728
1.96464
1.9608
1.95778
1.95373
1.95051
1.94639
1.94308
1.93901
1.93568
1.93171
1.92833
1.92443
1.92102
1.91713
1.91371
1.90979
1.90636
1.9024
1.89891
1.89484
1.89116
1.88688
1.88294
1.87841
1.87424
1.86951
1.86515
1.86033
1.85588
1.8511
1.84675
1.84217
1.83825
1.83439
1.83232
2.15954
2.13843
2.11801
2.09836
2.07835
2.05773
2.03769
2.01843
2.00002
1.98373
1.96982
1.95886
1.95619
1.96113
1.97216
1.99338
2.03612
2.11284
2.20931
2.27439
2.29593
2.29566
2.28955
2.27675
2.25766
2.23678
2.21645
2.19606
2.17545
2.15421
2.13254
2.11046
2.08788
2.0659
2.04379
2.02294
2.00215
1.98293
1.96414
1.94706
1.93092
1.91656
1.90387
1.89324
1.88491
1.8793
1.87503
1.87236
1.87116
1.87353
1.87999
1.89069
1.90307
1.91607
1.92764
1.93715
1.94387
1.94805
1.95002
1.95001
1.94892
1.94792
1.94586
1.94428
1.9411
1.9387
1.93496
1.93214
1.92813
1.92496
1.92078
1.91738
1.91322
1.90975
1.9057
1.90223
1.89825
1.89491
1.89106
1.88786
1.8841
1.88094
1.87719
1.87394
1.8701
1.86671
1.86273
1.85917
1.85508
1.85135
1.84715
1.84327
1.83897
1.835
1.83069
1.82681
1.82266
1.81918
1.81571
1.81389
2.146
2.12691
2.10779
2.08878
2.07028
2.05125
2.03202
2.0141
1.99659
1.98141
1.96951
1.96454
1.96785
1.97839
1.99765
2.03658
2.10754
2.20167
2.2701
2.29585
2.29837
2.29344
2.28264
2.26614
2.24767
2.22996
2.21237
2.19413
2.1752
2.15487
2.13398
2.11225
2.09056
2.06891
2.04746
2.02642
2.00577
1.98594
1.96672
1.9487
1.93149
1.91542
1.90095
1.88728
1.87624
1.86614
1.85946
1.85354
1.84973
1.84684
1.84668
1.85025
1.85791
1.86886
1.8811
1.89325
1.90358
1.91174
1.91686
1.9198
1.9204
1.91984
1.91843
1.91723
1.91471
1.91259
1.90891
1.90615
1.9021
1.899
1.89481
1.89152
1.88733
1.88391
1.8798
1.87628
1.87229
1.86889
1.86512
1.8619
1.8583
1.85527
1.85176
1.84882
1.84534
1.84237
1.83885
1.83577
1.83215
1.82892
1.82519
1.8218
1.81798
1.81452
1.81069
1.80733
1.8037
1.80073
1.7978
1.79627
2.13059
2.11459
2.09546
2.07713
2.05992
2.04291
2.02552
2.00885
1.99363
1.98075
1.97349
1.97558
1.98564
2.00355
2.03971
2.1059
2.19728
2.26775
2.29591
2.30011
2.29579
2.28613
2.2708
2.25424
2.23845
2.22315
2.20728
2.19023
2.17189
2.15257
2.13243
2.11192
2.09095
2.06993
2.0488
2.02806
2.00753
1.98794
1.96836
1.95002
1.93166
1.91501
1.89858
1.88381
1.87001
1.85762
1.84718
1.83837
1.83205
1.82626
1.82297
1.82064
1.82151
1.82598
1.83501
1.84563
1.85796
1.86863
1.87818
1.88448
1.88875
1.89019
1.89008
1.88913
1.88738
1.88588
1.88284
1.8802
1.87627
1.87336
1.86914
1.86613
1.86176
1.85864
1.85419
1.85105
1.84675
1.84371
1.83968
1.83677
1.83308
1.83028
1.82688
1.82415
1.82093
1.81823
1.81508
1.81232
1.80916
1.80633
1.80308
1.8002
1.79689
1.794
1.79076
1.78799
1.78502
1.78266
1.78042
1.7793
2.11366
2.10205
2.08458
2.06685
2.04967
2.03394
2.01769
2.00319
1.99007
1.98246
1.9837
1.99357
2.01093
2.04511
2.10811
2.19608
2.2672
2.29688
2.30179
2.29748
2.28771
2.27247
2.25689
2.24254
2.22913
2.21503
2.20018
2.18379
2.16668
2.14824
2.12935
2.10942
2.08935
2.0688
2.04836
2.02808
2.0079
1.98827
1.96863
1.95005
1.93134
1.91417
1.8967
1.88125
1.86549
1.85198
1.83868
1.82762
1.81782
1.81019
1.80392
1.79855
1.79576
1.79427
1.79615
1.80192
1.81124
1.822
1.8334
1.84331
1.85158
1.8567
1.85993
1.86029
1.85978
1.85856
1.85705
1.85437
1.85137
1.84782
1.84441
1.84077
1.83713
1.83348
1.82962
1.82597
1.82213
1.8187
1.81499
1.8119
1.80832
1.80557
1.80216
1.79972
1.79647
1.79423
1.7911
1.78893
1.7859
1.78363
1.78076
1.77838
1.77563
1.77332
1.77071
1.76863
1.7664
1.76477
1.76333
1.76271
2.09182
2.08718
2.07398
2.05668
2.04017
2.02536
2.01122
1.99887
1.99038
1.99133
2.00136
2.01825
2.05135
2.11314
2.19873
2.26841
2.29752
2.30263
2.29827
2.2877
2.27273
2.25668
2.2439
2.23117
2.2195
2.20606
2.19228
2.17644
2.16022
2.14221
2.12427
2.10477
2.08589
2.06561
2.04639
2.02595
2.00678
1.98665
1.96786
1.94851
1.93031
1.91221
1.8948
1.87832
1.86192
1.84733
1.83239
1.81999
1.80726
1.79767
1.7882
1.78169
1.77471
1.77086
1.76826
1.76786
1.77063
1.77726
1.78659
1.79775
1.80816
1.81758
1.82432
1.82868
1.83059
1.83053
1.8297
1.82849
1.82619
1.82346
1.81975
1.81646
1.8125
1.80911
1.8051
1.80168
1.79777
1.79443
1.79069
1.78758
1.78402
1.78123
1.77793
1.7754
1.77243
1.7701
1.76744
1.76532
1.76283
1.76094
1.75854
1.7568
1.75458
1.75302
1.75109
1.74991
1.74843
1.74784
1.74726
1.74716
2.0676
2.06916
2.06083
2.04666
2.02913
2.01538
2.00364
1.99617
1.99739
2.00792
2.02554
2.05918
2.1206
2.20489
2.27278
2.30022
2.30466
2.29985
2.28814
2.27144
2.25564
2.24263
2.23133
2.22014
2.2087
2.19588
2.18229
2.1671
2.15136
2.13421
2.11682
2.09828
2.07986
2.06049
2.04167
2.02189
2.00314
1.98332
1.96499
1.9455
1.92788
1.90912
1.8924
1.87473
1.85897
1.84276
1.82798
1.81361
1.80011
1.78802
1.77641
1.76745
1.75851
1.75213
1.74555
1.74278
1.74061
1.74141
1.74508
1.75253
1.76208
1.77305
1.78276
1.79142
1.79701
1.80074
1.80164
1.80143
1.80047
1.79907
1.79645
1.79296
1.78952
1.78556
1.78206
1.77813
1.77457
1.77085
1.76727
1.76386
1.76042
1.75737
1.75427
1.75155
1.74891
1.74648
1.74432
1.7422
1.74039
1.73868
1.73704
1.7358
1.73435
1.73352
1.73261
1.7321
1.73214
1.73228
1.73322
1.73331
2.03793
2.05067
2.04785
2.03677
2.02176
2.00754
1.99955
2.00103
2.01277
2.03099
2.06647
2.12952
2.21384
2.27952
2.30465
2.30775
2.30216
2.28873
2.26966
2.25377
2.24059
2.23004
2.21933
2.20884
2.19689
2.1846
2.17071
2.15654
2.14083
2.12492
2.1077
2.09042
2.0722
2.05404
2.03526
2.01671
1.99777
1.97916
1.96049
1.94201
1.92406
1.90588
1.88893
1.8712
1.85535
1.83827
1.82355
1.80752
1.79403
1.77959
1.76758
1.75541
1.74548
1.7365
1.72871
1.72216
1.71693
1.71483
1.71362
1.71537
1.72019
1.72838
1.73834
1.74891
1.75821
1.76582
1.77061
1.77333
1.77368
1.77322
1.77224
1.77019
1.767
1.76365
1.75968
1.7563
1.75239
1.74908
1.74537
1.74203
1.73862
1.73533
1.73234
1.7293
1.72678
1.7241
1.72204
1.71984
1.71819
1.71664
1.7154
1.7146
1.71389
1.71389
1.7141
1.71452
1.71558
1.71738
1.71931
1.72052
1.98298
2.02163
2.02841
2.02415
2.01492
2.00477
2.00403
2.01567
2.03506
2.07366
2.1401
2.22611
2.28864
2.31142
2.31192
2.30537
2.28949
2.26937
2.25215
2.23892
2.22779
2.21772
2.20732
2.1965
2.18462
2.1721
2.15847
2.14433
2.12916
2.1137
2.09724
2.08068
2.06314
2.0457
2.02748
2.00954
1.9911
1.97309
1.95475
1.93703
1.91898
1.9017
1.88412
1.86728
1.85048
1.83416
1.81847
1.80278
1.78839
1.77356
1.76061
1.74705
1.73594
1.72438
1.71582
1.70667
1.7
1.69321
1.69027
1.68826
1.68869
1.69125
1.69709
1.70582
1.71604
1.72595
1.73474
1.74114
1.74524
1.74684
1.7468
1.74625
1.74482
1.74219
1.73888
1.73507
1.7317
1.72786
1.72467
1.72105
1.71795
1.71463
1.71161
1.70872
1.70595
1.70361
1.70126
1.69955
1.69775
1.69675
1.69574
1.69558
1.69579
1.69633
1.69747
1.69915
1.70107
1.70439
1.70856
1.71093
1.88401
1.98899
2.00956
2.01175
2.00798
2.00804
2.01758
2.03976
2.08074
2.15133
2.23937
2.29926
2.31983
2.31804
2.3087
2.29005
2.26892
2.25135
2.2375
2.22624
2.21616
2.20606
2.19556
2.18418
2.17216
2.15933
2.14592
2.13188
2.11726
2.10213
2.08643
2.07035
2.05375
2.03695
2.01968
2.00242
1.98471
1.96726
1.9494
1.93202
1.91422
1.89713
1.87957
1.86304
1.8459
1.83012
1.81355
1.79858
1.78278
1.76869
1.75395
1.74095
1.72758
1.71618
1.70461
1.6955
1.68631
1.67899
1.67178
1.6675
1.66464
1.66445
1.66568
1.66914
1.6761
1.68546
1.69575
1.7053
1.71336
1.71883
1.72208
1.72285
1.7226
1.72175
1.71977
1.71676
1.71304
1.70952
1.70565
1.70244
1.69881
1.69584
1.69262
1.6898
1.68714
1.6846
1.68262
1.6806
1.67946
1.67824
1.6782
1.6785
1.67922
1.68072
1.68228
1.68545
1.6894
1.69481
1.70103
1.70486
1.69907
1.91778
1.98167
1.99907
2.00701
2.01859
2.04308
2.09116
2.17029
2.25917
2.31269
2.3291
2.3256
2.31254
2.29106
2.26855
2.25054
2.23613
2.22486