/*--------------------------------*- C++ -*----------------------------------*\
  =========                 |
  \\      /  F ield         | OpenFOAM: The Open Source CFD Toolbox
   \\    /   O peration     | Website:  https://openfoam.org
    \\  /    A nd           | Version:  10
     \\/     M anipulation  |
\*---------------------------------------------------------------------------*/
FoamFile
{
    format      ascii;
    class       volVectorField;
    location    "6";
    object      U;
}
// * * * * * * * * * * * * * * * * * * * * * * * * * * * * * * * * * * * * * //

dimensions      [0 1 -1 0 0 0 0];

internalField   nonuniform List<vector> 
5250
(
(3 3.83044e-08 0)
(2.99999 -3.27431e-08 0)
(2.99996 6.01019e-07 0)
(2.99991 -2.91037e-07 0)
(2.99977 4.13286e-06 0)
(2.99942 -1.20928e-06 0)
(2.99859 2.51707e-05 0)
(2.99646 -4.62803e-06 0)
(2.99133 0.000142337 0)
(2.97814 4.91462e-05 0)
(2.94418 0.000663667 0)
(2.85009 0.000985963 0)
(2.57658 0.00360341 0)
(1.78209 0.00968714 0)
(0.820626 0.0259586 0)
(0.465822 0.024244 0)
(0.537414 0.024432 0)
(0.55443 0.0262636 0)
(0.500155 0.0280846 0)
(0.410714 0.0298908 0)
(0.327147 0.0320743 0)
(0.259141 0.0346197 0)
(0.190882 0.0372427 0)
(0.113845 0.0402324 0)
(0.0490702 0.0442926 0)
(3 6.1892e-08 0)
(2.99999 1.44152e-07 0)
(2.99996 1.11092e-06 0)
(2.99991 1.42847e-06 0)
(2.99977 8.02471e-06 0)
(2.99944 9.9931e-06 0)
(2.99859 5.0989e-05 0)
(2.99656 6.18999e-05 0)
(2.99137 0.000305257 0)
(2.97858 0.000441313 0)
(2.94494 0.00166802 0)
(2.85256 0.00358021 0)
(2.58376 0.010785 0)
(1.79991 0.03034 0)
(0.830886 0.0791096 0)
(0.461983 0.0699401 0)
(0.53677 0.0673113 0)
(0.554998 0.0702732 0)
(0.500458 0.0732089 0)
(0.411102 0.0761848 0)
(0.327636 0.0796528 0)
(0.259141 0.0834361 0)
(0.189948 0.0868362 0)
(0.111681 0.0900263 0)
(0.0463572 0.0928373 0)
(3 4.16885e-08 0)
(2.99999 4.60379e-07 0)
(2.99996 1.12135e-06 0)
(2.99991 4.52144e-06 0)
(2.99978 8.3827e-06 0)
(2.99946 3.06013e-05 0)
(2.99863 5.09379e-05 0)
(2.99668 0.000191274 0)
(2.99164 0.000322654 0)
(2.97928 0.00111442 0)
(2.94679 0.0022847 0)
(2.85767 0.00671575 0)
(2.59903 0.0177954 0)
(1.84015 0.0520084 0)
(0.855282 0.13641 0)
(0.457765 0.118632 0)
(0.5392 0.112899 0)
(0.560317 0.118024 0)
(0.505733 0.123582 0)
(0.416837 0.129834 0)
(0.333629 0.136463 0)
(0.264515 0.143409 0)
(0.194083 0.149934 0)
(0.114066 0.155669 0)
(0.046519 0.159201 0)
(3 8.42681e-08 0)
(2.99999 5.33007e-07 0)
(2.99997 1.89671e-06 0)
(2.99991 5.25665e-06 0)
(2.99979 1.39222e-05 0)
(2.99947 3.57725e-05 0)
(2.99872 8.53323e-05 0)
(2.99679 0.000226358 0)
(2.99214 0.00052123 0)
(2.98021 0.00139805 0)
(2.9496 0.00336627 0)
(2.86555 0.00902541 0)
(2.62153 0.0248291 0)
(1.90305 0.0718673 0)
(0.893478 0.192474 0)
(0.453766 0.167154 0)
(0.545235 0.158116 0)
(0.571061 0.165323 0)
(0.516799 0.173619 0)
(0.428644 0.183623 0)
(0.345483 0.193795 0)
(0.275572 0.204379 0)
(0.203473 0.214751 0)
(0.120515 0.223846 0)
(0.0488538 0.228629 0)
(3 1.21705e-07 0)
(2.99999 5.99346e-07 0)
(2.99997 2.49223e-06 0)
(2.99992 5.90089e-06 0)
(2.9998 1.87007e-05 0)
(2.99952 3.9275e-05 0)
(2.99879 0.000120856 0)
(2.99704 0.00024278 0)
(2.99262 0.000737883 0)
(2.98165 0.00155912 0)
(2.95313 0.00441555 0)
(2.87568 0.0108697 0)
(2.6515 0.0308411 0)
(1.98673 0.0886195 0)
(0.947852 0.243768 0)
(0.454358 0.215416 0)
(0.556699 0.203271 0)
(0.58824 0.211876 0)
(0.534469 0.222608 0)
(0.447191 0.236656 0)
(0.363707 0.250854 0)
(0.292593 0.265725 0)
(0.218246 0.280796 0)
(0.131049 0.294378 0)
(0.0533019 0.301425 0)
(3 1.1523e-07 0)
(2.99999 7.36152e-07 0)
(2.99997 2.50878e-06 0)
(2.99993 7.23282e-06 0)
(2.99982 1.897e-05 0)
(2.99956 4.81181e-05 0)
(2.99889 0.000121746 0)
(2.9973 0.00029979 0)
(2.99324 0.000757994 0)
(2.98328 0.00187271 0)
(2.95737 0.00478756 0)
(2.88759 0.0124677 0)
(2.68697 0.034569 0)
(2.0893 0.100391 0)
(1.02078 0.286011 0)
(0.46784 0.266067 0)
(0.576827 0.252741 0)
(0.613787 0.260736 0)
(0.560824 0.272544 0)
(0.474598 0.290489 0)
(0.39017 0.309206 0)
(0.317304 0.329336 0)
(0.240044 0.350611 0)
(0.14708 0.370866 0)
(0.0606239 0.382565 0)
(3 1.07114e-07 0)
(2.99999 7.57477e-07 0)
(2.99997 2.40941e-06 0)
(2.99994 7.4049e-06 0)
(2.99984 1.79177e-05 0)
(2.9996 4.96429e-05 0)
(2.999 0.000113248 0)
(2.99757 0.000312282 0)
(2.99393 0.000708119 0)
(2.98501 0.00193665 0)
(2.96197 0.00459093 0)
(2.90056 0.0124073 0)
(2.72559 0.0335747 0)
(2.20756 0.0976079 0)
(1.12334 0.286867 0)
(0.51562 0.305606 0)
(0.614564 0.303661 0)
(0.65179 0.310969 0)
(0.599382 0.323632 0)
(0.514237 0.345808 0)
(0.427936 0.369976 0)
(0.35238 0.396608 0)
(0.271544 0.426016 0)
(0.171472 0.456347 0)
(0.0728023 0.477715 0)
(3 1.04918e-07 0)
(2.99999 6.75755e-07 0)
(2.99998 2.28965e-06 0)
(2.99994 6.61509e-06 0)
(2.99985 1.70917e-05 0)
(2.99964 4.39353e-05 0)
(2.99911 0.000108719 0)
(2.9978 0.000271364 0)
(2.99459 0.000670241 0)
(2.98651 0.00166615 0)
(2.9661 0.00416646 0)
(2.91182 0.0106966 0)
(2.75836 0.028888 0)
(2.30692 0.082092 0)
(1.23157 0.244443 0)
(0.561265 0.337115 0)
(0.6416 0.361107 0)
(0.680061 0.362552 0)
(0.635933 0.375646 0)
(0.557735 0.401998 0)
(0.473053 0.433038 0)
(0.397082 0.468006 0)
(0.314535 0.508186 0)
(0.208417 0.553773 0)
(0.0936644 0.595802 0)
(3 1.0444e-07 0)
(2.99999 6.30389e-07 0)
(2.99998 2.18218e-06 0)
(2.99995 6.13016e-06 0)
(2.99987 1.63374e-05 0)
(2.99968 3.96338e-05 0)
(2.99919 0.000104934 0)
(2.99804 0.000239321 0)
(2.99509 0.000646088 0)
(2.98792 0.00145343 0)
(2.96951 0.0038969 0)
(2.92112 0.00945875 0)
(2.78492 0.0257246 0)
(2.38414 0.0715182 0)
(1.35265 0.211965 0)
(0.623142 0.382576 0)
(0.653553 0.416674 0)
(0.685755 0.413083 0)
(0.661894 0.428256 0)
(0.598364 0.456699 0)
(0.521594 0.496177 0)
(0.450035 0.541504 0)
(0.371163 0.595344 0)
(0.266114 0.665705 0)
(0.13165 0.75183 0)
(3 8.43138e-08 0)
(2.99999 6.71335e-07 0)
(2.99998 1.92589e-06 0)
(2.99995 6.50943e-06 0)
(2.99988 1.43922e-05 0)
(2.99971 4.24949e-05 0)
(2.99928 9.1427e-05 0)
(2.99825 0.000259555 0)
(2.9956 0.000566188 0)
(2.98922 0.0015577 0)
(2.97278 0.00357145 0)
(2.92993 0.00954543 0)
(2.81001 0.0246105 0)
(2.45832 0.0694482 0)
(1.50313 0.203433 0)
(0.71462 0.432189 0)
(0.65961 0.45498 0)
(0.688644 0.454853 0)
(0.682482 0.475389 0)
(0.636003 0.507011 0)
(0.573561 0.555008 0)
(0.511543 0.611625 0)
(0.446826 0.68571 0)
(0.361154 0.79958 0)
(0.203326 1.00592 0)
(3 9.55076e-08 0)
(2.99999 6.24617e-07 0)
(2.99998 2.09187e-06 0)
(2.99996 6.12505e-06 0)
(2.9999 1.55365e-05 0)
(2.99974 4.05098e-05 0)
(2.99937 9.78153e-05 0)
(2.99843 0.00024857 0)
(2.99617 0.000600166 0)
(2.99042 0.00151552 0)
(2.97617 0.00372595 0)
(2.93861 0.00950334 0)
(2.83486 0.0249531 0)
(2.53202 0.0696735 0)
(1.67497 0.202778 0)
(0.827375 0.479622 0)
(0.665869 0.487418 0)
(0.696959 0.489583 0)
(0.705279 0.513002 0)
(0.674516 0.550572 0)
(0.629088 0.604343 0)
(0.585595 0.672027 0)
(0.554707 0.765396 0)
(0.552075 0.909001 0)
(0.589649 1.15237 0)
(3 1.01706e-07 0)
(2.99999 6.16857e-07 0)
(2.99999 2.18561e-06 0)
(2.99996 6.06263e-06 0)
(2.99991 1.62172e-05 0)
(2.99978 4.03827e-05 0)
(2.99945 0.000102097 0)
(2.99867 0.000249192 0)
(2.99666 0.000625969 0)
(2.99182 0.00153118 0)
(2.97944 0.00385392 0)
(2.94762 0.00968142 0)
(2.86015 0.0254381 0)
(2.60637 0.0705719 0)
(1.86856 0.204365 0)
(0.962086 0.523403 0)
(0.678767 0.520615 0)
(0.712336 0.521374 0)
(0.73369 0.543205 0)
(0.71685 0.585922 0)
(0.68844 0.643325 0)
(0.667803 0.718593 0)
(0.672356 0.820221 0)
(0.729958 0.960116 0)
(0.871061 1.14263 0)
(3 9.20664e-08 0)
(3 6.27023e-07 0)
(2.99999 2.05961e-06 0)
(2.99997 6.14775e-06 0)
(2.99993 1.53911e-05 0)
(2.99981 4.13192e-05 0)
(2.99955 9.73143e-05 0)
(2.99887 0.000258597 0)
(2.99724 0.000601437 0)
(2.99311 0.00158621 0)
(2.98296 0.00378824 0)
(2.95661 0.00984846 0)
(2.88562 0.0253751 0)
(2.68164 0.0705417 0)
(2.07823 0.20433 0)
(1.12207 0.560193 0)
(0.712912 0.562759 0)
(0.741939 0.561545 0)
(0.771876 0.573713 0)
(0.766694 0.615383 0)
(0.751728 0.674014 0)
(0.751452 0.749632 0)
(0.781162 0.846145 0)
(0.86328 0.962485 0)
(1.02242 1.0758 0)
(3 8.92848e-08 0)
(3 5.3361e-07 0)
(2.99999 1.93513e-06 0)
(2.99998 5.21639e-06 0)
(2.99994 1.43809e-05 0)
(2.99985 3.50215e-05 0)
(2.99963 9.04389e-05 0)
(2.99909 0.000220305 0)
(2.99776 0.000552908 0)
(2.99448 0.00137001 0)
(2.98633 0.00340288 0)
(2.96563 0.00859138 0)
(2.91084 0.0221239 0)
(2.75682 0.0603872 0)
(2.30665 0.173653 0)
(1.33689 0.507287 0)
(0.804716 0.587956 0)
(0.800407 0.60545 0)
(0.824513 0.611074 0)
(0.82817 0.644658 0)
(0.820605 0.698803 0)
(0.831275 0.767942 0)
(0.873878 0.850494 0)
(0.961061 0.940836 0)
(1.11068 1.01393 0)
(3 7.30056e-08 0)
(3 4.56284e-07 0)
(2.99999 1.58613e-06 0)
(2.99998 4.46097e-06 0)
(2.99995 1.1755e-05 0)
(2.99988 2.95186e-05 0)
(2.9997 7.35897e-05 0)
(2.99926 0.000181533 0)
(2.9982 0.00044625 0)
(2.99549 0.00110565 0)
(2.98897 0.00270483 0)
(2.97224 0.00678441 0)
(2.92873 0.0170962 0)
(2.80794 0.0454577 0)
(2.4568 0.127264 0)
(1.54932 0.381545 0)
(0.895772 0.616059 0)
(0.846164 0.649341 0)
(0.866942 0.657899 0)
(0.884331 0.677421 0)
(0.886815 0.721056 0)
(0.904033 0.779473 0)
(0.951229 0.84645 0)
(1.03569 0.915065 0)
(1.16916 0.966691 0)
(3 6.4866e-08 0)
(3 3.80824e-07 0)
(2.99999 1.37592e-06 0)
(2.99998 3.72006e-06 0)
(2.99996 1.01978e-05 0)
(2.9999 2.45422e-05 0)
(2.99976 6.4414e-05 0)
(2.9994 0.000149875 0)
(2.99853 0.000392238 0)
(2.99636 0.000907182 0)
(2.99106 0.00237225 0)
(2.97761 0.00562555 0)
(2.94294 0.0145816 0)
(2.84734 0.0376141 0)
(2.57196 0.104413 0)
(1.7962 0.306585 0)
(1.03026 0.659786 0)
(0.875371 0.686834 0)
(0.893419 0.697939 0)
(0.923206 0.706753 0)
(0.942487 0.739967 0)
(0.967069 0.787759 0)
(1.01565 0.84123 0)
(1.09491 0.893324 0)
(1.21191 0.931493 0)
(3 5.78509e-08 0)
(3 3.31476e-07 0)
(2.99999 1.22949e-06 0)
(2.99999 3.22828e-06 0)
(2.99997 9.10202e-06 0)
(2.99992 2.14489e-05 0)
(2.99981 5.72688e-05 0)
(2.99953 0.000133155 0)
(2.99883 0.000348245 0)
(2.99714 0.000818504 0)
(2.9929 0.00211198 0)
(2.98241 0.00507597 0)
(2.95532 0.0130875 0)
(2.88231 0.0335778 0)
(2.67307 0.092988 0)
(2.06049 0.269302 0)
(1.21032 0.685386 0)
(0.914799 0.718224 0)
(0.922058 0.727867 0)
(0.956653 0.730651 0)
(0.990232 0.753584 0)
(1.02167 0.7927 0)
(1.07012 0.836132 0)
(1.14339 0.876402 0)
(1.24567 0.905118 0)
(3 4.36381e-08 0)
(3 2.9781e-07 0)
(3 9.59678e-07 0)
(2.99999 2.90569e-06 0)
(2.99998 7.16479e-06 0)
(2.99994 1.91471e-05 0)
(2.99985 4.56419e-05 0)
(2.99964 0.000117254 0)
(2.99911 0.000282157 0)
(2.99783 0.000710347 0)
(2.99461 0.00173906 0)
(2.98676 0.00433748 0)
(2.96667 0.0108666 0)
(2.91394 0.0279931 0)
(2.76663 0.0758834 0)
(2.33592 0.218139 0)
(1.46009 0.617812 0)
(1.00892 0.730342 0)
(0.974381 0.750409 0)
(0.996992 0.756062 0)
(1.03679 0.768076 0)
(1.07316 0.797568 0)
(1.11923 0.832252 0)
(1.18536 0.863626 0)
(1.27454 0.885356 0)
(3 3.41821e-08 0)
(3 2.37065e-07 0)
(3 7.62399e-07 0)
(2.99999 2.309e-06 0)
(2.99998 5.67049e-06 0)
(2.99995 1.52237e-05 0)
(2.99989 3.55372e-05 0)
(2.99973 9.32911e-05 0)
(2.99933 0.00021614 0)
(2.99835 0.000561454 0)
(2.99593 0.00131563 0)
(2.99001 0.00338048 0)
(2.97505 0.00813063 0)
(2.93632 0.020985 0)
(2.83039 0.0547356 0)
(2.52505 0.153681 0)
(1.72913 0.457521 0)
(1.12248 0.737937 0)
(1.02732 0.772007 0)
(1.03779 0.785961 0)
(1.07734 0.788952 0)
(1.11902 0.806724 0)
(1.16347 0.831905 0)
(1.22284 0.855427 0)
(1.30075 0.871387 0)
(3 2.9113e-08 0)
(3 1.79868e-07 0)
(3 6.34886e-07 0)
(2.99999 1.75403e-06 0)
(2.99999 4.69741e-06 0)
(2.99997 1.16601e-05 0)
(2.99992 2.91832e-05 0)
(2.99979 7.22669e-05 0)
(2.9995 0.000174968 0)
(2.99875 0.000440531 0)
(2.99695 0.00104857 0)
(2.99244 0.00267699 0)
(2.98133 0.00641013 0)
(2.95259 0.0164525 0)
(2.87529 0.0421196 0)
(2.65483 0.115892 0)
(2.02299 0.340298 0)
(1.28728 0.755653 0)
(1.07229 0.801783 0)
(1.07066 0.815688 0)
(1.10728 0.813654 0)
(1.15588 0.817375 0)
(1.20161 0.833389 0)
(1.25615 0.850506 0)
(1.32494 0.861942 0)
(3 2.38135e-08 0)
(3 1.40697e-07 0)
(3 5.06458e-07 0)
(3 1.37566e-06 0)
(2.99999 3.7526e-06 0)
(2.99997 9.10688e-06 0)
(2.99994 2.36582e-05 0)
(2.99985 5.58178e-05 0)
(2.99963 0.00014395 0)
(2.99908 0.000339436 0)
(2.99779 0.00087018 0)
(2.99448 0.00206848 0)
(2.98652 0.00529373 0)
(2.96605 0.0129011 0)
(2.91238 0.0336923 0)
(2.76299 0.0902901 0)
(2.32493 0.260855 0)
(1.53144 0.694336 0)
(1.15676 0.814034 0)
(1.11792 0.833709 0)
(1.13859 0.836398 0)
(1.18682 0.830768 0)
(1.23654 0.837168 0)
(1.28761 0.848215 0)
(1.34856 0.855961 0)
(3 1.74945e-08 0)
(3 1.11265e-07 0)
(3 3.77604e-07 0)
(3 1.08336e-06 0)
(2.99999 2.79454e-06 0)
(2.99998 7.11715e-06 0)
(2.99996 1.75778e-05 0)
(2.99989 4.32489e-05 0)
(2.99973 0.000107213 0)
(2.99935 0.000258812 0)
(2.99839 0.000648832 0)
(2.99612 0.00155668 0)
(2.99036 0.00392841 0)
(2.97624 0.0095793 0)
(2.93951 0.0244263 0)
(2.83998 0.064183 0)
(2.55519 0.179601 0)
(1.82819 0.524728 0)
(1.28091 0.809333 0)
(1.17295 0.843877 0)
(1.17566 0.856514 0)
(1.21566 0.849698 0)
(1.26725 0.845489 0)
(1.31704 0.849308 0)
(1.37201 0.853269 0)
(3 1.27795e-08 0)
(3 8.39729e-08 0)
(3 2.82225e-07 0)
(3 8.16607e-07 0)
(2.99999 2.08763e-06 0)
(2.99999 5.39241e-06 0)
(2.99997 1.29812e-05 0)
(2.99992 3.31431e-05 0)
(2.99981 7.81854e-05 0)
(2.99953 0.000199689 0)
(2.99887 0.000469813 0)
(2.99721 0.00120106 0)
(2.9932 0.00284667 0)
(2.9831 0.00725302 0)
(2.95766 0.0177372 0)
(2.88931 0.0463207 0)
(2.69748 0.125259 0)
(2.14486 0.368375 0)
(1.45606 0.807551 0)
(1.22662 0.866973 0)
(1.21223 0.876889 0)
(1.23958 0.87073 0)
(1.29081 0.858421 0)
(1.34288 0.854842 0)
(1.3948 0.85446 0)
(3 9.80152e-09 0)
(3 6.01497e-08 0)
(3 2.10506e-07 0)
(3 5.85892e-07 0)
(3 1.55453e-06 0)
(2.99999 3.85288e-06 0)
(2.99998 9.75374e-06 0)
(2.99995 2.35135e-05 0)
(2.99987 5.90134e-05 0)
(2.99968 0.000141241 0)
(2.99923 0.000354351 0)
(2.9981 0.000850082 0)
(2.9954 0.00213143 0)
(2.98864 0.00515995 0)
(2.97196 0.0130209 0)
(2.9285 0.0327735 0)
(2.81111 0.0878597 0)
(2.46993 0.251395 0)
(1.73934 0.674793 0)
(1.33183 0.855513 0)
(1.26689 0.881609 0)
(1.27466 0.886791 0)
(1.31685 0.874236 0)
(1.36854 0.864469 0)
(1.41791 0.85971 0)
(3 6.94909e-09 0)
(3 4.27463e-08 0)
(3 1.49518e-07 0)
(3 4.15511e-07 0)
(3 1.10177e-06 0)
(2.99999 2.72697e-06 0)
(2.99998 6.85764e-06 0)
(2.99996 1.65482e-05 0)
(2.99991 4.11114e-05 0)
(2.99978 9.8917e-05 0)
(2.99946 0.000244141 0)
(2.99869 0.000589506 0)
(2.99679 0.00144944 0)
(2.99218 0.00352518 0)
(2.98061 0.00870773 0)
(2.95127 0.0216078 0)
(2.8728 0.0558327 0)
(2.65081 0.152359 0)
(2.04784 0.442719 0)
(1.46683 0.829081 0)
(1.31669 0.88812 0)
(1.30859 0.902104 0)
(1.33937 0.893758 0)
(1.39025 0.877028 0)
(1.43961 0.867859 0)
(3 4.9658e-09 0)
(3 3.03227e-08 0)
(3 1.07349e-07 0)
(3 2.9499e-07 0)
(3 7.9021e-07 0)
(3 1.94387e-06 0)
(2.99999 4.88886e-06 0)
(2.99997 1.18635e-05 0)
(2.99994 2.91851e-05 0)
(2.99985 7.14821e-05 0)
(2.99964 0.000173003 0)
(2.99911 0.000428026 0)
(2.99784 0.00102867 0)
(2.99469 0.00257168 0)
(2.98699 0.00619383 0)
(2.96755 0.0156325 0)
(2.91692 0.0393277 0)
(2.77739 0.105686 0)
(2.37261 0.303304 0)
(1.70039 0.747519 0)
(1.39404 0.888018 0)
(1.35007 0.911788 0)
(1.36321 0.913457 0)
(1.40808 0.895644 0)
(1.45968 0.879673 0)
(3 3.53715e-09 0)
(3 2.09578e-08 0)
(3 7.54921e-08 0)
(3 2.03841e-07 0)
(3 5.55118e-07 0)
(3 1.33894e-06 0)
(2.99999 3.45239e-06 0)
(2.99998 8.13722e-06 0)
(2.99996 2.06668e-05 0)
(2.9999 4.87749e-05 0)
(2.99976 0.000122612 0)
(2.99941 0.000291666 0)
(2.99858 0.000727263 0)
(2.99648 0.00175172 0)
(2.99148 0.00433402 0)
(2.97884 0.0106633 0)
(2.94699 0.0267347 0)
(2.86161 0.0697764 0)
(2.61876 0.193766 0)
(2.00931 0.548472 0)
(1.52282 0.864042 0)
(1.403 0.916156 0)
(1.3954 0.928381 0)
(1.42547 0.917405 0)
(1.47503 0.894558 0)
(3 2.38196e-09 0)
(3 1.47141e-08 0)
(3 5.08868e-08 0)
(3 1.42996e-07 0)
(3 3.74148e-07 0)
(3 9.32995e-07 0)
(3 2.33925e-06 0)
(2.99999 5.62044e-06 0)
(2.99997 1.41059e-05 0)
(2.99993 3.32954e-05 0)
(2.99984 8.41251e-05 0)
(2.99961 0.000197727 0)
(2.99906 0.000499086 0)
(2.9977 0.00117717 0)
(2.99441 0.00296885 0)
(2.9862 0.0071051 0)
(2.9658 0.0179406 0)
(2.91235 0.0451043 0)
(2.76517 0.121367 0)
(2.34397 0.350136 0)
(1.73251 0.786616 0)
(1.47343 0.912349 0)
(1.43413 0.93517 0)
(1.4455 0.935634 0)
(1.4874 0.914824 0)
(3 1.55833e-09 0)
(3 1.00429e-08 0)
(3 3.386e-08 0)
(3 9.75474e-08 0)
(3 2.49496e-07 0)
(3 6.38053e-07 0)
(3 1.55181e-06 0)
(2.99999 3.8567e-06 0)
(2.99998 9.30532e-06 0)
(2.99996 2.29013e-05 0)
(2.9999 5.54796e-05 0)
(2.99975 0.000135544 0)
(2.99939 0.000329518 0)
(2.99854 0.00080327 0)
(2.99642 0.00196716 0)
(2.99131 0.00479355 0)
(2.97853 0.0118737 0)
(2.94629 0.0296464 0)
(2.86024 0.0773938 0)
(2.61528 0.215981 0)
(2.03214 0.589365 0)
(1.59673 0.882589 0)
(1.48819 0.934922 0)
(1.47755 0.946492 0)
(1.50225 0.935667 0)
(3 1.02857e-09 0)
(3 6.65371e-09 0)
(3 2.24915e-08 0)
(3 6.4621e-08 0)
(3 1.65463e-07 0)
(3 4.23246e-07 0)
(3 1.02225e-06 0)
(3 2.56022e-06 0)
(2.99999 6.1001e-06 0)
(2.99997 1.52035e-05 0)
(2.99993 3.61789e-05 0)
(2.99984 8.95659e-05 0)
(2.99962 0.000214875 0)
(2.99906 0.000526914 0)
(2.99774 0.00127552 0)
(2.99444 0.00311531 0)
(2.98648 0.00763767 0)
(2.96641 0.0188268 0)
(2.91434 0.0478688 0)
(2.77211 0.127387 0)
(2.36819 0.365743 0)
(1.80098 0.793515 0)
(1.55689 0.923851 0)
(1.51567 0.948563 0)
(1.52252 0.950963 0)
(3 6.70645e-10 0)
(3 4.43649e-09 0)
(3 1.46421e-08 0)
(3 4.29638e-08 0)
(3 1.07863e-07 0)
(3 2.79047e-07 0)
(3 6.69852e-07 0)
(3 1.67577e-06 0)
(2.99999 4.01394e-06 0)
(2.99998 9.88328e-06 0)
(2.99996 2.38357e-05 0)
(2.9999 5.79684e-05 0)
(2.99976 0.000141627 0)
(2.99942 0.000339862 0)
(2.99858 0.000839539 0)
(2.9966 0.00200436 0)
(2.99161 0.0049972 0)
(2.97961 0.0120524 0)
(2.94884 0.0304477 0)
(2.86791 0.0783909 0)
(2.6381 0.218295 0)
(2.09562 0.585768 0)
(1.6792 0.887736 0)
(1.56913 0.946117 0)
(1.55417 0.958957 0)
(3 4.4635e-10 0)
(3 2.76736e-09 0)
(3 9.67594e-09 0)
(3 2.6833e-08 0)
(3 7.08531e-08 0)
(3 1.75919e-07 0)
(3 4.34435e-07 0)
(3 1.06517e-06 0)
(3 2.56573e-06 0)
(2.99999 6.32842e-06 0)
(2.99997 1.50326e-05 0)
(2.99994 3.74017e-05 0)
(2.99985 8.80293e-05 0)
(2.99964 0.000220237 0)
(2.99912 0.000517039 0)
(2.99791 0.00129565 0)
(2.99485 0.00305442 0)
(2.98756 0.00766039 0)
(2.96912 0.0185028 0)
(2.92205 0.047183 0)
(2.79404 0.12451 0)
(2.43273 0.354064 0)
(1.89309 0.775725 0)
(1.64142 0.926611 0)
(1.59298 0.956092 0)
(3 2.84276e-10 0)
(3 1.76256e-09 0)
(3 6.13695e-09 0)
(3 1.70801e-08 0)
(3 4.49286e-08 0)
(3 1.11472e-07 0)
(3 2.76192e-07 0)
(3 6.72063e-07 0)
(3 1.63403e-06 0)
(2.99999 3.97481e-06 0)
(2.99998 9.58491e-06 0)
(2.99996 2.34283e-05 0)
(2.99991 5.61117e-05 0)
(2.99978 0.000137714 0)
(2.99947 0.000329065 0)
(2.99872 0.00080935 0)
(2.99691 0.0019356 0)
(2.99246 0.00477853 0)
(2.98161 0.0115809 0)
(2.95421 0.0289224 0)
(2.88262 0.0741218 0)
(2.68081 0.203622 0)
(2.19098 0.547891 0)
(1.77037 0.882426 0)
(1.64458 0.951565 0)
(3 1.76019e-10 0)
(3 1.10573e-09 0)
(3 3.78659e-09 0)
(3 1.06951e-08 0)
(3 2.78051e-08 0)
(3 6.93477e-08 0)
(3 1.71751e-07 0)
(3 4.14237e-07 0)
(3 1.01905e-06 0)
(3 2.43538e-06 0)
(2.99999 5.9907e-06 0)
(2.99998 1.4253e-05 0)
(2.99995 3.50721e-05 0)
(2.99987 8.35233e-05 0)
(2.99968 0.000205194 0)
(2.99925 0.000488587 0)
(2.99815 0.00120194 0)
(2.9956 0.00287858 0)
(2.98919 0.0070864 0)
(2.9737 0.0172494 0)
(2.93389 0.043488 0)
(2.828 0.113797 0)
(2.52831 0.321177 0)
(2.00823 0.732543 0)
(1.72753 0.918018 0)
(3 1.09664e-10 0)
(3 6.71025e-10 0)
(3 2.36194e-09 0)
(3 6.49319e-09 0)
(3 1.72497e-08 0)
(3 4.23091e-08 0)
(3 1.05484e-07 0)
(3 2.54041e-07 0)
(3 6.20052e-07 0)
(3 1.49683e-06 0)
(2.99999 3.60954e-06 0)
(2.99999 8.78796e-06 0)
(2.99997 2.09554e-05 0)
(2.99992 5.14132e-05 0)
(2.99981 0.000121815 0)
(2.99955 0.00030034 0)
(2.9989 0.000708602 0)
(2.99737 0.00175478 0)
(2.99356 0.00415301 0)
(2.98441 0.0103307 0)
(2.96131 0.0250082 0)
(2.9017 0.0640798 0)
(2.73698 0.17171 0)
(2.31234 0.468334 0)
(1.87255 0.844444 0)
(3 6.63555e-11 0)
(3 4.09837e-10 0)
(3 1.42308e-09 0)
(3 3.96642e-09 0)
(3 1.03858e-08 0)
(3 2.57009e-08 0)
(3 6.38758e-08 0)
(3 1.53354e-07 0)
(3 3.77339e-07 0)
(3 8.98326e-07 0)
(3 2.20349e-06 0)
(2.99999 5.25292e-06 0)
(2.99998 1.28263e-05 0)
(2.99995 3.06553e-05 0)
(2.99989 7.45924e-05 0)
(2.99974 0.000179323 0)
(2.99937 0.000433378 0)
(2.99847 0.00104889 0)
(2.99633 0.00253065 0)
(2.99104 0.00617655 0)
(2.97827 0.0150565 0)
(2.94599 0.0375003 0)
(2.86123 0.0972439 0)
(2.62241 0.269674 0)
(2.13339 0.65888 0)
(3 3.86043e-11 0)
(3 2.49125e-10 0)
(3 8.41844e-10 0)
(3 2.40553e-09 0)
(3 6.14968e-09 0)
(3 1.55948e-08 0)
(3 3.75985e-08 0)
(3 9.31408e-08 0)
(3 2.20846e-07 0)
(3 5.44533e-07 0)
(3 1.2877e-06 0)
(3 3.16607e-06 0)
(2.99999 7.48623e-06 0)
(2.99997 1.83525e-05 0)
(2.99994 4.35644e-05 0)
(2.99985 0.00010614 0)
(2.99963 0.000253579 0)
(2.99911 0.000612775 0)
(2.99783 0.00147828 0)
(2.99483 0.00355633 0)
(2.98732 0.00866027 0)
(2.9691 0.0211212 0)
(2.92213 0.0528742 0)
(2.79524 0.139657 0)
(2.45237 0.384144 0)
(3 2.3945e-11 0)
(3 1.45268e-10 0)
(3 5.11937e-10 0)
(3 1.40284e-09 0)
(3 3.72993e-09 0)
(3 9.08845e-09 0)
(3 2.27957e-08 0)
(3 5.41729e-08 0)
(3 1.33994e-07 0)
(3 3.16894e-07 0)
(3 7.79256e-07 0)
(3 1.84685e-06 0)
(2.99999 4.51298e-06 0)
(2.99998 1.07721e-05 0)
(2.99996 2.60845e-05 0)
(2.99991 6.28409e-05 0)
(2.99979 0.000150723 0)
(2.99949 0.000366983 0)
(2.99878 0.000871806 0)
(2.99702 0.00214577 0)
(2.99288 0.00509767 0)
(2.98256 0.0126519 0)
(2.95718 0.0308057 0)
(2.89109 0.0791742 0)
(2.70679 0.214662 0)
(3 1.35128e-11 0)
(3 8.71242e-11 0)
(3 2.92256e-10 0)
(3 8.41289e-10 0)
(3 2.1313e-09 0)
(3 5.42727e-09 0)
(3 1.3017e-08 0)
(3 3.22366e-08 0)
(3 7.66767e-08 0)
(3 1.87243e-07 0)
(3 4.47225e-07 0)
(3 1.08139e-06 0)
(3 2.60548e-06 0)
(2.99999 6.2311e-06 0)
(2.99998 1.5159e-05 0)
(2.99995 3.59135e-05 0)
(2.99988 8.80449e-05 0)
(2.99971 0.000207599 0)
(2.99931 0.000509907 0)
(2.99835 0.00120249 0)
(2.99606 0.00296403 0)
(2.99048 0.0070331 0)
(2.97694 0.0174595 0)
(2.94301 0.0428004 0)
(2.85385 0.111951 0)
(3 7.79456e-12 0)
(3 4.97091e-11 0)
(3 1.69978e-10 0)
(3 4.78297e-10 0)
(3 1.23873e-09 0)
(3 3.08687e-09 0)
(3 7.5187e-09 0)
(3 1.83828e-08 0)
(3 4.37613e-08 0)
(3 1.07286e-07 0)
(3 2.51973e-07 0)
(3 6.21363e-07 0)
(3 1.45171e-06 0)
(3 3.57904e-06 0)
(2.99999 8.36765e-06 0)
(2.99997 2.05553e-05 0)
(2.99993 4.82839e-05 0)
(2.99984 0.0001176 0)
(2.99961 0.000278864 0)
(2.99907 0.000671666 0)
(2.99773 0.0016108 0)
(2.99462 0.00384927 0)
(2.98683 0.00935616 0)
(2.96802 0.0226076 0)
(2.91977 0.0565833 0)
(3 4.49573e-12 0)
(3 2.78715e-11 0)
(3 9.65378e-11 0)
(3 2.68366e-10 0)
(3 7.03203e-10 0)
(3 1.72416e-09 0)
(3 4.28652e-09 0)
(3 1.01698e-08 0)
(3 2.50135e-08 0)
(3 5.89418e-08 0)
(3 1.44175e-07 0)
(3 3.40064e-07 0)
(3 8.27359e-07 0)
(3 1.96324e-06 0)
(2.99999 4.73469e-06 0)
(2.99998 1.13327e-05 0)
(2.99996 2.70807e-05 0)
(2.99991 6.53392e-05 0)
(2.99978 0.000154865 0)
(2.99946 0.000377106 0)
(2.99871 0.000887261 0)
(2.99692 0.00217621 0)
(2.99254 0.00513873 0)
(2.98202 0.0126816 0)
(2.9557 0.0307875 0)
(3 2.41851e-12 0)
(3 1.52057e-11 0)
(3 5.1773e-11 0)
(3 1.46372e-10 0)
(3 3.75888e-10 0)
(3 9.3633e-10 0)
(3 2.28586e-09 0)
(3 5.48378e-09 0)
(3 1.33117e-08 0)
(3 3.14754e-08 0)
(3 7.65859e-08 0)
(3 1.7942e-07 0)
(3 4.38413e-07 0)
(3 1.02335e-06 0)
(3 2.49923e-06 0)
(2.99999 5.82695e-06 0)
(2.99998 1.42169e-05 0)
(2.99994 3.32379e-05 0)
(2.99987 8.05373e-05 0)
(2.99968 0.000189457 0)
(2.99923 0.000455822 0)
(2.99816 0.00108194 0)
(2.99557 0.00258427 0)
(2.98934 0.00621436 0)
(2.97406 0.0149678 0)
(3 1.22205e-12 0)
(3 7.90301e-12 0)
(3 2.64629e-11 0)
(3 7.60455e-11 0)
(3 1.90805e-10 0)
(3 4.84422e-10 0)
(3 1.14761e-09 0)
(3 2.81518e-09 0)
(3 6.60014e-09 0)
(3 1.59181e-08 0)
(3 3.75006e-08 0)
(3 8.90163e-08 0)
(3 2.11964e-07 0)
(3 4.95037e-07 0)
(3 1.19136e-06 0)
(2.99999 2.74437e-06 0)
(2.99998 6.64198e-06 0)
(2.99996 1.5187e-05 0)
(2.99991 3.67585e-05 0)
(2.99978 8.35474e-05 0)
(2.99945 0.000201615 0)
(2.9987 0.000458761 0)
(2.99681 0.00109449 0)
(2.99232 0.00250295 0)
(2.98109 0.00594314 0)
(3 6.35357e-13 0)
(3 3.78955e-12 0)
(3 1.35336e-11 0)
(3 3.6177e-11 0)
(3 9.66989e-11 0)
(3 2.28297e-10 0)
(3 5.74198e-10 0)
(3 1.30895e-09 0)
(3 3.24125e-09 0)
(3 7.29571e-09 0)
(3 1.79336e-08 0)
(3 4.04082e-08 0)
(3 9.77132e-08 0)
(3 2.22324e-07 0)
(3 5.2632e-07 0)
(2.99999 1.2193e-06 0)
(2.99999 2.79564e-06 0)
(2.99997 6.61055e-06 0)
(2.99992 1.46807e-05 0)
(2.99982 3.54709e-05 0)
(2.99954 7.60706e-05 0)
(2.9989 0.000186341 0)
(2.99727 0.000386807 0)
(2.99338 0.000956784 0)
(2.98345 0.00194302 0)
(3 3.01738e-13 0)
(3 1.76255e-12 0)
(3 6.30912e-12 0)
(3 1.65627e-11 0)
(3 4.5275e-11 0)
(3 1.02847e-10 0)
(3 2.68254e-10 0)
(3 5.75871e-10 0)
(3 1.4927e-09 0)
(3 3.14634e-09 0)
(3 8.09072e-09 0)
(3 1.71301e-08 0)
(3 4.25721e-08 0)
(3 9.32614e-08 0)
(3 2.2026e-07 0)
(3 5.06272e-07 0)
(2.99999 1.1018e-06 0)
(2.99997 2.73836e-06 0)
(2.99993 5.3758e-06 0)
(2.99983 1.44728e-05 0)
(2.99958 2.55103e-05 0)
(2.99896 7.37063e-05 0)
(2.99745 0.000116809 0)
(2.99361 0.000356665 0)
(2.98418 0.000529161 0)
(3 1.38058e-13 0)
(3 7.8608e-13 0)
(3 2.99817e-12 0)
(3 7.54589e-12 0)
(3 2.07334e-11 0)
(3 4.76964e-11 0)
(3 1.15274e-10 0)
(3 2.77303e-10 0)
(3 5.98529e-10 0)
(3 1.56488e-09 0)
(3 3.02807e-09 0)
(3 8.66214e-09 0)
(3 1.52013e-08 0)
(3 4.67333e-08 0)
(3 7.65996e-08 0)
(3 2.47016e-07 0)
(2.99999 3.89592e-07 0)
(2.99997 1.26457e-06 0)
(2.99993 2.00479e-06 0)
(2.99983 6.19139e-06 0)
(2.99959 1.04498e-05 0)
(2.99898 2.78687e-05 0)
(2.99751 5.49118e-05 0)
(2.99372 0.000117102 0)
(2.98442 0.000272457 0)
(3 5.77659e-14 0)
(3 4.71045e-13 0)
(3 9.90431e-13 0)
(3 4.30778e-12 0)
(3 7.00031e-12 0)
(3 2.54056e-11 0)
(3 4.19822e-11 0)
(3 1.34471e-10 0)
(3 2.4623e-10 0)
(3 6.66923e-10 0)
(3 1.42246e-09 0)
(3 3.1034e-09 0)
(3 8.55652e-09 0)
(3 1.32694e-08 0)
(3 5.07896e-08 0)
(3 5.31237e-08 0)
(2.99999 3.00041e-07 0)
(2.99997 2.08038e-07 0)
(2.99993 1.67266e-06 0)
(2.99984 9.27422e-07 0)
(2.9996 8.78675e-06 0)
(2.99899 4.88676e-06 0)
(2.99753 4.46666e-05 0)
(2.99379 3.05934e-05 0)
(2.98452 0.000216291 0)
(3 1.83344e-14 0)
(3 1.73161e-13 0)
(3 4.95841e-13 0)
(3 1.40403e-12 0)
(3 4.02288e-12 0)
(3 8.03158e-12 0)
(3 2.57523e-11 0)
(3 4.03666e-11 0)
(3 1.49515e-10 0)
(3 1.92252e-10 0)
(3 8.28823e-10 0)
(3 8.8561e-10 0)
(3 4.57623e-09 0)
(3 4.42432e-09 0)
(3 2.43891e-08 0)
(3 2.41031e-08 0)
(2.99999 1.25414e-07 0)
(2.99997 1.64929e-07 0)
(2.99993 5.82224e-07 0)
(2.99984 1.19901e-06 0)
(2.9996 2.61977e-06 0)
(2.99901 8.54593e-06 0)
(2.99753 1.20591e-05 0)
(2.99386 5.54405e-05 0)
(2.98458 7.91744e-05 0)
(3 3.3008e-14 0)
(3 2.80866e-14 0)
(3 6.07683e-13 0)
(3 1.85736e-13 0)
(3 3.94096e-12 0)
(3 1.49039e-12 0)
(3 1.97787e-11 0)
(3 1.37167e-11 0)
(3 8.51103e-11 0)
(3 1.27648e-10 0)
(3 3.01949e-10 0)
(3 1.09798e-09 0)
(3 5.50907e-10 0)
(3 8.77273e-09 0)
(3 -3.6712e-09 0)
(3 6.16801e-08 0)
(2.99999 -4.45802e-08 0)
(2.99997 3.8669e-07 0)
(2.99994 -3.02614e-07 0)
(2.99984 2.20791e-06 0)
(2.9996 -1.37618e-06 0)
(2.999 1.19839e-05 0)
(2.99757 -4.43518e-06 0)
(2.99385 5.97754e-05 0)
(2.98473 1.06517e-05 0)
(3 1.33424e-14 0)
(3 4.98523e-14 0)
(3 1.61984e-13 0)
(3 4.5878e-13 0)
(3 9.47222e-13 0)
(3 2.62498e-12 0)
(3 3.75214e-12 0)
(3 1.50516e-11 0)
(3 1.38718e-11 0)
(3 9.17598e-11 0)
(3 3.48114e-11 0)
(3 5.70162e-10 0)
(3 8.22021e-11 0)
(3 3.2383e-09 0)
(3 -7.26934e-10 0)
(3 1.81929e-08 0)
(2.99999 -4.23619e-09 0)
(2.99997 8.49351e-08 0)
(2.99994 4.25054e-08 0)
(2.99984 2.70299e-07 0)
(2.99961 6.27094e-07 0)
(2.99901 1.46597e-06 0)
(2.99757 5.55677e-06 0)
(2.99387 6.49929e-06 0)
(2.98478 3.58364e-05 0)
(1.20741 1.04059 0)
(1.36855 0.786382 0)
(0.814471 0.436777 0)
(0.00131802 0.354945 0)
(-0.22868 0.0468847 0)
(-0.412098 0.00460777 0)
(-0.574138 -0.0215938 0)
(-0.646629 -0.0324762 0)
(-0.675932 -0.0131689 0)
(-0.707365 0.0134696 0)
(-0.758897 0.0245819 0)
(-0.814154 0.0235726 0)
(-0.860222 0.0161991 0)
(-0.897555 0.0087104 0)
(-0.934485 0.00545879 0)
(-0.97461 0.0048669 0)
(-1.01576 0.00501234 0)
(-1.05481 0.00515464 0)
(-1.08944 0.00488265 0)
(-1.11988 0.00400923 0)
(-1.14961 0.00292343 0)
(-1.18195 0.0027785 0)
(-1.20927 0.00459828 0)
(-1.22464 0.00469448 0)
(-1.23206 0.00366402 0)
(-1.23146 0.00231804 0)
(-1.21456 4.39135e-05 0)
(-1.17477 -0.00386753 0)
(-1.11433 -0.00904729 0)
(-1.03835 -0.0143357 0)
(-0.953227 -0.0187486 0)
(-0.864022 -0.0220296 0)
(-0.773943 -0.0242233 0)
(-0.684633 -0.0259761 0)
(-0.599001 -0.0267985 0)
(-0.517935 -0.0273556 0)
(-0.441685 -0.0281201 0)
(-0.369088 -0.0290251 0)
(-0.298136 -0.0313844 0)
(-0.230959 -0.0318386 0)
(-0.166927 -0.0318102 0)
(-0.105368 -0.0328424 0)
(-0.0478254 -0.0362115 0)
(0.0160777 -0.0315374 0)
(0.0675943 -0.0277066 0)
(0.118699 -0.0263822 0)
(0.165654 -0.0251802 0)
(0.209949 -0.0240572 0)
(0.251998 -0.0230718 0)
(0.291881 -0.0220803 0)
(0.329823 -0.0211121 0)
(0.365887 -0.0202437 0)
(0.40022 -0.0194435 0)
(0.433036 -0.0187394 0)
(0.464397 -0.0180684 0)
(0.494337 -0.0173863 0)
(0.522649 -0.0166201 0)
(0.549593 -0.0158707 0)
(0.575915 -0.0152469 0)
(0.601686 -0.0147699 0)
(0.626547 -0.01418 0)
(0.650609 -0.0136261 0)
(0.674121 -0.0131291 0)
(0.697264 -0.0126725 0)
(0.720144 -0.0122457 0)
(0.742839 -0.0118339 0)
(0.765415 -0.0114478 0)
(0.787913 -0.0110659 0)
(0.81038 -0.0107037 0)
(0.832816 -0.0103425 0)
(0.855249 -0.00999167 0)
(0.877662 -0.00964309 0)
(0.900052 -0.00929923 0)
(0.922403 -0.00895649 0)
(0.944696 -0.00861826 0)
(0.966907 -0.00828059 0)
(0.98902 -0.00794601 0)
(1.01101 -0.00761379 0)
(1.03286 -0.00728461 0)
(1.05456 -0.00695808 0)
(1.07609 -0.00663509 0)
(1.09743 -0.00631483 0)
(1.11858 -0.00599713 0)
(1.13953 -0.00568044 0)
(1.16026 -0.00536448 0)
(1.18076 -0.00504748 0)
(1.20099 -0.00472993 0)
(1.22094 -0.00441068 0)
(1.24055 -0.00409037 0)
(1.2598 -0.00376636 0)
(1.27861 -0.00343594 0)
(1.29692 -0.00309463 0)
(1.31464 -0.00273678 0)
(1.33163 -0.002351 0)
(1.34772 -0.00192476 0)
(1.36263 -0.00143349 0)
(1.37598 -0.000878358 0)
(1.38731 -0.000255719 0)
(1.39573 0.000478663 0)
(1.40188 0.00132102 0)
(1.27576 0.94724 0)
(1.398 0.653265 0)
(1.20387 0.391385 0)
(0.759683 0.382966 0)
(0.618642 0.321322 0)
(0.48985 0.246045 0)
(0.305918 0.186776 0)
(0.141418 0.121018 0)
(-0.116453 0.041261 0)
(-0.257995 0.0441236 0)
(-0.387529 0.0429353 0)
(-0.481548 0.0355424 0)
(-0.540322 0.0256794 0)