/*--------------------------------*- C++ -*----------------------------------*\
  =========                 |
  \\      /  F ield         | OpenFOAM: The Open Source CFD Toolbox
   \\    /   O peration     | Website:  https://openfoam.org
    \\  /    A nd           | Version:  10
     \\/     M anipulation  |
\*---------------------------------------------------------------------------*/
FoamFile
{
    format      ascii;
    class       volScalarField;
    location    "0.62";
    object      cov;
}
// * * * * * * * * * * * * * * * * * * * * * * * * * * * * * * * * * * * * * //

dimensions      [0 0 0 0 0 0 0];

internalField   uniform 0;

boundaryField
{
    frontAndBack
    {
        type            empty;
    }
    inlet
    {
        type            calculated;
        value           uniform 0;
    }
    outlet
    {
        type            calculated;
        value           uniform 0;
    }
    substrate
    {
        type            calculated;
        value           nonuniform List<scalar> 
400
(
0.734673
0.712425
0.691347
0.670899
0.650825
0.631001
0.611366
0.591896
0.572588
0.553452
0.534506
0.515774
0.497281
0.479053
0.461116
0.443497
0.426218
0.409302
0.392768
0.376634
0.360915
0.345622
0.330766
0.316355
0.302393
0.288885
0.27583
0.26323
0.251081
0.239379
0.22812
0.217296
0.206902
0.196927
0.187364
0.178202
0.16943
0.161039
0.153017
0.145352
0.138033
0.131048
0.124386
0.118035
0.111983
0.106218
0.100731
0.0955082
0.09054
0.0858157
0.0813246
0.0770567
0.0730021
0.0691513
0.065495
0.0620244
0.0587308
0.055606
0.0526418
0.0498307
0.0471653
0.0446385
0.0422434
0.0399737
0.0378231
0.0357856
0.0338556
0.0320277
0.0302966
0.0286574
0.0271054
0.0256362
0.0242455
0.0229291
0.0216833
0.0205043
0.0193887
0.0183331
0.0173344
0.0163895
0.0154957
0.0146502
0.0138504
0.013094
0.0123786
0.0117019
0.0110621
0.010457
0.00988477
0.00934371
0.00883211
0.00834838
0.00789103
0.00745861
0.0070498
0.0066633
0.00629792
0.0059525
0.00562596
0.00531728
0.00502548
0.00474966
0.00448893
0.00424248
0.00400953
0.00378934
0.00358121
0.0033845
0.00319857
0.00302284
0.00285674
0.00269976
0.00255139
0.00241117
0.00227864
0.00215338
0.00203501
0.00192313
0.0018174
0.00171747
0.00162304
0.00153379
0.00144944
0.00136973
0.0012944
0.00122321
0.00115594
0.00109236
0.00103227
0.000975492
0.000921833
0.000871123
0.000823202
0.000777916
0.000735121
0.000694678
0.00065646
0.000620344
0.000586214
0.000553961
0.000523482
0.00049468
0.000467462
0.000441741
0.000417435
0.000394466
0.000372761
0.00035225
0.000332867
0.000314551
0.000297242
0.000280886
0.000265429
0.000250823
0.000237021
0.000223978
0.000211653
0.000200006
0.000188999
0.000178599
0.00016877
0.000159483
0.000150706
0.000142413
0.000134576
0.00012717
0.000120172
0.000113558
0.000107309
0.000101404
9.5823e-05
9.05497e-05
8.55665e-05
8.08575e-05
7.64077e-05
7.22028e-05
6.82292e-05
6.44743e-05
6.09261e-05
5.75731e-05
5.44047e-05
5.14106e-05
4.85813e-05
4.59077e-05
4.33812e-05
4.09938e-05
3.87377e-05
3.66058e-05
3.45912e-05
3.26875e-05
3.08886e-05
2.91887e-05
2.75823e-05
2.60643e-05
2.46298e-05
2.32744e-05
2.19935e-05
2.0783e-05
1.96393e-05
1.85584e-05
1.7537e-05
1.65719e-05
1.56598e-05
1.4798e-05
1.39836e-05
1.3214e-05
1.24868e-05
1.17995e-05
1.11501e-05
1.05365e-05
9.9566e-06
9.40862e-06
8.89081e-06
8.40149e-06
7.93911e-06
7.50217e-06
7.08927e-06
6.6991e-06
6.33041e-06
5.982e-06
5.65277e-06
5.34166e-06
5.04767e-06
4.76986e-06
4.50733e-06
4.25926e-06
4.02484e-06
3.80332e-06
3.59399e-06
3.39619e-06
3.20927e-06
3.03263e-06
2.86572e-06
2.70799e-06
2.55895e-06
2.4181e-06
2.28501e-06
2.15925e-06
2.0404e-06
1.9281e-06
1.82197e-06
1.72169e-06
1.62693e-06
1.53738e-06
1.45276e-06
1.3728e-06
1.29724e-06
1.22583e-06
1.15836e-06
1.0946e-06
1.03435e-06
9.77416e-07
9.23616e-07
8.72776e-07
8.24735e-07
7.79337e-07
7.36438e-07
6.95901e-07
6.57594e-07
6.21396e-07
5.8719e-07
5.54867e-07
5.24323e-07
4.9546e-07
4.68186e-07
4.42412e-07
4.18058e-07
3.95044e-07
3.73296e-07
3.52746e-07
3.33327e-07
3.14976e-07
2.97636e-07
2.8125e-07
2.65766e-07
2.51134e-07
2.37308e-07
2.24243e-07
2.11897e-07
2.0023e-07
1.89206e-07
1.78789e-07
1.68945e-07
1.59642e-07
1.50852e-07
1.42546e-07
1.34697e-07
1.2728e-07
1.20272e-07
1.13649e-07
1.0739e-07
1.01477e-07
9.58886e-08
9.06081e-08
8.56183e-08
8.09032e-08
7.64477e-08
7.22374e-08
6.8259e-08
6.44996e-08
6.09472e-08
5.75903e-08
5.44183e-08
5.14209e-08
4.85886e-08
4.59122e-08
4.33832e-08
4.09935e-08
3.87353e-08
3.66015e-08
3.45852e-08
3.26799e-08
3.08795e-08
2.91783e-08
2.75708e-08
2.60518e-08
2.46165e-08
2.32602e-08
2.19786e-08
2.07676e-08
1.96234e-08
1.85421e-08
1.75205e-08
1.65551e-08
1.56429e-08
1.4781e-08
1.39665e-08
1.3197e-08
1.24698e-08
1.17828e-08
1.11336e-08
1.05202e-08
9.94057e-09
9.39294e-09
8.87552e-09
8.38663e-09
7.92472e-09
7.48829e-09
7.07594e-09
6.68636e-09
6.31829e-09
5.97055e-09
5.64202e-09
5.33164e-09
5.03843e-09
4.76143e-09
4.49976e-09
4.25257e-09
4.01908e-09
3.79853e-09
3.59022e-09
3.39347e-09
3.20765e-09
3.03216e-09
2.86645e-09
2.70997e-09
2.56223e-09
2.42275e-09
2.29109e-09
2.1668e-09
2.04951e-09
1.93883e-09
1.83441e-09
1.7359e-09
1.643e-09
1.5554e-09
1.47283e-09
1.39501e-09
1.32169e-09
1.25265e-09
1.18765e-09
1.1265e-09
1.06898e-09
1.01492e-09
9.64147e-10
9.1649e-10
8.71799e-10
8.29931e-10
7.90749e-10
7.54128e-10
7.1995e-10
6.88105e-10
6.5849e-10
6.3101e-10
6.05577e-10
5.82108e-10
5.60527e-10
5.40766e-10
5.22761e-10
5.06453e-10
4.9179e-10
4.78725e-10
4.67215e-10
4.57224e-10
4.4872e-10
4.41674e-10
4.36064e-10
4.31873e-10
4.29086e-10
4.27695e-10
)
;
    }
    Wall
    {
        type            calculated;
        value           nonuniform List<scalar> 
400
(
0.734673
0.712424
0.691347
0.670899
0.650826
0.631001
0.611366
0.591895
0.572587
0.553451
0.534506
0.515774
0.497281
0.479053
0.461117
0.443498
0.42622
0.409304
0.392771
0.376637
0.360918
0.345625
0.33077
0.316359
0.302397
0.288889
0.275835
0.263234
0.251085
0.239384
0.228124
0.217301
0.206907
0.196932
0.187369
0.178207
0.169435
0.161044
0.153022
0.145357
0.138038
0.131053
0.124391
0.118039
0.111987
0.106223
0.100735
0.0955123
0.0905441
0.0858196
0.0813284
0.0770603
0.0730056
0.0691547
0.0654983
0.0620276
0.0587339
0.0556089
0.0526446
0.0498334
0.0471679
0.0446409
0.0422458
0.039976
0.0378252
0.0357877
0.0338576
0.0320295
0.0302983
0.028659
0.027107
0.0256377
0.0242469
0.0229304
0.0216845
0.0205055
0.0193898
0.0183342
0.0173354
0.0163905
0.0154966
0.014651
0.0138512
0.0130947
0.0123793
0.0117026
0.0110627
0.0104576
0.00988532
0.00934423
0.0088326
0.00834884
0.00789145
0.00745901
0.00705017
0.00666365
0.00629824
0.0059528
0.00562624
0.00531754
0.00502573
0.00474988
0.00448914
0.00424268
0.00400971
0.00378951
0.00358137
0.00338465
0.00319871
0.00302297
0.00285686
0.00269987
0.0025515
0.00241126
0.00227873
0.00215347
0.00203508
0.0019232
0.00181746
0.00171753
0.00162309
0.00153384
0.00144949
0.00136978
0.00129444
0.00122325
0.00115597
0.00109239
0.0010323
0.000975518
0.000921857
0.000871146
0.000823223
0.000777935
0.000735138
0.000694694
0.000656474
0.000620357
0.000586226
0.000553972
0.000523492
0.000494689
0.00046747
0.000441749
0.000417442
0.000394473
0.000372767
0.000352255
0.000332872
0.000314555
0.000297246
0.00028089
0.000265433
0.000250826
0.000237024
0.000223981
0.000211655
0.000200008
0.000189001
0.0001786
0.000168772
0.000159484
0.000150708
0.000142414
0.000134577
0.000127171
0.000120172
0.000113559
0.00010731
0.000101404
9.58236e-05
9.05502e-05
8.55669e-05
8.08579e-05
7.64081e-05
7.22031e-05
6.82295e-05
6.44746e-05
6.09263e-05
5.75733e-05
5.44049e-05
5.14108e-05
4.85814e-05
4.59078e-05
4.33813e-05
4.09938e-05
3.87378e-05
3.66059e-05
3.45913e-05
3.26876e-05
3.08886e-05
2.91887e-05
2.75823e-05
2.60643e-05
2.46299e-05
2.32744e-05
2.19935e-05
2.07831e-05
1.96393e-05
1.85584e-05
1.75371e-05
1.65719e-05
1.56599e-05
1.4798e-05
1.39836e-05
1.3214e-05
1.24868e-05
1.17995e-05
1.11501e-05
1.05365e-05
9.9566e-06
9.40863e-06
8.89081e-06
8.40149e-06
7.93911e-06
7.50217e-06
7.08927e-06
6.6991e-06
6.3304e-06
5.982e-06
5.65277e-06
5.34165e-06
5.04766e-06
4.76985e-06
4.50733e-06
4.25926e-06
4.02484e-06
3.80332e-06
3.59399e-06
3.39619e-06
3.20926e-06
3.03263e-06
2.86572e-06
2.70799e-06
2.55895e-06
2.4181e-06
2.28501e-06
2.15925e-06
2.0404e-06
1.9281e-06
1.82197e-06
1.72169e-06
1.62693e-06
1.53738e-06
1.45276e-06
1.3728e-06
1.29724e-06
1.22583e-06
1.15836e-06
1.0946e-06
1.03435e-06
9.77416e-07
9.23616e-07
8.72776e-07
8.24734e-07
7.79337e-07
7.36438e-07
6.95901e-07
6.57594e-07
6.21396e-07
5.8719e-07
5.54867e-07
5.24323e-07
4.9546e-07
4.68185e-07
4.42412e-07
4.18058e-07
3.95044e-07
3.73296e-07
3.52746e-07
3.33327e-07
3.14976e-07
2.97636e-07
2.8125e-07
2.65766e-07
2.51134e-07
2.37308e-07
2.24243e-07
2.11897e-07
2.0023e-07
1.89206e-07
1.78789e-07
1.68945e-07
1.59642e-07
1.50852e-07
1.42546e-07
1.34697e-07
1.2728e-07
1.20272e-07
1.13649e-07
1.0739e-07
1.01477e-07
9.58886e-08
9.06081e-08
8.56183e-08
8.09032e-08
7.64477e-08
7.22374e-08
6.8259e-08
6.44996e-08
6.09472e-08
5.75903e-08
5.44183e-08
5.14209e-08
4.85886e-08
4.59122e-08
4.33832e-08
4.09935e-08
3.87353e-08
3.66015e-08
3.45852e-08
3.26799e-08
3.08795e-08
2.91783e-08
2.75708e-08
2.60518e-08
2.46165e-08
2.32602e-08
2.19786e-08
2.07676e-08
1.96234e-08
1.85421e-08
1.75205e-08
1.65551e-08
1.56429e-08
1.4781e-08
1.39665e-08
1.3197e-08
1.24698e-08
1.17828e-08
1.11336e-08
1.05202e-08
9.94057e-09
9.39294e-09
8.87552e-09
8.38663e-09
7.92472e-09
7.48829e-09
7.07595e-09
6.68636e-09
6.31829e-09
5.97055e-09
5.64202e-09
5.33164e-09
5.03843e-09
4.76143e-09
4.49976e-09
4.25257e-09
4.01908e-09
3.79853e-09
3.59022e-09
3.39347e-09
3.20765e-09
3.03216e-09
2.86645e-09
2.70997e-09
2.56223e-09
2.42275e-09
2.29109e-09
2.16681e-09
2.04951e-09
1.93883e-09
1.83441e-09
1.7359e-09
1.643e-09
1.5554e-09
1.47283e-09
1.39501e-09
1.32169e-09
1.25265e-09
1.18765e-09
1.1265e-09
1.06898e-09
1.01492e-09
9.64147e-10
9.1649e-10
8.718e-10
8.29931e-10
7.90749e-10
7.54128e-10
7.1995e-10
6.88105e-10
6.58491e-10
6.31011e-10
6.05577e-10
5.82108e-10
5.60528e-10
5.40767e-10
5.22761e-10
5.06453e-10
4.9179e-10
4.78725e-10
4.67216e-10
4.57225e-10
4.4872e-10
4.41674e-10
4.36065e-10
4.31873e-10
4.29086e-10
4.27695e-10
)
;
    }
}


// ************************************************************************* //
