/*--------------------------------*- C++ -*----------------------------------*\
  =========                 |
  \\      /  F ield         | OpenFOAM: The Open Source CFD Toolbox
   \\    /   O peration     | Website:  https://openfoam.org
    \\  /    A nd           | Version:  10
     \\/     M anipulation  |
\*---------------------------------------------------------------------------*/
FoamFile
{
    format      ascii;
    class       volScalarField;
    location    "0.08";
    object      beta;
}
// * * * * * * * * * * * * * * * * * * * * * * * * * * * * * * * * * * * * * //

dimensions      [0 0 0 0 0 0 0];

internalField   uniform 0;

boundaryField
{
    frontAndBack
    {
        type            empty;
    }
    inlet
    {
        type            calculated;
        value           uniform 0;
    }
    outlet
    {
        type            calculated;
        value           uniform 0;
    }
    substrate
    {
        type            calculated;
        value           nonuniform List<scalar> 
400
(
0.00487478
0.00517563
0.00545107
0.00570884
0.00595267
0.00618455
0.00640563
0.00661661
0.00681797
0.00701004
0.00719308
0.00736734
0.00753302
0.00769033
0.00783951
0.00798077
0.00811435
0.00824051
0.0083595
0.00847159
0.00857705
0.00867616
0.00876919
0.00885644
0.00893816
0.00901465
0.00908616
0.00915297
0.00921532
0.00927348
0.00932767
0.00937813
0.00942508
0.00946875
0.00950932
0.009547
0.00958198
0.00961441
0.00964449
0.00967235
0.00969815
0.00972204
0.00974413
0.00976456
0.00978344
0.00980088
0.00981698
0.00983185
0.00984556
0.00985821
0.00986986
0.0098806
0.0098905
0.0098996
0.00990799
0.0099157
0.00992279
0.00992931
0.0099353
0.0099408
0.00994586
0.00995049
0.00995475
0.00995865
0.00996223
0.00996552
0.00996852
0.00997128
0.0099738
0.00997611
0.00997822
0.00998015
0.00998192
0.00998353
0.00998501
0.00998636
0.00998759
0.00998871
0.00998974
0.00999067
0.00999153
0.0099923
0.00999301
0.00999366
0.00999425
0.00999478
0.00999527
0.00999571
0.00999612
0.00999648
0.00999681
0.00999712
0.00999739
0.00999764
0.00999787
0.00999807
0.00999826
0.00999843
0.00999858
0.00999872
0.00999884
0.00999896
0.00999906
0.00999915
0.00999924
0.00999931
0.00999938
0.00999944
0.0099995
0.00999955
0.0099996
0.00999964
0.00999967
0.00999971
0.00999974
0.00999976
0.00999979
0.00999981
0.00999983
0.00999985
0.00999986
0.00999988
0.00999989
0.0099999
0.00999991
0.00999992
0.00999993
0.00999994
0.00999994
0.00999995
0.00999996
0.00999996
0.00999997
0.00999997
0.00999997
0.00999998
0.00999998
0.00999998
0.00999998
0.00999998
0.00999999
0.00999999
0.00999999
0.00999999
0.00999999
0.00999999
0.00999999
0.00999999
0.00999999
0.01
0.01
0.01
0.01
0.01
0.01
0.01
0.01
0.01
0.01
0.01
0.01
0.01
0.01
0.01
0.01
0.01
0.01
0.01
0.01
0.01
0.01
0.01
0.01
0.01
0.01
0.01
0.01
0.01
0.01
0.01
0.01
0.01
0.01
0.01
0.01
0.01
0.01
0.01
0.01
0.01
0.01
0.01
0.01
0.01
0.01
0.01
0.01
0.01
0.01
0.01
0.01
0.01
0.01
0.01
0.01
0.01
0.01
0.01
0.01
0.01
0.01
0.01
0.01
0.01
0.01
0.01
0.01
0.01
0.01
0.01
0.01
0.01
0.01
0.01
0.01
0.01
0.01
0.01
0.01
0.01
0.01
0.01
0.01
0.01
0.01
0.01
0.01
0.01
0.01
0.01
0.01
0.01
0.01
0.01
0.01
0.01
0.01
0.01
0.01
0.01
0.01
0.01
0.01
0.01
0.01
0.01
0.01
0.01
0.01
0.01
0.01
0.01
0.01
0.01
0.01
0.01
0.01
0.01
0.01
0.01
0.01
0.01
0.01
0.01
0.01
0.01
0.01
0.01
0.01
0.01
0.01
0.01
0.01
0.01
0.01
0.01
0.01
0.01
0.01
0.01
0.01
0.01
0.01
0.01
0.01
0.01
0.01
0.01
0.01
0.01
0.01
0.01
0.01
0.01
0.01
0.01
0.01
0.01
0.01
0.01
0.01
0.01
0.01
0.01
0.01
0.01
0.01
0.01
0.01
0.01
0.01
0.01
0.01
0.01
0.01
0.01
0.01
0.01
0.01
0.01
0.01
0.01
0.01
0.01
0.01
0.01
0.01
0.01
0.01
0.01
0.01
0.01
0.01
0.01
0.01
0.01
0.01
0.01
0.01
0.01
0.01
0.01
0.01
0.01
0.01
0.01
0.01
0.01
0.01
0.01
0.01
0.01
0.01
0.01
0.01
0.01
0.01
0.01
0.01
0.01
0.01
0.01
0.01
0.01
0.01
0.01
0.01
0.01
0.01
0.01
0.01
0.01
0.01
0.01
0.01
0.01
0.01
0.01
0.01
0.01
0.01
0.01
0.01
0.01
0.01
0.01
0.01
0.01
0.01
0.01
)
;
    }
    Wall
    {
        type            calculated;
        value           nonuniform List<scalar> 
400
(
0.00487478
0.00517563
0.00545107
0.00570884
0.00595267
0.00618455
0.00640562
0.0066166
0.00681795
0.00701002
0.00719306
0.00736731
0.00753299
0.0076903
0.00783947
0.00798073
0.00811431
0.00824046
0.00835945
0.00847154
0.008577
0.00867611
0.00876914
0.00885639
0.00893811
0.0090146
0.00908611
0.00915292
0.00921527
0.00927343
0.00932762
0.00937808
0.00942504
0.0094687
0.00950928
0.00954696
0.00958193
0.00961437
0.00964445
0.00967231
0.00969812
0.009722
0.00974409
0.00976452
0.00978341
0.00980085
0.00981695
0.00983182
0.00984553
0.00985818
0.00986984
0.00988058
0.00989047
0.00989958
0.00990797
0.00991568
0.00992277
0.00992929
0.00993528
0.00994079
0.00994584
0.00995048
0.00995474
0.00995864
0.00996222
0.0099655
0.00996851
0.00997127
0.00997379
0.0099761
0.00997821
0.00998014
0.00998191
0.00998353
0.009985
0.00998635
0.00998758
0.00998871
0.00998973
0.00999067
0.00999152
0.0099923
0.00999301
0.00999366
0.00999424
0.00999478
0.00999527
0.00999571
0.00999611
0.00999648
0.00999681
0.00999712
0.00999739
0.00999764
0.00999787
0.00999807
0.00999826
0.00999843
0.00999858
0.00999872
0.00999884
0.00999896
0.00999906
0.00999915
0.00999924
0.00999931
0.00999938
0.00999944
0.0099995
0.00999955
0.0099996
0.00999964
0.00999967
0.00999971
0.00999974
0.00999976
0.00999979
0.00999981
0.00999983
0.00999985
0.00999986
0.00999988
0.00999989
0.0099999
0.00999991
0.00999992
0.00999993
0.00999994
0.00999994
0.00999995
0.00999996
0.00999996
0.00999997
0.00999997
0.00999997
0.00999998
0.00999998
0.00999998
0.00999998
0.00999998
0.00999999
0.00999999
0.00999999
0.00999999
0.00999999
0.00999999
0.00999999
0.00999999
0.00999999
0.01
0.01
0.01
0.01
0.01
0.01
0.01
0.01
0.01
0.01
0.01
0.01
0.01
0.01
0.01
0.01
0.01
0.01
0.01
0.01
0.01
0.01
0.01
0.01
0.01
0.01
0.01
0.01
0.01
0.01
0.01
0.01
0.01
0.01
0.01
0.01
0.01
0.01
0.01
0.01
0.01
0.01
0.01
0.01
0.01
0.01
0.01
0.01
0.01
0.01
0.01
0.01
0.01
0.01
0.01
0.01
0.01
0.01
0.01
0.01
0.01
0.01
0.01
0.01
0.01
0.01
0.01
0.01
0.01
0.01
0.01
0.01
0.01
0.01
0.01
0.01
0.01
0.01
0.01
0.01
0.01
0.01
0.01
0.01
0.01
0.01
0.01
0.01
0.01
0.01
0.01
0.01
0.01
0.01
0.01
0.01
0.01
0.01
0.01
0.01
0.01
0.01
0.01
0.01
0.01
0.01
0.01
0.01
0.01
0.01
0.01
0.01
0.01
0.01
0.01
0.01
0.01
0.01
0.01
0.01
0.01
0.01
0.01
0.01
0.01
0.01
0.01
0.01
0.01
0.01
0.01
0.01
0.01
0.01
0.01
0.01
0.01
0.01
0.01
0.01
0.01
0.01
0.01
0.01
0.01
0.01
0.01
0.01
0.01
0.01
0.01
0.01
0.01
0.01
0.01
0.01
0.01
0.01
0.01
0.01
0.01
0.01
0.01
0.01
0.01
0.01
0.01
0.01
0.01
0.01
0.01
0.01
0.01
0.01
0.01
0.01
0.01
0.01
0.01
0.01
0.01
0.01
0.01
0.01
0.01
0.01
0.01
0.01
0.01
0.01
0.01
0.01
0.01
0.01
0.01
0.01
0.01
0.01
0.01
0.01
0.01
0.01
0.01
0.01
0.01
0.01
0.01
0.01
0.01
0.01
0.01
0.01
0.01
0.01
0.01
0.01
0.01
0.01
0.01
0.01
0.01
0.01
0.01
0.01
0.01
0.01
0.01
0.01
0.01
0.01
0.01
0.01
0.01
0.01
0.01
0.01
0.01
0.01
0.01
0.01
0.01
0.01
0.01
0.01
0.01
0.01
0.01
0.01
0.01
0.01
0.01
)
;
    }
}


// ************************************************************************* //
