/*--------------------------------*- C++ -*----------------------------------*\
  =========                 |
  \\      /  F ield         | OpenFOAM: The Open Source CFD Toolbox
   \\    /   O peration     | Website:  https://openfoam.org
    \\  /    A nd           | Version:  10
     \\/     M anipulation  |
\*---------------------------------------------------------------------------*/
FoamFile
{
    format      ascii;
    class       volScalarField;
    location    "0.08";
    object      Exp1;
}
// * * * * * * * * * * * * * * * * * * * * * * * * * * * * * * * * * * * * * //

dimensions      [0 0 0 0 0 0 0];

internalField   uniform 0;

boundaryField
{
    frontAndBack
    {
        type            empty;
    }
    inlet
    {
        type            calculated;
        value           uniform 0;
    }
    outlet
    {
        type            calculated;
        value           uniform 0;
    }
    substrate
    {
        type            calculated;
        value           nonuniform List<scalar> 
400
(
0.132919
0.124633
0.117236
0.110456
0.104155
0.0982524
0.0926965
0.087452
0.0824924
0.0777974
0.0733502
0.0691366
0.0651442
0.0613617
0.0577789
0.0543863
0.0511747
0.0481357
0.045261
0.0425429
0.0399737
0.0375464
0.035254
0.0330898
0.0310475
0.029121
0.0273043
0.0255918
0.0239782
0.0224584
0.0210273
0.0196804
0.0184131
0.0172212
0.0161006
0.0150474
0.0140579
0.0131286
0.0122563
0.0114376
0.0106696
0.00994948
0.00927444
0.00864193
0.0080495
0.00749483
0.00697571
0.00649006
0.0060359
0.00561137
0.00521468
0.00484417
0.00449825
0.00417541
0.00387424
0.00359341
0.00333164
0.00308775
0.0028606
0.00264914
0.00245237
0.00226933
0.00209915
0.00194098
0.00179404
0.00165758
0.00153092
0.00141339
0.00130439
0.00120334
0.00110968
0.00102293
0.000942604
0.000868253
0.000799463
0.000735844
0.00067703
0.000622681
0.000572479
0.000526124
0.00048334
0.000443867
0.000407463
0.000373903
0.000342977
0.00031449
0.000288259
0.000264116
0.000241903
0.000221473
0.000202692
0.000185432
0.000169577
0.000155018
0.000141654
0.000129392
0.000118146
0.000107836
9.83869e-05
8.97307e-05
8.1804e-05
7.45482e-05
6.79091e-05
6.18368e-05
5.6285e-05
5.12113e-05
4.65762e-05
4.23436e-05
3.84801e-05
3.49549e-05
3.17398e-05
2.88086e-05
2.61373e-05
2.3704e-05
2.14883e-05
1.94716e-05
1.76368e-05
1.59682e-05
1.44514e-05
1.30731e-05
1.18213e-05
1.06848e-05
9.65341e-06
8.71784e-06
7.86954e-06
7.10072e-06
6.40422e-06
5.77352e-06
5.20265e-06
4.68616e-06
4.21909e-06
3.79689e-06
3.41541e-06
3.0709e-06
2.75989e-06
2.47927e-06
2.22618e-06
1.99802e-06
1.79243e-06
1.60726e-06
1.44057e-06
1.29057e-06
1.15565e-06
1.03437e-06
9.25379e-07
8.27492e-07
7.39615e-07
6.60761e-07
5.90038e-07
5.26638e-07
4.69828e-07
4.18949e-07
3.73403e-07
3.32651e-07
2.96205e-07
2.63626e-07
2.34519e-07
2.08525e-07
1.85323e-07
1.64624e-07
1.46166e-07
1.29715e-07
1.15059e-07
1.0201e-07
9.0397e-08
8.00668e-08
7.08824e-08
6.27208e-08
5.54717e-08
4.90363e-08
4.33262e-08
3.82621e-08
3.37732e-08
2.97962e-08
2.62744e-08
2.31574e-08
2.04e-08
1.7962e-08
1.58074e-08
1.39044e-08
1.22243e-08
1.07418e-08
9.43441e-09
8.28194e-09
7.2666e-09
6.37251e-09
5.58561e-09
4.89341e-09
4.28481e-09
3.75e-09
3.28028e-09
2.86794e-09
2.50615e-09
2.18889e-09
1.91081e-09
1.66721e-09
1.45392e-09
1.26727e-09
1.10402e-09
9.61299e-10
8.36602e-10
7.27705e-10
6.32658e-10
5.49741e-10
4.77446e-10
4.14444e-10
3.5957e-10
3.118e-10
2.70237e-10
2.34093e-10
2.02679e-10
1.75389e-10
1.51695e-10
1.31133e-10
1.133e-10
9.78412e-11
8.44476e-11
7.28496e-11
6.28117e-11
5.41287e-11
4.66217e-11
4.01349e-11
3.45326e-11
2.96968e-11
2.55249e-11
2.19275e-11
1.88273e-11
1.6157e-11
1.38582e-11
1.18802e-11
1.01792e-11
8.71712e-12
7.46117e-12
6.38282e-12
5.45746e-12
4.66381e-12
3.98348e-12
3.4006e-12
2.90149e-12
2.47433e-12
2.10895e-12
1.79658e-12
1.52967e-12
1.30173e-12
1.10717e-12
9.41193e-13
7.99678e-13
6.79083e-13
5.7637e-13
4.88935e-13
4.14545e-13
3.51288e-13
2.97527e-13
2.5186e-13
2.13091e-13
1.80194e-13
1.52295e-13
1.28648e-13
1.08615e-13
9.16535e-14
7.72998e-14
6.51595e-14
5.4897e-14
4.62264e-14
3.89047e-14
3.27254e-14
2.7513e-14
2.31186e-14
1.94159e-14
1.62976e-14
1.36728e-14
1.14648e-14
9.60822e-15
8.04806e-15
6.73767e-15
5.63767e-15
4.71476e-15
3.94086e-15
3.29225e-15
2.74894e-15
2.29408e-15
1.91348e-15
1.59518e-15
1.32912e-15
1.10686e-15
9.21275e-16
7.66405e-16
6.37233e-16
5.29553e-16
4.39836e-16
3.65127e-16
3.02948e-16
2.51226e-16
2.08224e-16
1.72492e-16
1.42817e-16
1.18184e-16
9.77488e-17
8.08044e-17
6.67621e-17
5.51312e-17
4.55025e-17
3.75358e-17
3.09476e-17
2.55024e-17
2.10042e-17
1.72904e-17
1.42257e-17
1.16981e-17
9.61455e-18
7.89796e-18
6.48445e-18
5.32112e-18
4.36422e-18
3.57752e-18
2.93109e-18
2.40021e-18
1.96446e-18
1.60697e-18
1.31386e-18
1.07364e-18
8.76887e-19
7.15816e-19
5.84026e-19
4.76251e-19
3.88163e-19
3.16202e-19
2.57448e-19
2.09501e-19
1.70395e-19
1.38517e-19
1.12544e-19
9.13935e-20
7.41792e-20
6.0176e-20
4.87909e-20
3.95392e-20
3.20252e-20
2.59257e-20
2.0977e-20
1.69641e-20
1.37118e-20
1.10772e-20
8.94425e-21
7.21824e-21
5.82229e-21
4.69388e-21
3.78221e-21
3.04603e-21
2.45188e-21
1.9726e-21
1.58619e-21
1.27481e-21
1.02403e-21
8.22163e-22
6.59748e-22
5.29145e-22
4.24178e-22
3.39858e-22
2.7216e-22
2.17834e-22
1.74264e-22
1.39336e-22
1.11352e-22
8.89425e-23
7.10065e-23
5.66584e-23
4.51864e-23
3.60189e-23
2.86965e-23
2.28511e-23
1.81871e-23
1.44676e-23
1.15029e-23
9.14114e-24
7.26057e-24
5.76395e-24
4.57352e-24
3.62711e-24
2.8751e-24
2.27788e-24
1.80383e-24
1.42775e-24
1.12956e-24
8.93274e-25
7.06148e-25
5.58058e-25
4.40955e-25
3.48445e-25
2.75455e-25
2.17965e-25
1.72798e-25
1.37443e-25
1.09931e-25
8.87221e-26
7.26234e-26
6.07267e-26
5.23562e-26
4.70313e-26
4.44422e-26
)
;
    }
    Wall
    {
        type            calculated;
        value           nonuniform List<scalar> 
400
(
0.132919
0.124633
0.117236
0.110457
0.104156
0.098253
0.0926973
0.0874529
0.0824935
0.0777986
0.0733515
0.069138
0.0651457
0.0613634
0.0577807
0.0543881
0.0511766
0.0481377
0.045263
0.0425449
0.0399759
0.0375486
0.0352562
0.033092
0.0310497
0.0291232
0.0273065
0.025594
0.0239804
0.0224606
0.0210295
0.0196826
0.0184153
0.0172233
0.0161026
0.0150494
0.0140599
0.0131306
0.0122582
0.0114395
0.0106715
0.00995127
0.00927618
0.00864363
0.00805115
0.00749642
0.00697725
0.00649156
0.00603735
0.00561276
0.00521603
0.00484547
0.00449949
0.00417661
0.00387539
0.00359451
0.0033327
0.00308876
0.00286157
0.00265007
0.00245325
0.00227017
0.00209995
0.00194174
0.00179476
0.00165827
0.00153157
0.00141401
0.00130498
0.00120389
0.00111021
0.00102343
0.00094307
0.000868693
0.000799877
0.000736234
0.000677397
0.000623027
0.000572803
0.000526429
0.000483626
0.000444135
0.000407714
0.000374138
0.000343197
0.000314696
0.000288452
0.000264296
0.000242071
0.00022163
0.000202838
0.000185568
0.000169703
0.000155136
0.000141764
0.000129494
0.000118241
0.000107924
9.84684e-05
8.98063e-05
8.18741e-05
7.46132e-05
6.79693e-05
6.18925e-05
5.63366e-05
5.1259e-05
4.66203e-05
4.23844e-05
3.85177e-05
3.49897e-05
3.17718e-05
2.88381e-05
2.61645e-05
2.3729e-05
2.15114e-05
1.94928e-05
1.76563e-05
1.59862e-05
1.44679e-05
1.30883e-05
1.18352e-05
1.06976e-05
9.66513e-06
8.72858e-06
7.87939e-06
7.10974e-06
6.41247e-06
5.78107e-06
5.20956e-06
4.69248e-06
4.22486e-06
3.80216e-06
3.42022e-06
3.07528e-06
2.7639e-06
2.48292e-06
2.2295e-06
2.00105e-06
1.79518e-06
1.60977e-06
1.44284e-06
1.29263e-06
1.15753e-06
1.03607e-06
9.26926e-07
8.28894e-07
7.40886e-07
6.61913e-07
5.91081e-07
5.27581e-07
4.70682e-07
4.19721e-07
3.741e-07
3.3328e-07
2.96773e-07
2.64139e-07
2.34981e-07
2.08942e-07
1.85699e-07
1.64962e-07
1.4647e-07
1.29988e-07
1.15305e-07
1.02231e-07
9.05952e-08
8.02446e-08
7.10419e-08
6.28637e-08
5.55998e-08
4.9151e-08
4.34288e-08
3.83539e-08
3.38553e-08
2.98695e-08
2.63399e-08
2.32159e-08
2.04522e-08
1.80085e-08
1.58489e-08
1.39413e-08
1.22571e-08
1.0771e-08
9.46038e-09
8.30503e-09
7.2871e-09
6.39071e-09
5.60176e-09
4.90772e-09
4.2975e-09
3.76124e-09
3.29023e-09
2.87674e-09
2.51394e-09
2.19577e-09
1.91689e-09
1.67258e-09
1.45866e-09
1.27145e-09
1.10769e-09
9.64539e-10
8.39454e-10
7.30215e-10
6.34864e-10
5.51681e-10
4.7915e-10
4.1594e-10
3.60882e-10
3.12951e-10
2.71246e-10
2.34977e-10
2.03452e-10
1.76065e-10
1.52286e-10
1.31651e-10
1.13752e-10
9.82357e-11
8.47918e-11
7.31498e-11
6.30733e-11
5.43566e-11
4.68201e-11
4.03075e-11
3.46827e-11
2.98273e-11
2.56382e-11
2.20259e-11
1.89127e-11
1.6231e-11
1.39223e-11
1.19357e-11
1.02273e-11
8.75876e-12
7.49717e-12
6.41394e-12
5.48434e-12
4.68701e-12
4.0035e-12
3.41787e-12
2.91637e-12
2.48715e-12
2.11998e-12
1.80607e-12
1.53783e-12
1.30874e-12
1.1132e-12
9.46368e-13
8.04118e-13
6.8289e-13
5.79633e-13
4.9173e-13
4.16938e-13
3.53335e-13
2.99278e-13
2.53357e-13
2.14369e-13
1.81285e-13
1.53226e-13
1.29442e-13
1.09292e-13
9.22298e-14
7.77904e-14
6.5577e-14
5.5252e-14
4.65281e-14
3.9161e-14
3.2943e-14
2.76976e-14
2.32752e-14
1.95486e-14
1.64099e-14
1.3768e-14
1.15453e-14
9.6763e-15
8.10559e-15
6.78628e-15
5.6787e-15
4.74938e-15
3.97006e-15
3.31686e-15
2.76967e-15
2.31153e-15
1.92816e-15
1.60752e-15
1.3395e-15
1.11558e-15
9.28595e-16
7.72547e-16
6.42384e-16
5.3387e-16
4.43453e-16
3.68155e-16
3.05482e-16
2.53345e-16
2.09995e-16
1.73972e-16
1.44052e-16
1.19215e-16
9.86086e-17
8.15211e-17
6.73593e-17
5.56283e-17
4.59163e-17
3.78799e-17
3.12337e-17
2.57401e-17
2.12016e-17
1.74541e-17
1.43615e-17
1.18107e-17
9.70785e-18
7.97522e-18
6.54839e-18
5.37402e-18
4.40794e-18
3.61365e-18
2.96093e-18
2.42484e-18
1.98477e-18
1.62372e-18
1.32766e-18
1.08501e-18
8.86243e-19
7.23513e-19
5.90355e-19
4.81452e-19
3.92434e-19
3.19708e-19
2.60324e-19
2.1186e-19
1.72329e-19
1.40101e-19
1.1384e-19
9.24542e-20
7.50467e-20
6.0885e-20
4.93701e-20
4.00121e-20
3.24111e-20
2.62404e-20
2.12335e-20
1.71731e-20
1.3882e-20
1.12157e-20
9.05689e-21
7.30981e-21
5.89669e-21
4.7543e-21
3.83124e-21
3.08581e-21
2.48413e-21
1.99873e-21
1.60735e-21
1.29194e-21
1.03789e-21
8.33371e-22
6.68806e-22
5.36461e-22
4.30084e-22
3.44624e-22
2.76003e-22
2.20932e-22
1.76759e-22
1.41345e-22
1.12969e-22
9.02429e-23
7.20519e-23
5.74983e-23
4.58609e-23
3.65602e-23
2.91308e-23
2.31993e-23
1.84661e-23
1.46911e-23
1.16818e-23
9.28424e-24
7.375e-24
5.85541e-24
4.64657e-24
3.68543e-24
2.92164e-24
2.315e-24
1.83342e-24
1.45132e-24
1.14834e-24
9.08216e-25
7.18035e-25
5.67511e-25
4.4847e-25
3.54417e-25
2.80202e-25
2.21741e-25
1.75804e-25
1.39842e-25
1.11855e-25
9.02777e-26
7.38999e-26
6.18005e-26
5.32959e-26
4.78967e-26
4.52419e-26
)
;
    }
}


// ************************************************************************* //
