/*--------------------------------*- C++ -*----------------------------------*\
  =========                 |
  \\      /  F ield         | OpenFOAM: The Open Source CFD Toolbox
   \\    /   O peration     | Website:  https://openfoam.org
    \\  /    A nd           | Version:  10
     \\/     M anipulation  |
\*---------------------------------------------------------------------------*/
FoamFile
{
    format      ascii;
    class       volScalarField;
    location    "0.08";
    object      N1;
}
// * * * * * * * * * * * * * * * * * * * * * * * * * * * * * * * * * * * * * //

dimensions      [0 0 0 0 0 0 0];

internalField   nonuniform List<scalar> 
8000
(
1.01301
0.950368
0.894402
0.843066
0.795318
0.750555
0.708392
0.668563
0.630873
0.595171
0.561331
0.529249
0.498833
0.47
0.442675
0.416786
0.392268
0.369055
0.347088
0.326309
0.30666
0.28809
0.270545
0.253976
0.238335
0.223576
0.209655
0.196529
0.184158
0.172503
0.161526
0.151193
0.141469
0.132322
0.12372
0.115635
0.108037
0.100902
0.094202
0.0879141
0.0820148
0.0764825
0.0712962
0.0664362
0.0618839
0.0576214
0.0536318
0.0498993
0.0464086
0.0431454
0.0400962
0.037248
0.0345887
0.0321068
0.0297914
0.0276323
0.0256197
0.0237445
0.021998
0.020372
0.018859
0.0174516
0.0161429
0.0149267
0.0137967
0.0127474
0.0117734
0.0108697
0.0100314
0.00925428
0.00853409
0.00786695
0.00724919
0.00667741
0.00614839
0.00565913
0.00520682
0.00478885
0.00440277
0.00404627
0.00371724
0.00341367
0.0031337
0.0028756
0.00263776
0.00241867
0.00221694
0.00203126
0.00186043
0.00170331
0.00155886
0.00142612
0.00130418
0.00119221
0.00108944
0.000995135
0.000908644
0.000829348
0.000756677
0.000690104
0.000629141
0.000573338
0.000522278
0.000475577
0.000432879
0.000393858
0.00035821
0.000325658
0.000295945
0.000268833
0.000244106
0.000221562
0.000201018
0.000182304
0.000165263
0.000149753
0.000135642
0.000122809
0.000111143
0.000100543
9.09158e-05
8.21751e-05
7.42429e-05
6.70475e-05
6.05234e-05
5.46105e-05
4.92539e-05
4.44032e-05
4.00128e-05
3.60406e-05
3.24484e-05
2.92013e-05
2.62674e-05
2.36178e-05
2.12259e-05
1.90677e-05
1.71212e-05
1.53665e-05
1.37853e-05
1.23612e-05
1.10792e-05
9.92555e-06
8.88795e-06
7.95515e-06
7.11695e-06
6.36411e-06
5.68826e-06
5.08181e-06
4.53789e-06
4.05029e-06
3.61338e-06
3.22207e-06
2.87179e-06
2.55836e-06
2.27807e-06
2.02751e-06
1.80365e-06
1.60373e-06
1.42529e-06
1.2661e-06
1.12414e-06
9.97617e-07
8.84905e-07
7.84546e-07
6.9523e-07
6.15782e-07
5.45146e-07
4.82376e-07
4.26624e-07
3.77131e-07
3.33215e-07
2.94268e-07
2.59744e-07
2.29158e-07
2.02073e-07
1.781e-07
1.56893e-07
1.38143e-07
1.21573e-07
1.06936e-07
9.40152e-08
8.26138e-08
7.25586e-08
6.36952e-08
5.58863e-08
4.901e-08
4.29581e-08
3.76344e-08
3.29538e-08
2.88407e-08
2.52282e-08
2.20569e-08
1.92744e-08
1.68344e-08
1.46958e-08
1.28223e-08
1.11819e-08
9.7464e-09
8.49083e-09
7.39321e-09
6.43418e-09
5.59667e-09
4.86567e-09
4.22798e-09
3.67196e-09
3.18743e-09
2.7654e-09
2.39801e-09
2.07835e-09
1.80038e-09
1.55877e-09
1.34889e-09
1.16666e-09
1.00853e-09
8.71374e-10
7.52482e-10
6.49474e-10
5.60275e-10
4.83075e-10
4.16296e-10
3.58561e-10
3.08672e-10
2.65585e-10
2.28394e-10
1.96308e-10
1.68641e-10
1.44798e-10
1.24261e-10
1.06581e-10
9.13685e-11
7.82863e-11
6.70421e-11
5.73827e-11
4.90893e-11
4.19725e-11
3.58686e-11
3.06363e-11
2.61535e-11
2.23149e-11
1.90297e-11
1.62196e-11
1.38172e-11
1.17644e-11
1.00114e-11
8.51506e-12
7.23857e-12
6.1502e-12
5.22272e-12
4.43277e-12
3.76032e-12
3.1882e-12
2.7017e-12
2.28823e-12
1.93702e-12
1.63885e-12
1.38584e-12
1.17128e-12
9.89411e-13
8.35343e-13
7.04893e-13
5.94501e-13
5.01132e-13
4.22205e-13
3.5552e-13
2.9921e-13
2.51686e-13
2.11598e-13
1.77802e-13
1.49325e-13
1.25342e-13
1.05156e-13
8.81738e-14
7.38954e-14
6.18964e-14
5.18184e-14
4.33585e-14
3.62605e-14
3.03086e-14
2.53202e-14
2.11417e-14
1.76434e-14
1.47163e-14
1.22683e-14
1.02221e-14
8.51267e-15
7.08539e-15
5.8943e-15
4.90086e-15
4.07271e-15
3.38272e-15
2.80814e-15
2.32993e-15
1.93214e-15
1.60142e-15
1.32661e-15
1.09838e-15
9.08936e-16
7.51771e-16
6.21454e-16
5.13458e-16
4.24005e-16
3.49953e-16
2.88682e-16
2.38014e-16
1.96135e-16
1.6154e-16
1.32978e-16
1.09408e-16
8.99683e-17
7.39441e-17
6.0742e-17
4.98709e-17
4.0924e-17
3.35645e-17
2.75141e-17
2.25426e-17
1.84597e-17
1.51084e-17
1.2359e-17
1.01047e-17
8.25721e-18
6.74401e-18
5.50523e-18
4.49166e-18
3.66278e-18
2.9853e-18
2.43186e-18
1.97999e-18
1.61124e-18
1.31049e-18
1.06531e-18
8.65559e-19
7.02894e-19
5.70501e-19
4.62805e-19
3.75243e-19
3.0409e-19
2.46301e-19
1.99391e-19
1.61331e-19
1.30469e-19
1.05455e-19
8.51934e-20
6.87889e-20
5.55144e-20
4.47784e-20
3.60999e-20
2.90884e-20
2.34266e-20
1.8857e-20
1.5171e-20
1.21991e-20
9.80439e-21
7.87568e-21
6.32313e-21
5.07402e-21
4.06957e-21
3.26229e-21
2.6138e-21
2.09314e-21
1.67533e-21
1.34023e-21
1.07161e-21
8.56391e-22
6.84043e-22
5.461e-22
4.35751e-22
3.47522e-22
2.77016e-22
2.20701e-22
1.75744e-22
1.39874e-22
1.11268e-22
8.84674e-23
7.03031e-23
5.58399e-23
4.43297e-23
3.51742e-23
2.78956e-23
2.2112e-23
1.75188e-23
1.3873e-23
1.09806e-23
8.68731e-24
6.87004e-24
5.43088e-24
4.29194e-24
3.39132e-24
2.67983e-24
2.11848e-24
1.67634e-24
1.32896e-24
1.05706e-24
8.45466e-25
6.82348e-25
5.58536e-25
4.6704e-25
4.02663e-25
3.6171e-25
3.41798e-25
1.01934
0.961317
0.907255
0.856749
0.80933
0.764626
0.72236
0.682322
0.644349
0.60831
0.574096
0.541611
0.510773
0.481505
0.453736
0.427399
0.402432
0.378774
0.356366
0.335153
0.315079
0.296093
0.278144
0.261183
0.245162
0.230037
0.215763
0.202298
0.189602
0.177635
0.166361
0.155744
0.145749
0.136344
0.127497
0.11918
0.111362
0.104018
0.0971204
0.0906458
0.0845703
0.0788716
0.0735286
0.068521
0.0638296
0.0594365
0.0553241
0.0514763
0.0478774
0.0445128
0.0413684
0.0384312
0.0356886
0.0331287
0.0307405
0.0285133
0.0264372
0.0245026
0.0227008
0.0210233
0.0194622
0.0180101
0.0166598
0.0154048
0.0142388
0.013156
0.0121509
0.0112183
0.0103532
0.00955125
0.00880801
0.00811951
0.00748197
0.00689186
0.00634588
0.00584093
0.00537412
0.00494274
0.00454426
0.00417633
0.00383673
0.00352341
0.00323445
0.00296806
0.00272258
0.00249645
0.00228824
0.00209659
0.00192026
0.00175809
0.00160901
0.001472
0.00134614
0.00123057
0.00112448
0.00102715
0.000937876
0.00085603
0.000781021
0.000712307
0.000649383
0.000591785
0.000539083
0.000490879
0.000446808
0.000406531
0.000369737
0.000336137
0.000305468
0.000277484
0.000251961
0.000228692
0.000207487
0.00018817
0.000170581
0.000154572
0.000140007
0.000126761
0.00011472
0.000103779
9.38419e-05
8.48198e-05
7.66324e-05
6.92055e-05
6.24714e-05
5.63682e-05
5.08391e-05
4.58324e-05
4.13007e-05
3.72006e-05
3.34928e-05
3.01412e-05
2.71129e-05
2.4378e-05
2.19092e-05
1.96815e-05
1.76724e-05
1.58611e-05
1.42291e-05
1.27591e-05
1.14358e-05
1.02451e-05
9.17407e-06
8.21124e-06
7.34606e-06
6.56899e-06
5.87139e-06
5.24542e-06
4.68399e-06
4.18069e-06
3.72971e-06
3.32581e-06
2.96424e-06
2.64073e-06
2.35141e-06
2.09279e-06
1.86172e-06
1.65537e-06
1.47119e-06
1.30686e-06
1.16034e-06
1.02974e-06
9.13399e-07
8.09808e-07
7.17616e-07
6.3561e-07
5.627e-07
4.97909e-07
4.40363e-07
3.89276e-07
3.43946e-07
3.03744e-07
2.68109e-07
2.36538e-07
2.0858e-07
1.83836e-07
1.61946e-07
1.42592e-07
1.25488e-07
1.10381e-07
9.70432e-08
8.52746e-08
7.48956e-08
6.57467e-08
5.76863e-08
5.05886e-08
4.43418e-08
3.88466e-08
3.40153e-08
2.97697e-08
2.60408e-08
2.27674e-08
1.98953e-08
1.73767e-08
1.51692e-08
1.32353e-08
1.15421e-08
1.00604e-08
8.76436e-09
7.63138e-09
6.64146e-09
5.77697e-09
5.02243e-09
4.36419e-09
3.79027e-09
3.29012e-09
2.8545e-09
2.47527e-09
2.14532e-09
1.85838e-09
1.60899e-09
1.39235e-09
1.20425e-09
1.04102e-09
8.99452e-10
7.76729e-10
6.70402e-10
5.78329e-10
4.98642e-10
4.29711e-10
3.70115e-10
3.18619e-10
2.74144e-10
2.35754e-10
2.02634e-10
1.74076e-10
1.49465e-10
1.28266e-10
1.10016e-10
9.43132e-11
8.08095e-11
6.92029e-11
5.92322e-11
5.06715e-11
4.33254e-11
3.70248e-11
3.16238e-11
2.69965e-11
2.30342e-11
1.96431e-11
1.67424e-11
1.42626e-11
1.21437e-11
1.03341e-11
8.78956e-12
7.47192e-12
6.34847e-12
5.39109e-12
4.57568e-12
3.88155e-12
3.29099e-12
2.78881e-12
2.36201e-12
1.99947e-12
1.69169e-12
1.43052e-12
1.20904e-12
1.02131e-12
8.62277e-13
7.27621e-13
6.1367e-13
5.17291e-13
4.35819e-13
3.66984e-13
3.08859e-13
2.59802e-13
2.18422e-13
1.83536e-13
1.5414e-13
1.29384e-13
1.08547e-13
9.10174e-14
7.62785e-14
6.38926e-14
5.34896e-14
4.47568e-14
3.743e-14
3.12861e-14
2.61369e-14
2.18236e-14
1.82125e-14
1.51909e-14
1.2664e-14
1.05518e-14
8.78726e-15
7.31394e-15
6.08444e-15
5.05895e-15
4.20409e-15
3.49184e-15
2.89873e-15
2.40509e-15
1.99447e-15
1.65308e-15
1.36941e-15
1.13382e-15
9.38261e-16
7.76025e-16
6.41505e-16
5.30024e-16
4.37686e-16
3.61244e-16
2.97997e-16
2.45693e-16
2.02464e-16
1.66753e-16
1.37268e-16
1.12938e-16
9.28715e-17
7.63302e-17
6.27021e-17
5.14802e-17
4.22446e-17
3.46477e-17
2.84021e-17
2.32701e-17
1.90554e-17
1.55959e-17
1.27579e-17
1.04308e-17
8.52371e-18
6.96167e-18
5.68292e-18
4.63663e-18
3.781e-18
3.08166e-18
2.51035e-18
2.0439e-18
1.66325e-18
1.35279e-18
1.0997e-18
8.93499e-19
7.25583e-19
5.88917e-19
4.77745e-19
3.87357e-19
3.13907e-19
2.54253e-19
2.05828e-19
1.6654e-19
1.34681e-19
1.0886e-19
8.79439e-20
7.10098e-20
5.73068e-20
4.62241e-20
3.72655e-20
3.00276e-20
2.4183e-20
1.94659e-20
1.56608e-20
1.2593e-20
1.0121e-20
8.13e-21
6.52731e-21
5.23787e-21
4.20099e-21
3.36763e-21
2.6982e-21
2.16073e-21
1.72944e-21
1.38352e-21
1.10622e-21
8.84049e-22
7.06135e-22
5.63737e-22
4.49825e-22
3.58746e-22
2.85963e-22
2.27829e-22
1.81421e-22
1.44392e-22
1.14862e-22
9.1325e-23
7.2574e-23
5.76437e-23
4.57616e-23
3.63104e-23
2.87967e-23
2.28263e-23
1.80847e-23
1.43211e-23
1.13353e-23
8.96796e-24
7.09198e-24
5.60633e-24
4.4306e-24
3.50088e-24
2.76642e-24
2.18693e-24
1.7305e-24
1.3719e-24
1.09122e-24
8.72795e-25
7.04415e-25
5.76618e-25
4.82196e-25
4.15786e-25
3.73547e-25
3.52877e-25
1.02237
0.968348
0.916618
0.867428
0.820725
0.776373
0.734225
0.69415
0.656033
0.619773
0.585283
0.552484
0.521304
0.491673
0.463528
0.436809
0.411454
0.387409
0.364616
0.343022
0.322575
0.303223
0.284917
0.267609
0.251252
0.235802
0.221215
0.207449
0.194464
0.18222
0.170682
0.159811
0.149575
0.13994
0.130876
0.12235
0.114336
0.106805
0.0997318
0.0930904
0.0868574
0.0810101
0.0755269
0.0703872
0.0655716
0.0610616
0.0568394
0.0528884
0.0491927
0.0457372
0.0425078
0.0394909
0.0366737
0.034044
0.0315906
0.0293024
0.0271693
0.0251817
0.0233303
0.0216067
0.0200025
0.0185103
0.0171227
0.015833
0.0146348
0.013522
0.012489
0.0115305
0.0106415
0.00981722
0.00905334
0.0083457
0.00769043
0.00708391
0.00652274
0.00600374
0.00552393
0.00508054
0.00467097
0.00429278
0.00394372
0.00362167
0.00332465
0.00305084
0.00279852
0.00256608
0.00235206
0.00215507
0.00197383
0.00180714
0.00165389
0.00151306
0.00138369
0.0012649
0.00115585
0.0010558
0.000964041
0.000879911
0.00080281
0.000732178
0.000667499
0.000608294
0.000554121
0.000504573
0.000459272
0.000417872
0.000380051
0.000345514
0.000313988
0.000285224
0.000258989
0.000235071
0.000213274
0.000193419
0.000175339
0.000158883
0.000143912
0.000130297
0.00011792
0.000106673
9.64588e-05
8.71851e-05
7.87693e-05
7.11353e-05
6.42134e-05
5.794e-05
5.22567e-05
4.71103e-05
4.24522e-05
3.82378e-05
3.44266e-05
3.09815e-05
2.78688e-05
2.50576e-05
2.25199e-05
2.02302e-05
1.8165e-05
1.63033e-05
1.46257e-05
1.31148e-05
1.17546e-05
1.05306e-05
9.42977e-06
8.4401e-06
7.5508e-06
6.75207e-06
6.03502e-06
5.3916e-06
4.81452e-06
4.29719e-06
3.83364e-06
3.41848e-06
3.04684e-06
2.71431e-06
2.41693e-06
2.1511e-06
1.91359e-06
1.70149e-06
1.51217e-06
1.34327e-06
1.19266e-06
1.05843e-06
9.38843e-07
8.32366e-07
7.37606e-07
6.53315e-07
5.78373e-07
5.11778e-07
4.52628e-07
4.00117e-07
3.53525e-07
3.12203e-07
2.75576e-07
2.43125e-07
2.14389e-07
1.88955e-07
1.66456e-07
1.46562e-07
1.28982e-07
1.13454e-07
9.97452e-08
8.76488e-08
7.69807e-08
6.75771e-08
5.92923e-08
5.19969e-08
4.55762e-08
3.9928e-08
3.49622e-08
3.05984e-08
2.67656e-08
2.34011e-08
2.04491e-08
1.78603e-08
1.55914e-08
1.36037e-08
1.18633e-08
1.03404e-08
9.00826e-09
7.84375e-09
6.82627e-09
5.93773e-09
5.16218e-09
4.48563e-09
3.89573e-09
3.38166e-09
2.93392e-09
2.54414e-09
2.205e-09
1.91009e-09
1.65376e-09
1.43108e-09
1.23775e-09
1.06998e-09
9.24472e-10
7.98335e-10
6.8905e-10
5.94415e-10
5.12511e-10
4.41662e-10
3.80409e-10
3.2748e-10
2.81768e-10
2.42311e-10
2.0827e-10
1.78917e-10
1.53621e-10
1.31833e-10
1.13075e-10
9.69357e-11
8.30564e-11
7.1127e-11
6.08791e-11
5.20804e-11
4.45299e-11
3.80541e-11
3.2503e-11
2.7747e-11
2.36745e-11
2.01892e-11
1.72079e-11
1.46591e-11
1.24812e-11
1.06214e-11
9.03387e-12
7.67961e-12
6.52492e-12
5.54093e-12
4.70285e-12
3.98943e-12
3.38245e-12
2.86631e-12
2.42765e-12
2.05504e-12
1.7387e-12
1.47028e-12
1.24264e-12
1.04969e-12
8.86237e-13
7.4784e-13
6.30722e-13
5.31664e-13
4.47928e-13
3.77181e-13
3.1744e-13
2.6702e-13
2.2449e-13
1.88635e-13
1.58422e-13
1.32979e-13
1.11562e-13
9.35459e-14
7.83975e-14
6.56675e-14
5.49755e-14
4.60001e-14
3.84697e-14
3.21551e-14
2.68628e-14
2.24298e-14
1.87184e-14
1.56129e-14
1.30157e-14
1.08449e-14
9.03131e-15
7.51707e-15
6.25342e-15
5.19945e-15
4.32084e-15
3.58881e-15
2.97923e-15
2.47188e-15
2.04986e-15
1.69899e-15
1.40743e-15
1.1653e-15
9.64314e-16
7.97574e-16
6.59317e-16
5.44741e-16
4.49838e-16
3.71274e-16
3.06271e-16
2.52515e-16
2.08085e-16
1.71383e-16
1.4108e-16
1.16074e-16
9.54499e-17
7.84493e-17
6.44429e-17
5.29094e-17
4.34174e-17
3.56096e-17
2.91905e-17
2.39161e-17
1.95844e-17
1.60289e-17
1.3112e-17
1.07203e-17
8.76032e-18
7.15492e-18
5.84067e-18
4.76533e-18
3.88595e-18
3.1672e-18
2.58004e-18
2.10063e-18
1.70942e-18
1.39034e-18
1.13023e-18
9.18299e-19
7.45723e-19
6.05264e-19
4.91005e-19
3.98108e-19
3.2262e-19
2.61309e-19
2.11541e-19
1.71162e-19
1.38419e-19
1.11881e-19
9.03847e-20
7.29806e-20
5.88973e-20
4.7507e-20
3.82998e-20
3.0861e-20
2.48541e-20
2.00061e-20
1.60955e-20
1.29425e-20
1.04019e-20
8.35563e-21
6.70847e-21
5.38324e-21
4.31758e-21
3.4611e-21
2.77309e-21
2.2207e-21
1.77743e-21
1.42191e-21
1.13692e-21
9.08584e-22
7.25733e-22
5.79383e-22
4.62309e-22
3.68703e-22
2.93899e-22
2.34152e-22
1.86456e-22
1.48399e-22
1.1805e-22
9.38596e-23
7.45882e-23
5.92435e-23
4.70317e-23
3.73182e-23
2.95959e-23
2.34598e-23
1.85867e-23
1.47186e-23
1.165e-23
9.21687e-24
7.28882e-24
5.76193e-24
4.55357e-24
3.59804e-24
2.84319e-24
2.24761e-24
1.77852e-24
1.40996e-24
1.12148e-24
8.96989e-25
7.23933e-25
5.92591e-25
4.95561e-25
4.27352e-25
3.84035e-25
3.62812e-25
1.02417
0.973127
0.923501
0.875698
0.829865
0.786023
0.744137
0.70415
0.665997
0.629612
0.594932
0.561896
0.530445
0.500519
0.472063
0.445021
0.419338
0.394961
0.371837
0.349915
0.329145
0.309475
0.290859
0.273249
0.2566
0.240867
0.226006
0.211977
0.198739
0.186253
0.174482
0.163389
0.152942
0.143106
0.133849
0.125142
0.116955
0.10926
0.102032
0.0952437
0.0888722
0.0828942
0.0772876
0.0720318
0.0671069
0.0624939
0.058175
0.0541332
0.0503522
0.0468168
0.0435124
0.0404252
0.0375423
0.0348512
0.0323402
0.0299983
0.0278151
0.0257806
0.0238856
0.0221212
0.0204791
0.0189515
0.0175311
0.0162108
0.0149841
0.0138449
0.0127873
0.011806
0.0108958
0.0100519
0.00926978
0.00854526
0.00787436
0.00725336
0.00667879
0.00614739
0.00565612
0.00520213
0.00478277
0.00439554
0.00403813
0.00370837
0.00340425
0.00312389
0.00286553
0.00262753
0.00240839
0.00220668
0.0020211
0.00185042
0.0016935
0.0015493
0.00141683
0.00129519
0.00118354
0.00108109
0.000987131
0.000900987
0.000822039
0.000749716
0.000683487
0.000622864
0.000567393
0.000516658
0.000470272
0.00042788
0.000389153
0.000353789
0.000321509
0.000292055
0.000265192
0.000240701
0.000218382
0.000198051
0.000179538
0.000162689
0.000147359
0.000133417
0.000120744
0.000109228
9.87688e-05
8.9273e-05
8.06556e-05
7.28388e-05
6.57511e-05
5.93274e-05
5.35081e-05
4.82384e-05
4.34687e-05
3.91534e-05
3.52509e-05
3.17234e-05
2.85361e-05
2.56576e-05
2.30592e-05
2.07145e-05
1.85999e-05
1.66936e-05
1.49759e-05
1.34288e-05
1.2036e-05
1.07827e-05
9.65552e-06
8.64216e-06
7.73157e-06
6.91371e-06
6.17949e-06
5.52067e-06
4.92977e-06
4.40006e-06
3.92541e-06
3.50031e-06
3.11978e-06
2.77929e-06
2.47478e-06
2.20259e-06
1.95939e-06
1.74222e-06
1.54837e-06
1.37542e-06
1.22121e-06
1.08376e-06
9.61313e-07
8.52288e-07
7.55259e-07
6.68951e-07
5.92216e-07
5.24026e-07
4.6346e-07
4.09693e-07
3.61985e-07
3.19675e-07
2.82171e-07
2.48943e-07
2.19519e-07
1.93477e-07
1.70439e-07
1.5007e-07
1.32069e-07
1.16169e-07
1.02132e-07
8.97461e-08
7.88228e-08
6.91941e-08
6.0711e-08
5.32411e-08
4.66667e-08
4.08834e-08
3.57987e-08
3.13305e-08
2.7406e-08
2.3961e-08
2.09383e-08
1.82877e-08
1.59644e-08
1.39292e-08
1.21472e-08
1.05877e-08
9.22378e-09
8.03141e-09
6.98959e-09
6.07978e-09
5.28568e-09
4.59294e-09
3.98893e-09
3.46256e-09
3.00411e-09
2.605e-09
2.25775e-09
1.95578e-09
1.69332e-09
1.46532e-09
1.26736e-09
1.09558e-09
9.46587e-10
8.17432e-10
7.05533e-10
6.08635e-10
5.24771e-10
4.52227e-10
3.89509e-10
3.35314e-10
2.88508e-10
2.48107e-10
2.13251e-10
1.83197e-10
1.57296e-10
1.34986e-10
1.1578e-10
9.92545e-11
8.50431e-11
7.28284e-11
6.23353e-11
5.33261e-11
4.55951e-11
3.89644e-11
3.32805e-11
2.84107e-11
2.42408e-11
2.06721e-11
1.76195e-11
1.50097e-11
1.27798e-11
1.08754e-11
9.24996e-12
7.8633e-12
6.681e-12
5.67347e-12
4.81535e-12
4.08486e-12
3.46336e-12
2.93488e-12
2.48572e-12
2.10419e-12
1.78029e-12
1.50545e-12
1.27237e-12
1.0748e-12
9.07437e-13
7.65729e-13
6.45809e-13
5.44382e-13
4.58643e-13
3.86203e-13
3.25034e-13
2.73408e-13
2.29861e-13
1.93147e-13
1.62212e-13
1.3616e-13
1.14231e-13
9.57838e-14
8.0273e-14
6.72384e-14
5.62907e-14
4.71006e-14
3.93901e-14
3.29244e-14
2.75055e-14
2.29664e-14
1.91662e-14
1.59864e-14
1.33271e-14
1.11043e-14
9.24739e-15
7.69692e-15
6.40304e-15
5.32386e-15
4.42423e-15
3.67468e-15
3.05051e-15
2.53103e-15
2.09891e-15
1.73964e-15
1.44111e-15
1.19319e-15
9.8739e-16
8.1666e-16
6.75095e-16
5.57777e-16
4.60604e-16
3.8016e-16
3.136e-16
2.58558e-16
2.13065e-16
1.75484e-16
1.44456e-16
1.18852e-16
9.77345e-17
8.03271e-17
6.59854e-17
5.41759e-17
4.44567e-17
3.6462e-17
2.98893e-17
2.44886e-17
2.00532e-17
1.64126e-17
1.34259e-17
1.0977e-17
8.97006e-18
7.32623e-18
5.98051e-18
4.87943e-18
3.979e-18
3.24304e-18
2.64182e-18
2.15094e-18
1.75035e-18
1.42363e-18
1.15729e-18
9.40292e-19
7.63583e-19
6.1976e-19
5.02765e-19
4.07644e-19
3.30347e-19
2.67569e-19
2.16608e-19
1.75262e-19
1.41735e-19
1.14562e-19
9.25501e-20
7.47291e-20
6.03084e-20
4.86453e-20
3.92175e-20
3.16004e-20
2.54497e-20
2.04855e-20
1.64812e-20
1.32527e-20
1.06512e-20
8.55589e-21
6.86926e-21
5.51227e-21
4.42107e-21
3.54406e-21
2.83956e-21
2.27394e-21
1.82004e-21
1.456e-21
1.16418e-21
9.30368e-22
7.43134e-22
5.93276e-22
4.73395e-22
3.77544e-22
3.00947e-22
2.39768e-22
1.90928e-22
1.51959e-22
1.20882e-22
9.6111e-23
7.63774e-23
6.06647e-23
4.816e-23
3.82135e-23
3.0306e-23
2.40227e-23
1.90327e-23
1.50718e-23
1.19295e-23
9.43805e-24
7.46374e-24
5.90021e-24
4.66285e-24
3.6844e-24
2.91143e-24
2.30156e-24
1.8212e-24
1.44379e-24
1.14839e-24
9.18509e-25
7.41299e-25
6.06808e-25
5.07458e-25
4.37632e-25
3.93311e-25
3.71597e-25
1.02538
0.976518
0.928615
0.882068
0.8371
0.793819
0.752265
0.71244
0.674325
0.637887
0.603085
0.569878
0.538217
0.508057
0.479348
0.45204
0.426084
0.40143
0.378028
0.355828
0.334783
0.314844
0.295964
0.278097
0.261197
0.245221
0.230127
0.215872
0.202417
0.189723
0.177753
0.166471
0.155842
0.145832
0.136411
0.127547
0.119212
0.111376
0.104014
0.0971001
0.0906093
0.0845187
0.078806
0.0734501
0.068431
0.0637294
0.0593271
0.055207
0.0513525
0.0477481
0.0443791
0.0412314
0.0382918
0.0355476
0.0329871
0.0305989
0.0283724
0.0262975
0.0243648
0.0225652
0.0208904
0.0193324
0.0178835
0.0165368
0.0152856
0.0141235
0.0130448
0.0120438
0.0111153
0.0102544
0.00945663
0.00871754
0.00803314
0.00739965
0.00681351
0.00627141
0.00577025
0.00530711
0.00487929
0.00448426
0.00411964
0.00378324
0.00347298
0.00318696
0.00292339
0.00268059
0.00245702
0.00225125
0.00206192
0.00188779
0.0017277
0.00158059
0.00144545
0.00132135
0.00120744
0.00110293
0.00100707
0.000919186
0.000838644
0.00076486
0.000697294
0.000635446
0.000578855
0.000527095
0.000479772
0.000436524
0.000397015
0.000360936
0.000328004
0.000297955
0.000270549
0.000245563
0.000222794
0.000202052
0.000183165
0.000165975
0.000150335
0.000136112
0.000123183
0.000111435
0.000100764
9.10764e-05
8.22849e-05
7.43101e-05
6.70793e-05
6.05258e-05
5.45889e-05
4.92128e-05
4.43468e-05
3.99443e-05
3.5963e-05
3.23642e-05
2.91125e-05
2.61759e-05
2.35249e-05
2.1133e-05
1.89756e-05
1.70308e-05
1.52784e-05
1.37e-05
1.22791e-05
1.10005e-05
9.85055e-06
8.81672e-06
7.88774e-06
7.05336e-06
6.30431e-06
5.63218e-06
5.02935e-06
4.48893e-06
4.0047e-06
3.57102e-06
3.18279e-06
2.83543e-06
2.52477e-06
2.24708e-06
1.99897e-06
1.77741e-06
1.57964e-06
1.40321e-06
1.24587e-06
1.10565e-06
9.80731e-07
8.69503e-07
7.70515e-07
6.82463e-07
6.04178e-07
5.3461e-07
4.72822e-07
4.17968e-07
3.69297e-07
3.26132e-07
2.8787e-07
2.53971e-07
2.23953e-07
1.97385e-07
1.73882e-07
1.53101e-07
1.34736e-07
1.18515e-07
1.04195e-07
9.1559e-08
8.0415e-08
7.05918e-08
6.19374e-08
5.43166e-08
4.76094e-08
4.17093e-08
3.65219e-08
3.19634e-08
2.79597e-08
2.4445e-08
2.13613e-08
1.86571e-08
1.62869e-08
1.42106e-08
1.23926e-08
1.08016e-08
9.41013e-09
8.19367e-09
7.1308e-09
6.20261e-09
5.39247e-09
4.68573e-09
4.06952e-09
3.53252e-09
3.0648e-09
2.65764e-09
2.30337e-09
1.9953e-09
1.72753e-09
1.49493e-09
1.29297e-09
1.11772e-09
9.65714e-10
8.3395e-10
7.1979e-10
6.20934e-10
5.35376e-10
4.61366e-10
3.9738e-10
3.4209e-10
2.94339e-10
2.53121e-10
2.17561e-10
1.869e-10
1.60475e-10
1.37714e-10
1.1812e-10
1.01261e-10
8.67621e-11
7.43005e-11
6.35954e-11
5.44041e-11
4.65168e-11
3.9752e-11
3.39532e-11
2.89851e-11
2.47309e-11
2.109e-11
1.79757e-11
1.53132e-11
1.30382e-11
1.10953e-11
9.437e-12
8.0223e-12
6.8161e-12
5.7882e-12
4.91272e-12
4.16747e-12
3.5334e-12
2.99423e-12
2.53599e-12
2.14675e-12
1.8163e-12
1.5359e-12
1.2981e-12
1.09654e-12
9.25793e-13
7.81219e-13
6.58874e-13
5.55396e-13
4.67922e-13
3.94017e-13
3.3161e-13
2.7894e-13
2.34512e-13
1.97056e-13
1.65495e-13
1.38915e-13
1.16543e-13
9.77222e-14
8.18976e-14
6.85993e-14
5.743e-14
4.8054e-14
4.01874e-14
3.35909e-14
2.80623e-14
2.34313e-14
1.95542e-14
1.63101e-14
1.35969e-14
1.13292e-14
9.43464e-15
7.85279e-15
6.53271e-15
5.43168e-15
4.51383e-15
3.74911e-15
3.1123e-15
2.5823e-15
2.14142e-15
1.77488e-15
1.47031e-15
1.21736e-15
1.0074e-15
8.33207e-16
6.88775e-16
5.6908e-16
4.69938e-16
3.87864e-16
3.19956e-16
2.63799e-16
2.17384e-16
1.79042e-16
1.47385e-16
1.21261e-16
9.9716e-17
8.19557e-17
6.73234e-17
5.52745e-17
4.53582e-17
3.72014e-17
3.04955e-17
2.49853e-17
2.046e-17
1.67456e-17
1.36983e-17
1.11997e-17
9.15205e-18
7.47488e-18
6.10187e-18
4.97845e-18
4.05975e-18
3.30886e-18
2.69544e-18
2.1946e-18
1.78589e-18
1.45253e-18
1.18079e-18
9.59384e-19
7.79088e-19
6.32345e-19
5.12975e-19
4.15923e-19
3.37057e-19
2.73004e-19
2.21008e-19
1.78823e-19
1.44614e-19
1.16889e-19
9.44308e-20
7.62478e-20
6.15341e-20
4.9634e-20
4.00146e-20
3.22428e-20
2.59671e-20
2.0902e-20
1.68163e-20
1.35222e-20
1.08678e-20
8.7299e-21
7.00898e-21
5.6244e-21
4.51101e-21
3.61617e-21
2.89734e-21
2.32021e-21
1.85708e-21
1.48564e-21
1.18788e-21
9.49307e-22
7.58262e-22
6.05354e-22
4.83034e-22
3.85232e-22
3.07076e-22
2.44651e-22
1.94817e-22
1.55054e-22
1.23344e-22
9.80692e-23
7.79337e-23
6.19009e-23
4.91415e-23
3.89924e-23
3.09237e-23
2.45124e-23
1.94207e-23
1.53791e-23
1.21728e-23
9.63053e-24
7.61597e-24
6.02056e-24
4.75797e-24
3.75956e-24
2.97083e-24
2.34851e-24
1.85836e-24
1.47325e-24
1.17182e-24
9.37249e-25
7.56425e-25
6.19193e-25
5.17824e-25
4.46584e-25
4.01374e-25
3.79225e-25
1.02624
0.978976
0.932422
0.886926
0.842729
0.799982
0.758771
0.71914
0.681105
0.644661
0.609788
0.576461
0.544646
0.514304
0.485395
0.457874
0.431696
0.406816
0.383185
0.360758
0.339486
0.319324
0.300225
0.282145
0.265037
0.24886
0.233571
0.219129
0.205493
0.192626
0.18049
0.169048
0.158268
0.148114
0.138555
0.129561
0.121101
0.113148
0.105674
0.0986546
0.0920641
0.0858793
0.0800778
0.0746382
0.0695402
0.0647644
0.0602924
0.0561067
0.0521907
0.0485286
0.0451054
0.041907
0.0389199
0.0361313
0.0335292
0.0311022
0.0288395
0.0267308
0.0247665
0.0229375
0.0212352
0.0196516
0.018179
0.0168102
0.0155383
0.0143572
0.0132607
0.0122431
0.0112993
0.0104243
0.00961329
0.00886199
0.00816628
0.00752231
0.00692648
0.0063754
0.00586594
0.00539514
0.00496023
0.00455865
0.00418799
0.00384601
0.00353062
0.00323985
0.00297191
0.00272508
0.00249781
0.00228862
0.00209615
0.00191913
0.00175639
0.00160683
0.00146945
0.00134329
0.00122749
0.00112124
0.00102379
0.00093445
0.00085257
0.000777561
0.000708873
0.000645999
0.000588468
0.000535849
0.00048774
0.000443774
0.000403608
0.000366931
0.000333451
0.000302904
0.000275043
0.000249642
0.000226494
0.000205408
0.000186207
0.000168732
0.000152832
0.000138373
0.000125229
0.000113286
0.000102438
9.25892e-05
8.36517e-05
7.55445e-05
6.81935e-05
6.15312e-05
5.54957e-05
5.00303e-05
4.50835e-05
4.06079e-05
3.65604e-05
3.29018e-05
2.95961e-05
2.66107e-05
2.39157e-05
2.1484e-05
1.92909e-05
1.73137e-05
1.55322e-05
1.39276e-05
1.24831e-05
1.11833e-05
1.00142e-05
8.9632e-06
8.01879e-06
7.17055e-06
6.40906e-06
5.72576e-06
5.11291e-06
4.56352e-06
4.07124e-06
3.63035e-06
3.23568e-06
2.88254e-06
2.56672e-06
2.28442e-06
2.03219e-06
1.80694e-06
1.60589e-06
1.42652e-06
1.26658e-06
1.12402e-06
9.97029e-07
8.83954e-07
7.8332e-07
6.93805e-07
6.14219e-07
5.43496e-07
4.8068e-07
4.24916e-07
3.75435e-07
3.31553e-07
2.92655e-07
2.58193e-07
2.27676e-07
2.00666e-07
1.76772e-07
1.55646e-07
1.36976e-07
1.20486e-07
1.05927e-07
9.30813e-08
8.1752e-08
7.17656e-08
6.29673e-08
5.52198e-08
4.8401e-08
4.24029e-08
3.71292e-08
3.24949e-08
2.84247e-08
2.48516e-08
2.17166e-08
1.89674e-08
1.65578e-08
1.44469e-08
1.25987e-08
1.09813e-08
9.56666e-09
8.32997e-09
7.24943e-09
6.30581e-09
5.48219e-09
4.76369e-09
4.13723e-09
3.5913e-09
3.1158e-09
2.70186e-09
2.3417e-09
2.0285e-09
1.75628e-09
1.51981e-09
1.31449e-09
1.13632e-09
9.81789e-10
8.47832e-10
7.31772e-10
6.31271e-10
5.44289e-10
4.69048e-10
4.03997e-10
3.47786e-10
2.9924e-10
2.57336e-10
2.21184e-10
1.90012e-10
1.63148e-10
1.40008e-10
1.20088e-10
1.02947e-10
8.82074e-11
7.55383e-11
6.46549e-11
5.53105e-11
4.72918e-11
4.04144e-11
3.4519e-11
2.94681e-11
2.51431e-11
2.14415e-11
1.82753e-11
1.55684e-11
1.32555e-11
1.12803e-11
9.59432e-12
8.15606e-12
6.92974e-12
5.88471e-12
4.99465e-12
4.23697e-12
3.59233e-12
3.04417e-12
2.57829e-12
2.18256e-12
1.8466e-12
1.56152e-12
1.31976e-12
1.11484e-12
9.41241e-13
7.94256e-13
6.6987e-13
5.64665e-13
4.75732e-13
4.00594e-13
3.37146e-13
2.83597e-13
2.38427e-13
2.00346e-13
1.68258e-13
1.41235e-13
1.18489e-13
9.93545e-14
8.32656e-14
6.97453e-14
5.83895e-14
4.88568e-14
4.08589e-14
3.41522e-14
2.85313e-14
2.3823e-14
1.98811e-14
1.65827e-14
1.38243e-14
1.15186e-14
9.5924e-15
7.9841e-15
6.64196e-15
5.52252e-15
4.58933e-15
3.81182e-15
3.16437e-15
2.6255e-15
2.17726e-15
1.80459e-15
1.49492e-15
1.23773e-15
1.02426e-15
8.47156e-16
7.00307e-16
5.78609e-16
4.77808e-16
3.9436e-16
3.25315e-16
2.68218e-16
2.21026e-16
1.82041e-16
1.49854e-16
1.23293e-16
1.01387e-16
8.33294e-17
6.84519e-17
5.62012e-17
4.61187e-17
3.78252e-17
3.10069e-17
2.54043e-17
2.08032e-17
1.70265e-17
1.39281e-17
1.13876e-17
9.30564e-18
7.60033e-18
6.20429e-18
5.06203e-18
4.12791e-18
3.36441e-18
2.7407e-18
2.23146e-18
1.81588e-18
1.47693e-18
1.20063e-18
9.75505e-19
7.92181e-19
6.42974e-19
5.21598e-19
4.22915e-19
3.42724e-19
2.77595e-19
2.24725e-19
1.8183e-19
1.47047e-19
1.18856e-19
9.60198e-20
7.75309e-20
6.25698e-20
5.04696e-20
4.06883e-20
3.27857e-20
2.64044e-20
2.12541e-20
1.70996e-20
1.375e-20
1.10509e-20
8.87702e-21
7.12711e-21
5.71921e-21
4.58706e-21
3.67714e-21
2.9462e-21
2.35934e-21
1.88841e-21
1.5107e-21
1.20792e-21
9.65328e-22
7.71061e-22
6.15574e-22
4.91189e-22
3.91738e-22
3.12262e-22
2.48784e-22
1.98108e-22
1.57674e-22
1.25429e-22
9.97268e-23
7.92512e-23
6.29475e-23
4.99725e-23
3.96519e-23
3.14468e-23
2.49271e-23
1.97493e-23
1.56394e-23
1.23788e-23
9.79357e-24
7.74493e-24
6.12252e-24
4.83856e-24
3.82325e-24
3.02116e-24
2.38831e-24
1.88985e-24
1.49822e-24
1.19168e-24
9.53135e-25
7.69249e-25
6.29695e-25
5.26612e-25
4.54172e-25
4.08204e-25
3.85684e-25
1.02685
0.980751
0.935214
0.890547
0.846986
0.804699
0.763799
0.72436
0.68642
0.649995
0.615087
0.58168
0.549753
0.519276
0.490214
0.462529
0.436179
0.411121
0.387311
0.364703
0.343252
0.322912
0.303639
0.285388
0.268115
0.251778
0.236333
0.22174
0.207961
0.194955
0.182686
0.171117
0.160215
0.149946
0.140277
0.131177
0.122618
0.11457
0.107007
0.0999032
0.0932327
0.0869724
0.0810996
0.0755927
0.0704314
0.065596
0.061068
0.0568297
0.0528642
0.0491558
0.0456892
0.04245
0.0394248
0.0366005
0.0339651
0.0315068
0.029215
0.0270791
0.0250894
0.0232368
0.0215125
0.0199083
0.0184166
0.0170299
0.0157416
0.014545
0.0134342
0.0124034
0.0114473
0.0105608
0.00973927
0.00897815
0.00827335
0.00762095
0.00701732
0.00645904
0.0059429
0.00546593
0.00502533
0.00461849
0.00424297
0.0038965
0.00357697
0.00328239
0.00301093
0.00276087
0.00253061
0.00231868
0.00212368
0.00194434
0.00177946
0.00162794
0.00148875
0.00136094
0.00124362
0.00113598
0.00103725
0.000946729
0.000863774
0.00078778
0.000718189
0.000654489
0.000596202
0.000542891
0.000494151
0.000449606
0.000408913
0.000371754
0.000337834
0.000306885
0.000278658
0.000252924
0.000229471
0.000208108
0.000188655
0.00017095
0.000154842
0.000140192
0.000126875
0.000114775
0.000103785
9.38066e-05
8.47517e-05
7.65378e-05
6.90903e-05
6.23404e-05
5.62255e-05
5.06883e-05
4.56764e-05
4.11419e-05
3.70412e-05
3.33345e-05
2.99854e-05
2.69607e-05
2.42303e-05
2.17666e-05
1.95446e-05
1.75415e-05
1.57365e-05
1.41109e-05
1.26473e-05
1.13304e-05
1.0146e-05
9.08113e-06
8.12429e-06
7.2649e-06
6.49339e-06
5.8011e-06
5.18019e-06
4.62357e-06
4.12482e-06
3.67813e-06
3.27826e-06
2.92048e-06
2.60051e-06
2.31449e-06
2.05894e-06
1.83073e-06
1.62703e-06
1.44531e-06
1.28325e-06
1.13882e-06
1.01016e-06
8.95593e-07
7.93635e-07
7.02942e-07
6.22308e-07
5.50654e-07
4.87011e-07
4.30512e-07
3.8038e-07
3.35921e-07
2.96511e-07
2.61594e-07
2.30676e-07
2.0331e-07
1.79102e-07
1.57697e-07
1.38781e-07
1.22074e-07
1.07323e-07
9.43081e-08
8.28296e-08
7.27115e-08
6.37973e-08
5.59477e-08
4.90391e-08
4.29619e-08