/*--------------------------------*- C++ -*----------------------------------*\
  =========                 |
  \\      /  F ield         | OpenFOAM: The Open Source CFD Toolbox
   \\    /   O peration     | Website:  https://openfoam.org
    \\  /    A nd           | Version:  10
     \\/     M anipulation  |
\*---------------------------------------------------------------------------*/
FoamFile
{
    format      ascii;
    class       volScalarField;
    location    "0.16";
    object      beta;
}
// * * * * * * * * * * * * * * * * * * * * * * * * * * * * * * * * * * * * * //

dimensions      [0 0 0 0 0 0 0];

internalField   uniform 0;

boundaryField
{
    frontAndBack
    {
        type            empty;
    }
    inlet
    {
        type            calculated;
        value           uniform 0;
    }
    outlet
    {
        type            calculated;
        value           uniform 0;
    }
    substrate
    {
        type            calculated;
        value           nonuniform List<scalar> 
400
(
0.00265513
0.00288178
0.00309727
0.00330696
0.00351335
0.00371765
0.00392044
0.00412189
0.004322
0.00452061
0.00471749
0.00491236
0.0051049
0.00529481
0.00548176
0.00566546
0.00584561
0.00602196
0.00619426
0.00636231
0.00652591
0.00668492
0.00683921
0.00698868
0.00713325
0.00727289
0.00740757
0.00753729
0.00766206
0.00778193
0.00789696
0.0080072
0.00811275
0.0082137
0.00831015
0.00840221
0.00849001
0.00857367
0.00865331
0.00872907
0.00880108
0.00886948
0.00893441
0.00899599
0.00905437
0.00910968
0.00916204
0.00921159
0.00925845
0.00930275
0.0093446
0.00938412
0.00942143
0.00945663
0.00948983
0.00952113
0.00955062
0.0095784
0.00960457
0.00962919
0.00965237
0.00967417
0.00969467
0.00971395
0.00973206
0.00974908
0.00976507
0.00978009
0.00979418
0.00980741
0.00981983
0.00983147
0.00984239
0.00985263
0.00986224
0.00987123
0.00987967
0.00988757
0.00989497
0.0099019
0.00990838
0.00991446
0.00992014
0.00992546
0.00993043
0.00993509
0.00993944
0.00994351
0.00994732
0.00995087
0.0099542
0.0099573
0.0099602
0.00996291
0.00996544
0.00996781
0.00997001
0.00997207
0.00997399
0.00997579
0.00997746
0.00997902
0.00998048
0.00998183
0.0099831
0.00998428
0.00998538
0.00998641
0.00998736
0.00998825
0.00998908
0.00998985
0.00999057
0.00999124
0.00999186
0.00999244
0.00999298
0.00999348
0.00999395
0.00999439
0.00999479
0.00999517
0.00999552
0.00999584
0.00999614
0.00999642
0.00999668
0.00999693
0.00999715
0.00999736
0.00999755
0.00999773
0.0099979
0.00999806
0.0099982
0.00999833
0.00999846
0.00999857
0.00999868
0.00999878
0.00999887
0.00999895
0.00999903
0.00999911
0.00999917
0.00999924
0.00999929
0.00999935
0.0099994
0.00999944
0.00999949
0.00999953
0.00999956
0.0099996
0.00999963
0.00999966
0.00999968
0.00999971
0.00999973
0.00999975
0.00999977
0.00999979
0.00999981
0.00999982
0.00999983
0.00999985
0.00999986
0.00999987
0.00999988
0.00999989
0.0099999
0.00999991
0.00999992
0.00999992
0.00999993
0.00999993
0.00999994
0.00999994
0.00999995
0.00999995
0.00999996
0.00999996
0.00999996
0.00999997
0.00999997
0.00999997
0.00999997
0.00999998
0.00999998
0.00999998
0.00999998
0.00999998
0.00999998
0.00999999
0.00999999
0.00999999
0.00999999
0.00999999
0.00999999
0.00999999
0.00999999
0.00999999
0.00999999
0.00999999
0.00999999
0.01
0.01
0.01
0.01
0.01
0.01
0.01
0.01
0.01
0.01
0.01
0.01
0.01
0.01
0.01
0.01
0.01
0.01
0.01
0.01
0.01
0.01
0.01
0.01
0.01
0.01
0.01
0.01
0.01
0.01
0.01
0.01
0.01
0.01
0.01
0.01
0.01
0.01
0.01
0.01
0.01
0.01
0.01
0.01
0.01
0.01
0.01
0.01
0.01
0.01
0.01
0.01
0.01
0.01
0.01
0.01
0.01
0.01
0.01
0.01
0.01
0.01
0.01
0.01
0.01
0.01
0.01
0.01
0.01
0.01
0.01
0.01
0.01
0.01
0.01
0.01
0.01
0.01
0.01
0.01
0.01
0.01
0.01
0.01
0.01
0.01
0.01
0.01
0.01
0.01
0.01
0.01
0.01
0.01
0.01
0.01
0.01
0.01
0.01
0.01
0.01
0.01
0.01
0.01
0.01
0.01
0.01
0.01
0.01
0.01
0.01
0.01
0.01
0.01
0.01
0.01
0.01
0.01
0.01
0.01
0.01
0.01
0.01
0.01
0.01
0.01
0.01
0.01
0.01
0.01
0.01
0.01
0.01
0.01
0.01
0.01
0.01
0.01
0.01
0.01
0.01
0.01
0.01
0.01
0.01
0.01
0.01
0.01
0.01
0.01
0.01
0.01
0.01
0.01
0.01
0.01
0.01
0.01
0.01
0.01
0.01
0.01
0.01
0.01
0.01
0.01
0.01
0.01
0.01
0.01
0.01
0.01
0.01
0.01
0.01
0.01
0.01
0.01
0.01
0.01
0.01
0.01
0.01
0.01
0.01
0.01
0.01
0.01
0.01
0.01
0.01
0.01
0.01
0.01
0.01
)
;
    }
    Wall
    {
        type            calculated;
        value           nonuniform List<scalar> 
400
(
0.00265513
0.00288178
0.00309727
0.00330695
0.00351335
0.00371766
0.00392044
0.0041219
0.00432201
0.00452062
0.00471749
0.00491236
0.0051049
0.0052948
0.00548175
0.00566544
0.00584559
0.00602194
0.00619424
0.00636228
0.00652588
0.00668488
0.00683917
0.00698863
0.00713321
0.00727284
0.00740752
0.00753723
0.00766201
0.00778188
0.0078969
0.00800714
0.00811269
0.00821364
0.00831009
0.00840215
0.00848995
0.00857361
0.00865325
0.00872901
0.00880102
0.00886943
0.00893435
0.00899594
0.00905432
0.00910962
0.00916199
0.00921154
0.0092584
0.0093027
0.00934455
0.00938408
0.00942139
0.00945659
0.00948979
0.00952109
0.00955058
0.00957837
0.00960453
0.00962916
0.00965234
0.00967414
0.00969464
0.00971392
0.00973204
0.00974906
0.00976505
0.00978006
0.00979416
0.00980739
0.00981981
0.00983145
0.00984238
0.00985262
0.00986222
0.00987122
0.00987965
0.00988755
0.00989495
0.00990188
0.00990837
0.00991445
0.00992013
0.00992545
0.00993043
0.00993508
0.00993943
0.0099435
0.00994731
0.00995087
0.00995419
0.0099573
0.0099602
0.00996291
0.00996544
0.0099678
0.00997001
0.00997207
0.00997399
0.00997578
0.00997746
0.00997902
0.00998047
0.00998183
0.0099831
0.00998428
0.00998538
0.0099864
0.00998736
0.00998825
0.00998908
0.00998985
0.00999057
0.00999124
0.00999186
0.00999244
0.00999298
0.00999348
0.00999395
0.00999439
0.00999479
0.00999517
0.00999551
0.00999584
0.00999614
0.00999642
0.00999668
0.00999693
0.00999715
0.00999736
0.00999755
0.00999773
0.0099979
0.00999806
0.0099982
0.00999833
0.00999846
0.00999857
0.00999868
0.00999878
0.00999887
0.00999895
0.00999903
0.00999911
0.00999917
0.00999924
0.00999929
0.00999935
0.0099994
0.00999944
0.00999949
0.00999953
0.00999956
0.0099996
0.00999963
0.00999966
0.00999968
0.00999971
0.00999973
0.00999975
0.00999977
0.00999979
0.00999981
0.00999982
0.00999983
0.00999985
0.00999986
0.00999987
0.00999988
0.00999989
0.0099999
0.00999991
0.00999992
0.00999992
0.00999993
0.00999993
0.00999994
0.00999994
0.00999995
0.00999995
0.00999996
0.00999996
0.00999996
0.00999997
0.00999997
0.00999997
0.00999997
0.00999998
0.00999998
0.00999998
0.00999998
0.00999998
0.00999998
0.00999999
0.00999999
0.00999999
0.00999999
0.00999999
0.00999999
0.00999999
0.00999999
0.00999999
0.00999999
0.00999999
0.00999999
0.01
0.01
0.01
0.01
0.01
0.01
0.01
0.01
0.01
0.01
0.01
0.01
0.01
0.01
0.01
0.01
0.01
0.01
0.01
0.01
0.01
0.01
0.01
0.01
0.01
0.01
0.01
0.01
0.01
0.01
0.01
0.01
0.01
0.01
0.01
0.01
0.01
0.01
0.01
0.01
0.01
0.01
0.01
0.01
0.01
0.01
0.01
0.01
0.01
0.01
0.01
0.01
0.01
0.01
0.01
0.01
0.01
0.01
0.01
0.01
0.01
0.01
0.01
0.01
0.01
0.01
0.01
0.01
0.01
0.01
0.01
0.01
0.01
0.01
0.01
0.01
0.01
0.01
0.01
0.01
0.01
0.01
0.01
0.01
0.01
0.01
0.01
0.01
0.01
0.01
0.01
0.01
0.01
0.01
0.01
0.01
0.01
0.01
0.01
0.01
0.01
0.01
0.01
0.01
0.01
0.01
0.01
0.01
0.01
0.01
0.01
0.01
0.01
0.01
0.01
0.01
0.01
0.01
0.01
0.01
0.01
0.01
0.01
0.01
0.01
0.01
0.01
0.01
0.01
0.01
0.01
0.01
0.01
0.01
0.01
0.01
0.01
0.01
0.01
0.01
0.01
0.01
0.01
0.01
0.01
0.01
0.01
0.01
0.01
0.01
0.01
0.01
0.01
0.01
0.01
0.01
0.01
0.01
0.01
0.01
0.01
0.01
0.01
0.01
0.01
0.01
0.01
0.01
0.01
0.01
0.01
0.01
0.01
0.01
0.01
0.01
0.01
0.01
0.01
0.01
0.01
0.01
0.01
0.01
0.01
0.01
0.01
0.01
0.01
0.01
0.01
0.01
0.01
0.01
0.01
)
;
    }
}


// ************************************************************************* //
