/*--------------------------------*- C++ -*----------------------------------*\
  =========                 |
  \\      /  F ield         | OpenFOAM: The Open Source CFD Toolbox
   \\    /   O peration     | Website:  https://openfoam.org
    \\  /    A nd           | Version:  10
     \\/     M anipulation  |
\*---------------------------------------------------------------------------*/
FoamFile
{
    format      ascii;
    class       volScalarField;
    location    "0.16";
    object      Exp1;
}
// * * * * * * * * * * * * * * * * * * * * * * * * * * * * * * * * * * * * * //

dimensions      [0 0 0 0 0 0 0];

internalField   uniform 0;

boundaryField
{
    frontAndBack
    {
        type            empty;
    }
    inlet
    {
        type            calculated;
        value           uniform 0;
    }
    outlet
    {
        type            calculated;
        value           uniform 0;
    }
    substrate
    {
        type            calculated;
        value           nonuniform List<scalar> 
400
(
0.000387822
0.00115983
0.0019224
0.00267044
0.00339929
0.00410469
0.00478282
0.00543023
0.00604396
0.00662146
0.00716062
0.00765978
0.0081177
0.00853356
0.00890695
0.00923782
0.00952648
0.00977354
0.00997993
0.0101468
0.0102756
0.0103679
0.0104254
0.01045
0.0104437
0.0104085
0.0103465
0.0102599
0.0101506
0.0100207
0.00987241
0.00970754
0.00952805
0.00933577
0.00913244
0.00891971
0.00869914
0.0084722
0.00824024
0.00800452
0.00776621
0.00752638
0.00728599
0.00704595
0.00680703
0.00656996
0.00633538
0.00610385
0.00587587
0.00565187
0.00543222
0.00521725
0.00500721
0.00480233
0.00460279
0.00440873
0.00422025
0.00403741
0.00386027
0.00368885
0.00352312
0.00336308
0.00320867
0.00305983
0.0029165
0.00277857
0.00264596
0.00251856
0.00239626
0.00227893
0.00216645
0.00205869
0.00195552
0.0018568
0.0017624
0.00167218
0.00158601
0.00150374
0.00142524
0.00135038
0.00127903
0.00121104
0.0011463
0.00108468
0.00102605
0.000970291
0.000917286
0.000866919
0.000819078
0.000773655
0.000730544
0.000689642
0.000650852
0.000614077
0.000579225
0.000546206
0.000514936
0.000485331
0.000457312
0.000430803
0.00040573
0.000382022
0.000359613
0.000338437
0.000318432
0.00029954
0.000281703
0.000264867
0.000248981
0.000233994
0.000219861
0.000206535
0.000193974
0.000182137
0.000170986
0.000160482
0.000150592
0.000141281
0.000132517
0.000124271
0.000116514
0.000109218
0.000102358
9.59091e-05
8.98479e-05
8.41524e-05
7.8802e-05
7.37766e-05
6.90578e-05
6.46276e-05
6.04694e-05
5.65674e-05
5.29065e-05
4.94726e-05
4.62522e-05
4.32328e-05
4.04024e-05
3.77497e-05
3.52642e-05
3.29356e-05
3.07547e-05
2.87124e-05
2.68004e-05
2.50106e-05
2.33357e-05
2.17686e-05
2.03026e-05
1.89315e-05
1.76494e-05
1.64509e-05
1.53306e-05
1.42837e-05
1.33056e-05
1.23919e-05
1.15386e-05
1.07419e-05
9.99808e-06
9.30389e-06
8.65611e-06
8.05176e-06
7.48806e-06
6.96237e-06
6.47224e-06
6.01535e-06
5.58954e-06
5.19279e-06
4.82318e-06
4.47893e-06
4.15837e-06
3.85993e-06
3.58215e-06
3.32365e-06
3.08314e-06
2.85942e-06
2.65137e-06
2.45792e-06
2.2781e-06
2.11097e-06
1.95568e-06
1.81142e-06
1.67743e-06
1.55301e-06
1.43751e-06
1.3303e-06
1.23082e-06
1.13852e-06
1.05292e-06
9.73529e-07
8.99927e-07
8.31704e-07
7.68482e-07
7.09906e-07
6.55647e-07
6.054e-07
5.58877e-07
5.15813e-07
4.75959e-07
4.39085e-07
4.04976e-07
3.73432e-07
3.44266e-07
3.17305e-07
2.92389e-07
2.69368e-07
2.48102e-07
2.28462e-07
2.10329e-07
1.93591e-07
1.78143e-07
1.6389e-07
1.50742e-07
1.38617e-07
1.27438e-07
1.17133e-07
1.07636e-07
9.88859e-08
9.0826e-08
8.34035e-08
7.65697e-08
7.02792e-08
6.44904e-08
5.91645e-08
5.42656e-08
4.97607e-08
4.56189e-08
4.1812e-08
3.83137e-08
3.50997e-08
3.21478e-08
2.94371e-08
2.69485e-08
2.46645e-08
2.25686e-08
2.0646e-08
1.88826e-08
1.72657e-08
1.57834e-08
1.4425e-08
1.31803e-08
1.20401e-08
1.09959e-08
1.00399e-08
9.16471e-09
8.36384e-09
7.63111e-09
6.96089e-09
6.348e-09
5.78766e-09
5.27551e-09
4.80752e-09
4.37997e-09
3.98948e-09
3.63291e-09
3.30741e-09
3.01034e-09
2.73928e-09
2.49202e-09
2.26653e-09
2.06093e-09
1.87353e-09
1.70274e-09
1.54715e-09
1.40543e-09
1.27637e-09
1.15888e-09
1.05195e-09
9.54649e-10
8.66133e-10
7.8563e-10
7.12433e-10
6.45896e-10
5.85428e-10
5.30489e-10
4.80586e-10
4.3527e-10
3.94128e-10
3.56786e-10
3.22902e-10
2.92163e-10
2.64284e-10
2.39006e-10
2.16091e-10
1.95324e-10
1.76509e-10
1.59466e-10
1.44033e-10
1.3006e-10
1.17414e-10
1.0597e-10
9.56178e-11
8.62551e-11
7.77894e-11
7.01369e-11
6.32212e-11
5.6973e-11
5.13293e-11
4.62329e-11
4.1632e-11
3.74794e-11
3.37324e-11
3.03523e-11
2.73039e-11
2.45554e-11
2.2078e-11
1.98454e-11
1.7834e-11
1.60224e-11
1.43911e-11
1.29226e-11
1.1601e-11
1.04119e-11
9.34221e-12
8.38029e-12
7.51548e-12
6.73817e-12
6.0397e-12
5.41224e-12
4.84871e-12
4.34273e-12
3.88855e-12
3.48097e-12
3.11529e-12
2.78731e-12
2.49322e-12
2.22957e-12
1.99328e-12
1.78158e-12
1.59194e-12
1.42212e-12
1.27008e-12
1.134e-12
1.01224e-12
9.0331e-13
8.05894e-13
7.18796e-13
6.40944e-13
5.71373e-13
5.09221e-13
4.5371e-13
4.04144e-13
3.59898e-13
3.20412e-13
2.85184e-13
2.53761e-13
2.25741e-13
2.00763e-13
1.78501e-13
1.58665e-13
1.40997e-13
1.25263e-13
1.11255e-13
9.87876e-14
8.76941e-14
7.78257e-14
6.90495e-14
6.12467e-14
5.43112e-14
4.81484e-14
4.26735e-14
3.78112e-14
3.3494e-14
2.96619e-14
2.62613e-14
2.32445e-14
2.05688e-14
1.81964e-14
1.60934e-14
1.42298e-14
1.25788e-14
1.11166e-14
9.82196e-15
8.67601e-15
7.662e-15
6.76501e-15
5.97182e-15
5.27066e-15
4.65107e-15
4.1038e-15
3.62061e-15
3.19422e-15
2.81816e-15
2.48671e-15
2.19479e-15
1.93794e-15
1.71218e-15
1.51403e-15
1.34041e-15
1.18861e-15
1.05625e-15
9.41253e-16
8.4181e-16
7.56346e-16
6.83506e-16
6.22131e-16
5.71242e-16
5.30025e-16
4.97819e-16
4.74108e-16
4.58508e-16
4.5077e-16
)
;
    }
    Wall
    {
        type            calculated;
        value           nonuniform List<scalar> 
400
(
0.000387818
0.00115983
0.00192242
0.00267047
0.00339932
0.00410472
0.00478282
0.00543021
0.00604391
0.00662138
0.0071605
0.00765962
0.0081175
0.00853332
0.00890668
0.00923751
0.00952613
0.00977316
0.00997952
0.0101464
0.0102752
0.0103674
0.0104249
0.0104495
0.0104432
0.010408
0.010346
0.0102593
0.0101501
0.0100202
0.00987192
0.00970706
0.00952759
0.00933532
0.009132
0.00891929
0.00869874
0.00847181
0.00823987
0.00800417
0.00776587
0.00752606
0.00728569
0.00704566
0.00680676
0.00656971
0.00633514
0.00610362
0.00587566
0.00565167
0.00543204
0.00521707
0.00500705
0.00480218
0.00460265
0.0044086
0.00422012
0.0040373
0.00386017
0.00368875
0.00352303
0.003363
0.00320859
0.00305976
0.00291643
0.00277851
0.00264591
0.00251851
0.00239621
0.00227888
0.00216641
0.00205865
0.00195548
0.00185677
0.00176237
0.00167215
0.00158598
0.00150372
0.00142522
0.00135037
0.00127901
0.00121103
0.00114629
0.00108467
0.00102604
0.000970282
0.000917278
0.000866911
0.000819071
0.000773649
0.000730539
0.000689638
0.000650848
0.000614073
0.000579222
0.000546204
0.000514934
0.00048533
0.000457311
0.000430802
0.000405729
0.000382022
0.000359612
0.000338437
0.000318432
0.00029954
0.000281703
0.000264867
0.000248981
0.000233995
0.000219861
0.000206536
0.000193975
0.000182138
0.000170987
0.000160483
0.000150593
0.000141282
0.000132518
0.000124272
0.000116515
0.000109219
0.000102359
9.59099e-05
8.98487e-05
8.41533e-05
7.88027e-05
7.37774e-05
6.90585e-05
6.46283e-05
6.04701e-05
5.65681e-05
5.29072e-05
4.94732e-05
4.62528e-05
4.32334e-05
4.0403e-05
3.77503e-05
3.52647e-05
3.29361e-05
3.07552e-05
2.87129e-05
2.68008e-05
2.50111e-05
2.33361e-05
2.1769e-05
2.0303e-05
1.89319e-05
1.76498e-05
1.64512e-05
1.53309e-05
1.4284e-05
1.33058e-05
1.23922e-05
1.15389e-05
1.07421e-05
9.99832e-06
9.30411e-06
8.65632e-06
8.05197e-06
7.48825e-06
6.96255e-06
6.47241e-06
6.01551e-06
5.5897e-06
5.19293e-06
4.82331e-06
4.47906e-06
4.15849e-06
3.86005e-06
3.58226e-06
3.32375e-06
3.08324e-06
2.85952e-06
2.65146e-06
2.45801e-06
2.27818e-06
2.11104e-06
1.95575e-06
1.81148e-06
1.67749e-06
1.55307e-06
1.43756e-06
1.33035e-06
1.23087e-06
1.13857e-06
1.05296e-06
9.73568e-07
8.99964e-07
8.31739e-07
7.68514e-07
7.09936e-07
6.55676e-07
6.05427e-07
5.58902e-07
5.15837e-07
4.75981e-07
4.39106e-07
4.04996e-07
3.7345e-07
3.44283e-07
3.17321e-07
2.92404e-07
2.69381e-07
2.48115e-07
2.28475e-07
2.10341e-07
1.93601e-07
1.78153e-07
1.63899e-07
1.50751e-07
1.38625e-07
1.27445e-07
1.1714e-07
1.07642e-07
9.88919e-08
9.08316e-08
8.34087e-08
7.65745e-08
7.02837e-08
6.44946e-08
5.91684e-08
5.42692e-08
4.9764e-08
4.5622e-08
4.18148e-08
3.83163e-08
3.51022e-08
3.21501e-08
2.94392e-08
2.69505e-08
2.46663e-08
2.25703e-08
2.06475e-08
1.8884e-08
1.7267e-08
1.57847e-08
1.44261e-08
1.31813e-08
1.20411e-08
1.09968e-08
1.00407e-08
9.16548e-09
8.36455e-09
7.63177e-09
6.9615e-09
6.34855e-09
5.78818e-09
5.27599e-09
4.80795e-09
4.38037e-09
3.98985e-09
3.63326e-09
3.30773e-09
3.01063e-09
2.73955e-09
2.49227e-09
2.26675e-09
2.06114e-09
1.87372e-09
1.70292e-09
1.54731e-09
1.40557e-09
1.27651e-09
1.15901e-09
1.05206e-09
9.54753e-10
8.66228e-10
7.85717e-10
7.12513e-10
6.45969e-10
5.85495e-10
5.3055e-10
4.80642e-10
4.35321e-10
3.94175e-10
3.5683e-10
3.22942e-10
2.92199e-10
2.64317e-10
2.39036e-10
2.16118e-10
1.95349e-10
1.76532e-10
1.59487e-10
1.44052e-10
1.30078e-10
1.17429e-10
1.05985e-10
9.56309e-11
8.6267e-11
7.78003e-11
7.01468e-11
6.32302e-11
5.69812e-11
5.13367e-11
4.62397e-11
4.16381e-11
3.74849e-11
3.37374e-11
3.03569e-11
2.73081e-11
2.45592e-11
2.20814e-11
1.98485e-11
1.78369e-11
1.6025e-11
1.43935e-11
1.29247e-11
1.16029e-11
1.04136e-11
9.34377e-12
8.3817e-12
7.51676e-12
6.73933e-12
6.04075e-12
5.41319e-12
4.84957e-12
4.34351e-12
3.88925e-12
3.4816e-12
3.11586e-12
2.78783e-12
2.49368e-12
2.22999e-12
1.99366e-12
1.78192e-12
1.59225e-12
1.42239e-12
1.27033e-12
1.13422e-12
1.01244e-12
9.03491e-13
8.06057e-13
7.18943e-13
6.41076e-13
5.71492e-13
5.09327e-13
4.53806e-13
4.0423e-13
3.59976e-13
3.20482e-13
2.85246e-13
2.53817e-13
2.25792e-13
2.00808e-13
1.78541e-13
1.58701e-13
1.41029e-13
1.25292e-13
1.11281e-13
9.88108e-14
8.77148e-14
7.78442e-14
6.90661e-14
6.12615e-14
5.43245e-14
4.81602e-14
4.26841e-14
3.78207e-14
3.35025e-14
2.96695e-14
2.62681e-14
2.32505e-14
2.05742e-14
1.82012e-14
1.60977e-14
1.42336e-14
1.25822e-14
1.11196e-14
9.82464e-15
8.67839e-15
7.66412e-15
6.7669e-15
5.9735e-15
5.27215e-15
4.65239e-15
4.10497e-15
3.62166e-15
3.19515e-15
2.81898e-15
2.48744e-15
2.19544e-15
1.93851e-15
1.71269e-15
1.51448e-15
1.34081e-15
1.18896e-15
1.05657e-15
9.41536e-16
8.42063e-16
7.56573e-16
6.83711e-16
6.22318e-16
5.71414e-16
5.30186e-16
4.97972e-16
4.74248e-16
4.58623e-16
4.50865e-16
)
;
    }
}


// ************************************************************************* //
