/*--------------------------------*- C++ -*----------------------------------*\
  =========                 |
  \\      /  F ield         | OpenFOAM: The Open Source CFD Toolbox
   \\    /   O peration     | Website:  https://openfoam.org
    \\  /    A nd           | Version:  10
     \\/     M anipulation  |
\*---------------------------------------------------------------------------*/
FoamFile
{
    format      ascii;
    class       volScalarField;
    location    "0.36";
    object      beta;
}
// * * * * * * * * * * * * * * * * * * * * * * * * * * * * * * * * * * * * * //

dimensions      [0 0 0 0 0 0 0];

internalField   uniform 0;

boundaryField
{
    frontAndBack
    {
        type            empty;
    }
    inlet
    {
        type            calculated;
        value           uniform 0;
    }
    outlet
    {
        type            calculated;
        value           uniform 0;
    }
    substrate
    {
        type            calculated;
        value           nonuniform List<scalar> 
400
(
0.00265327
0.00287575
0.00308654
0.00329102
0.00349176
0.00369
0.00388635
0.00408106
0.00427414
0.00446551
0.00465497
0.00484229
0.00502723
0.00520951
0.00538888
0.00556507
0.00573787
0.00590703
0.00607237
0.00623372
0.00639092
0.00654385
0.00669241
0.00683653
0.00697614
0.00711123
0.00724178
0.00736779
0.00748928
0.00760631
0.0077189
0.00782714
0.00793109
0.00803083
0.00812647
0.0082181
0.00830581
0.00838973
0.00846995
0.0085466
0.00861979
0.00868964
0.00875627
0.00881978
0.0088803
0.00893795
0.00899282
0.00904505
0.00909473
0.00914198
0.00918689
0.00922957
0.00927012
0.00930862
0.00934519
0.00937989
0.00941283
0.00944408
0.00947372
0.00950183
0.00952849
0.00955375
0.00957771
0.0096004
0.00962191
0.00964228
0.00966158
0.00967986
0.00969717
0.00971356
0.00972908
0.00974377
0.00975768
0.00977084
0.0097833
0.00979509
0.00980625
0.0098168
0.00982679
0.00983623
0.00984517
0.00985363
0.00986162
0.00986919
0.00987634
0.0098831
0.0098895
0.00989555
0.00990127
0.00990668
0.0099118
0.00991663
0.00992121
0.00992553
0.00992962
0.00993348
0.00993713
0.00994058
0.00994385
0.00994693
0.00994985
0.00995261
0.00995521
0.00995768
0.00996
0.00996221
0.00996429
0.00996625
0.00996811
0.00996987
0.00997152
0.00997309
0.00997458
0.00997598
0.0099773
0.00997855
0.00997973
0.00998085
0.00998191
0.00998291
0.00998385
0.00998474
0.00998558
0.00998638
0.00998713
0.00998784
0.00998851
0.00998915
0.00998975
0.00999031
0.00999085
0.00999135
0.00999183
0.00999228
0.00999271
0.00999311
0.00999349
0.00999385
0.00999419
0.00999452
0.00999482
0.00999511
0.00999538
0.00999563
0.00999588
0.0099961
0.00999632
0.00999652
0.00999672
0.0099969
0.00999707
0.00999723
0.00999739
0.00999753
0.00999767
0.0099978
0.00999792
0.00999804
0.00999815
0.00999825
0.00999835
0.00999844
0.00999853
0.00999861
0.00999869
0.00999876
0.00999883
0.00999889
0.00999895
0.00999901
0.00999907
0.00999912
0.00999917
0.00999922
0.00999926
0.0099993
0.00999934
0.00999938
0.00999941
0.00999945
0.00999948
0.00999951
0.00999953
0.00999956
0.00999958
0.00999961
0.00999963
0.00999965
0.00999967
0.00999969
0.00999971
0.00999972
0.00999974
0.00999975
0.00999977
0.00999978
0.00999979
0.0099998
0.00999982
0.00999983
0.00999984
0.00999985
0.00999985
0.00999986
0.00999987
0.00999988
0.00999988
0.00999989
0.0099999
0.0099999
0.00999991
0.00999991
0.00999992
0.00999992
0.00999993
0.00999993
0.00999994
0.00999994
0.00999994
0.00999995
0.00999995
0.00999995
0.00999995
0.00999996
0.00999996
0.00999996
0.00999996
0.00999997
0.00999997
0.00999997
0.00999997
0.00999997
0.00999998
0.00999998
0.00999998
0.00999998
0.00999998
0.00999998
0.00999998
0.00999998
0.00999998
0.00999999
0.00999999
0.00999999
0.00999999
0.00999999
0.00999999
0.00999999
0.00999999
0.00999999
0.00999999
0.00999999
0.00999999
0.00999999
0.00999999
0.00999999
0.00999999
0.00999999
0.00999999
0.01
0.01
0.01
0.01
0.01
0.01
0.01
0.01
0.01
0.01
0.01
0.01
0.01
0.01
0.01
0.01
0.01
0.01
0.01
0.01
0.01
0.01
0.01
0.01
0.01
0.01
0.01
0.01
0.01
0.01
0.01
0.01
0.01
0.01
0.01
0.01
0.01
0.01
0.01
0.01
0.01
0.01
0.01
0.01
0.01
0.01
0.01
0.01
0.01
0.01
0.01
0.01
0.01
0.01
0.01
0.01
0.01
0.01
0.01
0.01
0.01
0.01
0.01
0.01
0.01
0.01
0.01
0.01
0.01
0.01
0.01
0.01
0.01
0.01
0.01
0.01
0.01
0.01
0.01
0.01
0.01
0.01
0.01
0.01
0.01
0.01
0.01
0.01
0.01
0.01
0.01
0.01
0.01
0.01
0.01
0.01
0.01
0.01
0.01
0.01
0.01
0.01
0.01
0.01
0.01
0.01
0.01
0.01
0.01
0.01
0.01
0.01
0.01
0.01
0.01
0.01
0.01
0.01
0.01
0.01
0.01
0.01
0.01
0.01
0.01
0.01
0.01
0.01
0.01
0.01
0.01
0.01
0.01
0.01
0.01
0.01
0.01
0.01
0.01
0.01
0.01
)
;
    }
    Wall
    {
        type            calculated;
        value           nonuniform List<scalar> 
400
(
0.00265328
0.00287576
0.00308653
0.00329102
0.00349175
0.00369
0.00388636
0.00408106
0.00427415
0.00446551
0.00465497
0.00484229
0.00502722
0.0052095
0.00538887
0.00556506
0.00573785
0.00590701
0.00607235
0.00623369
0.00639089
0.00654381
0.00669237
0.00683649
0.0069761
0.00711119
0.00724174
0.00736774
0.00748924
0.00760626
0.00771885
0.00782709
0.00793104
0.00803078
0.00812642
0.00821804
0.00830576
0.00838968
0.0084699
0.00854655
0.00861975
0.00868959
0.00875622
0.00881973
0.00888026
0.0089379
0.00899278
0.00904501
0.00909469
0.00914194
0.00918685
0.00922953
0.00927008
0.00930859
0.00934515
0.00937986
0.0094128
0.00944405
0.00947369
0.00950181
0.00952846
0.00955373
0.00957768
0.00960038
0.00962189
0.00964226
0.00966156
0.00967984
0.00969715
0.00971355
0.00972907
0.00974376
0.00975767
0.00977083
0.00978329
0.00979508
0.00980623
0.00981679
0.00982678
0.00983623
0.00984516
0.00985362
0.00986161
0.00986918
0.00987633
0.0098831
0.0098895
0.00989555
0.00990127
0.00990668
0.00991179
0.00991663
0.0099212
0.00992552
0.00992961
0.00993348
0.00993713
0.00994058
0.00994385
0.00994693
0.00994985
0.00995261
0.00995521
0.00995767
0.00996
0.0099622
0.00996428
0.00996625
0.00996811
0.00996986
0.00997152
0.00997309
0.00997457
0.00997598
0.0099773
0.00997855
0.00997973
0.00998085
0.00998191
0.0099829
0.00998385
0.00998474
0.00998558
0.00998638
0.00998713
0.00998784
0.00998851
0.00998915
0.00998975
0.00999031
0.00999085
0.00999135
0.00999183
0.00999228
0.00999271
0.00999311
0.00999349
0.00999385
0.00999419
0.00999452
0.00999482
0.00999511
0.00999538
0.00999563
0.00999588
0.0099961
0.00999632
0.00999652
0.00999672
0.0099969
0.00999707
0.00999723
0.00999739
0.00999753
0.00999767
0.0099978
0.00999792
0.00999804
0.00999815
0.00999825
0.00999835
0.00999844
0.00999853
0.00999861
0.00999869
0.00999876
0.00999883
0.00999889
0.00999895
0.00999901
0.00999907
0.00999912
0.00999917
0.00999922
0.00999926
0.0099993
0.00999934
0.00999938
0.00999941
0.00999945
0.00999948
0.00999951
0.00999953
0.00999956
0.00999958
0.00999961
0.00999963
0.00999965
0.00999967
0.00999969
0.00999971
0.00999972
0.00999974
0.00999975
0.00999977
0.00999978
0.00999979
0.0099998
0.00999982
0.00999983
0.00999984
0.00999985
0.00999985
0.00999986
0.00999987
0.00999988
0.00999988
0.00999989
0.0099999
0.0099999
0.00999991
0.00999991
0.00999992
0.00999992
0.00999993
0.00999993
0.00999994
0.00999994
0.00999994
0.00999995
0.00999995
0.00999995
0.00999995
0.00999996
0.00999996
0.00999996
0.00999996
0.00999997
0.00999997
0.00999997
0.00999997
0.00999997
0.00999998
0.00999998
0.00999998
0.00999998
0.00999998
0.00999998
0.00999998
0.00999998
0.00999998
0.00999999
0.00999999
0.00999999
0.00999999
0.00999999
0.00999999
0.00999999
0.00999999
0.00999999
0.00999999
0.00999999
0.00999999
0.00999999
0.00999999
0.00999999
0.00999999
0.00999999
0.00999999
0.01
0.01
0.01
0.01
0.01
0.01
0.01
0.01
0.01
0.01
0.01
0.01
0.01
0.01
0.01
0.01
0.01
0.01
0.01
0.01
0.01
0.01
0.01
0.01
0.01
0.01
0.01
0.01
0.01
0.01
0.01
0.01
0.01
0.01
0.01
0.01
0.01
0.01
0.01
0.01
0.01
0.01
0.01
0.01
0.01
0.01
0.01
0.01
0.01
0.01
0.01
0.01
0.01
0.01
0.01
0.01
0.01
0.01
0.01
0.01
0.01
0.01
0.01
0.01
0.01
0.01
0.01
0.01
0.01
0.01
0.01
0.01
0.01
0.01
0.01
0.01
0.01
0.01
0.01
0.01
0.01
0.01
0.01
0.01
0.01
0.01
0.01
0.01
0.01
0.01
0.01
0.01
0.01
0.01
0.01
0.01
0.01
0.01
0.01
0.01
0.01
0.01
0.01
0.01
0.01
0.01
0.01
0.01
0.01
0.01
0.01
0.01
0.01
0.01
0.01
0.01
0.01
0.01
0.01
0.01
0.01
0.01
0.01
0.01
0.01
0.01
0.01
0.01
0.01
0.01
0.01
0.01
0.01
0.01
0.01
0.01
0.01
0.01
0.01
0.01
0.01
)
;
    }
}


// ************************************************************************* //
