/*--------------------------------*- C++ -*----------------------------------*\
  =========                 |
  \\      /  F ield         | OpenFOAM: The Open Source CFD Toolbox
   \\    /   O peration     | Website:  https://openfoam.org
    \\  /    A nd           | Version:  10
     \\/     M anipulation  |
\*---------------------------------------------------------------------------*/
FoamFile
{
    format      ascii;
    class       volScalarField;
    location    "0.36";
    object      N1;
}
// * * * * * * * * * * * * * * * * * * * * * * * * * * * * * * * * * * * * * //

dimensions      [0 0 0 0 0 0 0];

internalField   nonuniform List<scalar> 
8000
(
7.63576e-07
2.28744e-06
3.80259e-06
5.30451e-06
6.7893e-06
8.25351e-06
9.69406e-06
1.11082e-05
1.24936e-05
1.38481e-05
1.51698e-05
1.64572e-05
1.7709e-05
1.8924e-05
2.01014e-05
2.12405e-05
2.23407e-05
2.34017e-05
2.44234e-05
2.54057e-05
2.63487e-05
2.72525e-05
2.81176e-05
2.89441e-05
2.97327e-05
3.04838e-05
3.11979e-05
3.18758e-05
3.25181e-05
3.31255e-05
3.36987e-05
3.42383e-05
3.47453e-05
3.52204e-05
3.56643e-05
3.60777e-05
3.64616e-05
3.68165e-05
3.71434e-05
3.74429e-05
3.77158e-05
3.79629e-05
3.81848e-05
3.83822e-05
3.85559e-05
3.87065e-05
3.88348e-05
3.89413e-05
3.90267e-05
3.90916e-05
3.91367e-05
3.91625e-05
3.91696e-05
3.91587e-05
3.91301e-05
3.90846e-05
3.90227e-05
3.89448e-05
3.88514e-05
3.87431e-05
3.86204e-05
3.84838e-05
3.83336e-05
3.81704e-05
3.79946e-05
3.78067e-05
3.76071e-05
3.73962e-05
3.71744e-05
3.69422e-05
3.66999e-05
3.64479e-05
3.61867e-05
3.59165e-05
3.56378e-05
3.5351e-05
3.50564e-05
3.47543e-05
3.44451e-05
3.41292e-05
3.38068e-05
3.34784e-05
3.31442e-05
3.28045e-05
3.24598e-05
3.21102e-05
3.1756e-05
3.13977e-05
3.10355e-05
3.06696e-05
3.03003e-05
2.9928e-05
2.95529e-05
2.91752e-05
2.87952e-05
2.84133e-05
2.80295e-05
2.76443e-05
2.72578e-05
2.68702e-05
2.64818e-05
2.60928e-05
2.57034e-05
2.53139e-05
2.49244e-05
2.45352e-05
2.41465e-05
2.37584e-05
2.33711e-05
2.29849e-05
2.25999e-05
2.22162e-05
2.18341e-05
2.14537e-05
2.10752e-05
2.06986e-05
2.03242e-05
1.99522e-05
1.95825e-05
1.92154e-05
1.8851e-05
1.84895e-05
1.81308e-05
1.77752e-05
1.74227e-05
1.70735e-05
1.67276e-05
1.63852e-05
1.60463e-05
1.57109e-05
1.53793e-05
1.50514e-05
1.47273e-05
1.4407e-05
1.40908e-05
1.37785e-05
1.34702e-05
1.31661e-05
1.2866e-05
1.25702e-05
1.22785e-05
1.19911e-05
1.17079e-05
1.1429e-05
1.11544e-05
1.08841e-05
1.06182e-05
1.03565e-05
1.00993e-05
9.84632e-06
9.59772e-06
9.35345e-06
9.11352e-06
8.8779e-06
8.64659e-06
8.41958e-06
8.19684e-06
7.97836e-06
7.76411e-06
7.55407e-06
7.34822e-06
7.14652e-06
6.94894e-06
6.75546e-06
6.56603e-06
6.38063e-06
6.19921e-06
6.02174e-06
5.84817e-06
5.67847e-06
5.51258e-06
5.35047e-06
5.1921e-06
5.0374e-06
4.88635e-06
4.73888e-06
4.59496e-06
4.45452e-06
4.31753e-06
4.18392e-06
4.05365e-06
3.92666e-06
3.80291e-06
3.68234e-06
3.56489e-06
3.45052e-06
3.33917e-06
3.23078e-06
3.1253e-06
3.02269e-06
2.92288e-06
2.82581e-06
2.73145e-06
2.63973e-06
2.5506e-06
2.46401e-06
2.37991e-06
2.29823e-06
2.21894e-06
2.14197e-06
2.06729e-06
1.99483e-06
1.92454e-06
1.85638e-06
1.7903e-06
1.72625e-06
1.66417e-06
1.60403e-06
1.54577e-06
1.48936e-06
1.43473e-06
1.38185e-06
1.33067e-06
1.28115e-06
1.23325e-06
1.18691e-06
1.14211e-06
1.0988e-06
1.05693e-06
1.01648e-06
9.77395e-07
9.39642e-07
9.03183e-07
8.67981e-07
8.33999e-07
8.01204e-07
7.69559e-07
7.39031e-07
7.09586e-07
6.81192e-07
6.53818e-07
6.27431e-07
6.02002e-07
5.77501e-07
5.53898e-07
5.31166e-07
5.09277e-07
4.88204e-07
4.6792e-07
4.48401e-07
4.2962e-07
4.11554e-07
3.94178e-07
3.77471e-07
3.61408e-07
3.4597e-07
3.31133e-07
3.16878e-07
3.03184e-07
2.90032e-07
2.77403e-07
2.65278e-07
2.5364e-07
2.42471e-07
2.31755e-07
2.21474e-07
2.11614e-07
2.02158e-07
1.93092e-07
1.84402e-07
1.76074e-07
1.68093e-07
1.60447e-07
1.53123e-07
1.4611e-07
1.39394e-07
1.32965e-07
1.26812e-07
1.20923e-07
1.15289e-07
1.09899e-07
1.04744e-07
9.98146e-08
9.51016e-08
9.05963e-08
8.62905e-08
8.21759e-08
7.82449e-08
7.44899e-08
7.09037e-08
6.74793e-08
6.421e-08
6.10893e-08
5.8111e-08
5.52691e-08
5.25579e-08
4.99717e-08
4.75053e-08
4.51534e-08
4.29113e-08
4.07741e-08
3.87372e-08
3.67964e-08
3.49473e-08
3.3186e-08
3.15086e-08
2.99113e-08
2.83906e-08
2.69431e-08
2.55655e-08
2.42545e-08
2.30073e-08
2.18209e-08
2.06925e-08
1.96194e-08
1.85992e-08
1.76294e-08
1.67076e-08
1.58317e-08
1.49994e-08
1.42087e-08
1.34577e-08
1.27445e-08
1.20673e-08
1.14244e-08
1.08142e-08
1.0235e-08
9.68544e-09
9.16403e-09
8.66942e-09
8.20031e-09
7.75545e-09
7.33366e-09
6.93381e-09
6.55481e-09
6.19563e-09
5.8553e-09
5.53287e-09
5.22745e-09
4.93818e-09
4.66427e-09
4.40492e-09
4.15942e-09
3.92704e-09
3.70713e-09
3.49906e-09
3.3022e-09
3.116e-09
2.93989e-09
2.77336e-09
2.61592e-09
2.46708e-09
2.32641e-09
2.19347e-09
2.06786e-09
1.94919e-09
1.83711e-09
1.73126e-09
1.63131e-09
1.53694e-09
1.44787e-09
1.36381e-09
1.28449e-09
1.20966e-09
1.13907e-09
1.07251e-09
1.00974e-09
9.50573e-10
8.94807e-10
8.42259e-10
7.92755e-10
7.46129e-10
7.02225e-10
6.60897e-10
6.22002e-10
5.8541e-10
5.50996e-10
5.1864e-10
4.88233e-10
4.59667e-10
4.32845e-10
4.07672e-10
3.8406e-10
3.61926e-10
3.41191e-10
3.21782e-10
3.0363e-10
2.86669e-10
2.70839e-10
2.56083e-10
2.42346e-10
2.2958e-10
2.17738e-10
2.06776e-10
1.96654e-10
1.87336e-10
1.78786e-10
1.70973e-10
1.63869e-10
1.57446e-10
1.51681e-10
1.46552e-10
1.42041e-10
1.3813e-10
1.34805e-10
1.32052e-10
1.29863e-10
1.28228e-10
1.27141e-10
1.26599e-10
7.71388e-07
2.31156e-06
3.84429e-06
5.36524e-06
6.87054e-06
8.35672e-06
9.82064e-06
1.12595e-05
1.26708e-05
1.40524e-05
1.54023e-05
1.67188e-05
1.80004e-05
1.9246e-05
2.04545e-05
2.16251e-05
2.27572e-05
2.38504e-05
2.49042e-05
2.59187e-05
2.68936e-05
2.78292e-05
2.87257e-05
2.95832e-05
3.04023e-05
3.11832e-05
3.19267e-05
3.26331e-05
3.33031e-05
3.39374e-05
3.45366e-05
3.51015e-05
3.56327e-05
3.61311e-05
3.65972e-05
3.7032e-05
3.74362e-05
3.78105e-05
3.81557e-05
3.84725e-05
3.87617e-05
3.90241e-05
3.92603e-05
3.94711e-05
3.96572e-05
3.98192e-05
3.9958e-05
4.00741e-05
4.01682e-05
4.02409e-05
4.02929e-05
4.03249e-05
4.03373e-05
4.03309e-05
4.03061e-05
4.02636e-05
4.02038e-05
4.01275e-05
4.0035e-05
3.99269e-05
3.98038e-05
3.96661e-05
3.95142e-05
3.93488e-05
3.91702e-05
3.8979e-05
3.87755e-05
3.85602e-05
3.83336e-05
3.80961e-05
3.78481e-05
3.75899e-05
3.73221e-05
3.7045e-05
3.6759e-05
3.64645e-05
3.61618e-05
3.58514e-05
3.55336e-05
3.52087e-05
3.48771e-05
3.45392e-05
3.41953e-05
3.38457e-05
3.34907e-05
3.31307e-05
3.2766e-05
3.23969e-05
3.20236e-05
3.16466e-05
3.12661e-05
3.08824e-05
3.04957e-05
3.01064e-05
2.97147e-05
2.93209e-05
2.89253e-05
2.8528e-05
2.81294e-05
2.77297e-05
2.73291e-05
2.69279e-05
2.65263e-05
2.61245e-05
2.57228e-05
2.53213e-05
2.49202e-05
2.45199e-05
2.41203e-05
2.37219e-05
2.33246e-05
2.29288e-05
2.25345e-05
2.2142e-05
2.17514e-05
2.13628e-05
2.09765e-05
2.05926e-05
2.02111e-05
1.98323e-05
1.94563e-05
1.90832e-05
1.87131e-05
1.83461e-05
1.79823e-05
1.76219e-05
1.7265e-05
1.69116e-05
1.65618e-05
1.62157e-05
1.58734e-05
1.5535e-05
1.52005e-05
1.487e-05
1.45436e-05
1.42213e-05
1.39031e-05
1.35892e-05
1.32796e-05
1.29742e-05
1.26732e-05
1.23765e-05
1.20843e-05
1.17964e-05
1.1513e-05
1.1234e-05
1.09595e-05
1.06895e-05
1.04239e-05
1.01629e-05
9.90628e-06
9.65417e-06
9.40652e-06
9.16334e-06
8.9246e-06
8.69029e-06
8.46039e-06
8.23489e-06
8.01375e-06
7.79696e-06
7.58449e-06
7.37631e-06
7.17238e-06
6.97268e-06
6.77717e-06
6.5858e-06
6.39855e-06
6.21537e-06
6.03622e-06
5.86106e-06
5.68985e-06
5.52253e-06
5.35906e-06
5.19939e-06
5.04348e-06
4.89127e-06
4.74272e-06
4.59777e-06
4.45637e-06
4.31846e-06
4.184e-06
4.05294e-06
3.9252e-06
3.80076e-06
3.67953e-06
3.56148e-06
3.44655e-06
3.33468e-06
3.22581e-06
3.11989e-06
3.01687e-06
2.91669e-06
2.81929e-06
2.72462e-06
2.63263e-06
2.54325e-06
2.45644e-06
2.37214e-06
2.2903e-06
2.21086e-06
2.13377e-06
2.05898e-06
1.98643e-06
1.91608e-06
1.84788e-06
1.78176e-06
1.71769e-06
1.65562e-06
1.59549e-06
1.53725e-06
1.48087e-06
1.42629e-06
1.37346e-06
1.32235e-06
1.2729e-06
1.22508e-06
1.17884e-06
1.13413e-06
1.09092e-06
1.04917e-06
1.00883e-06
9.6986e-07
9.32228e-07
8.95894e-07
8.6082e-07
8.2697e-07
7.94307e-07
7.62797e-07
7.32405e-07
7.03099e-07
6.74844e-07
6.47608e-07
6.21362e-07
5.96072e-07
5.71711e-07
5.48248e-07
5.25655e-07
5.03904e-07
4.82968e-07
4.62821e-07
4.43436e-07
4.24789e-07
4.06855e-07
3.8961e-07
3.73031e-07
3.57096e-07
3.41782e-07
3.27068e-07
3.12934e-07
2.99359e-07
2.86324e-07
2.73809e-07
2.61797e-07
2.50269e-07
2.39208e-07
2.28596e-07
2.18419e-07
2.08659e-07
1.99302e-07
1.90332e-07
1.81736e-07
1.73499e-07
1.65607e-07
1.58048e-07
1.50808e-07
1.43877e-07
1.37241e-07
1.3089e-07
1.24812e-07
1.18996e-07
1.13433e-07
1.08113e-07
1.03025e-07
9.81599e-08
9.35098e-08
8.90655e-08
8.48186e-08
8.07612e-08
7.68854e-08
7.31839e-08
6.96494e-08
6.62749e-08
6.30539e-08
5.99798e-08
5.70465e-08
5.42481e-08
5.15787e-08
4.9033e-08
4.66055e-08
4.42912e-08
4.20853e-08
3.9983e-08
3.79797e-08
3.60712e-08
3.42532e-08
3.25219e-08
3.08732e-08
2.93036e-08
2.78096e-08
2.63876e-08
2.50345e-08
2.37472e-08
2.25226e-08
2.13579e-08
2.02504e-08
1.91974e-08
1.81964e-08
1.72449e-08
1.63408e-08
1.54818e-08
1.46657e-08
1.38905e-08
1.31544e-08
1.24554e-08
1.17918e-08
1.1162e-08
1.05642e-08
9.99691e-09
9.45873e-09
8.94821e-09
8.46402e-09
8.00485e-09
7.5695e-09
7.15679e-09
6.7656e-09
6.39487e-09
6.04359e-09
5.7108e-09
5.39555e-09
5.09699e-09
4.81426e-09
4.54658e-09
4.29318e-09
4.05333e-09
3.82635e-09
3.61158e-09
3.4084e-09
3.2162e-09
3.03443e-09
2.86255e-09
2.70004e-09
2.54642e-09
2.40122e-09
2.26401e-09
2.13436e-09
2.01188e-09
1.89619e-09
1.78693e-09
1.68377e-09
1.58637e-09
1.49443e-09
1.40767e-09
1.3258e-09
1.24856e-09
1.1757e-09
1.107e-09
1.04221e-09
9.81142e-10
9.23582e-10
8.69345e-10
8.18248e-10
7.70123e-10
7.24808e-10
6.8215e-10
6.42005e-10
6.04236e-10
5.68715e-10
5.35319e-10
5.03933e-10
4.7445e-10
4.46765e-10
4.20782e-10
3.96411e-10
3.73565e-10
3.52163e-10
3.3213e-10
3.13394e-10
2.95888e-10
2.79549e-10
2.64318e-10
2.5014e-10
2.36963e-10
2.2474e-10
2.13425e-10
2.02978e-10
1.9336e-10
1.84535e-10
1.76471e-10
1.69138e-10
1.62509e-10
1.56559e-10
1.51265e-10
1.46609e-10
1.42572e-10
1.3914e-10
1.36299e-10
1.34039e-10
1.32352e-10
1.3123e-10
1.3067e-10
7.7904e-07
2.33487e-06
3.88405e-06
5.42248e-06
6.9464e-06
8.45236e-06
9.93724e-06
1.13982e-05
1.28327e-05
1.42384e-05
1.56133e-05
1.69556e-05
1.82638e-05
1.95365e-05
2.07727e-05
2.19713e-05
2.31318e-05
2.42534e-05
2.53359e-05
2.63789e-05
2.73824e-05
2.83462e-05
2.92706e-05
3.01558e-05
3.1002e-05
3.18096e-05
3.25791e-05
3.3311e-05
3.40058e-05
3.46642e-05
3.52867e-05
3.58741e-05
3.6427e-05
3.69462e-05
3.74324e-05
3.78863e-05
3.83087e-05
3.87003e-05
3.90619e-05
3.93943e-05
3.96982e-05
3.99743e-05
4.02234e-05
4.04462e-05
4.06434e-05
4.08158e-05
4.0964e-05
4.10887e-05
4.11906e-05
4.12704e-05
4.13288e-05
4.13662e-05
4.13835e-05
4.13811e-05
4.13597e-05
4.13199e-05
4.12623e-05
4.11874e-05
4.10957e-05
4.09879e-05
4.08644e-05
4.07257e-05
4.05725e-05
4.0405e-05
4.0224e-05
4.00298e-05
3.98229e-05
3.96038e-05
3.93728e-05
3.91306e-05
3.88774e-05
3.86138e-05
3.83402e-05
3.80568e-05
3.77643e-05
3.74629e-05
3.71531e-05
3.68352e-05
3.65096e-05
3.61768e-05
3.58369e-05
3.54905e-05
3.51379e-05
3.47793e-05
3.44152e-05
3.40459e-05
3.36717e-05
3.32929e-05
3.29099e-05
3.25229e-05
3.21323e-05
3.17384e-05
3.13414e-05
3.09416e-05
3.05394e-05
3.0135e-05
2.97286e-05
2.93206e-05
2.89112e-05
2.85006e-05
2.80891e-05
2.7677e-05
2.72644e-05
2.68516e-05
2.64388e-05
2.60263e-05
2.56143e-05
2.52029e-05
2.47923e-05
2.43829e-05
2.39747e-05
2.35679e-05
2.31627e-05
2.27594e-05
2.23579e-05
2.19586e-05
2.15616e-05
2.1167e-05
2.0775e-05
2.03857e-05
1.99992e-05
1.96157e-05
1.92353e-05
1.88581e-05
1.84843e-05
1.81139e-05
1.7747e-05
1.73837e-05
1.70242e-05
1.66685e-05
1.63167e-05
1.59688e-05
1.5625e-05
1.52853e-05
1.49498e-05
1.46185e-05
1.42915e-05
1.39688e-05
1.36505e-05
1.33366e-05
1.30272e-05
1.27223e-05
1.24218e-05
1.2126e-05
1.18346e-05
1.15479e-05
1.12657e-05
1.09882e-05
1.07152e-05
1.04468e-05
1.01831e-05
9.92392e-06
9.66936e-06
9.41938e-06
9.17398e-06
8.93312e-06
8.69681e-06
8.465e-06
8.23769e-06
8.01485e-06
7.79644e-06
7.58244e-06
7.37282e-06
7.16754e-06
6.96656e-06
6.76985e-06
6.57737e-06
6.38907e-06
6.20492e-06
6.02486e-06
5.84886e-06
5.67687e-06
5.50883e-06
5.3447e-06
5.18443e-06
5.02797e-06
4.87527e-06
4.72627e-06
4.58091e-06
4.43916e-06
4.30094e-06
4.16621e-06
4.03491e-06
3.90698e-06
3.78237e-06
3.66102e-06
3.54287e-06
3.42788e-06
3.31597e-06
3.20709e-06
3.10119e-06
2.99821e-06
2.89809e-06
2.80077e-06
2.70621e-06
2.61433e-06
2.5251e-06
2.43844e-06
2.35431e-06
2.27265e-06
2.19341e-06
2.11652e-06
2.04195e-06
1.96964e-06
1.89952e-06
1.83156e-06
1.7657e-06
1.70189e-06
1.64008e-06
1.58022e-06
1.52226e-06
1.46615e-06
1.41185e-06
1.35931e-06
1.30848e-06
1.25932e-06
1.21179e-06
1.16583e-06
1.12142e-06
1.07849e-06
1.03702e-06
9.96967e-07
9.58284e-07
9.20934e-07
8.8488e-07
8.50083e-07
8.16508e-07
7.84117e-07
7.52876e-07
7.2275e-07
6.93706e-07
6.65709e-07
6.38729e-07
6.12733e-07
5.8769e-07
5.63572e-07
5.40347e-07
5.17988e-07
4.96467e-07
4.75757e-07
4.5583e-07
4.36662e-07
4.18226e-07
4.00499e-07
3.83457e-07
3.67076e-07
3.51335e-07
3.3621e-07
3.2168e-07
3.07726e-07
2.94327e-07
2.81462e-07
2.69114e-07
2.57264e-07
2.45893e-07
2.34986e-07
2.24524e-07
2.14491e-07
2.04873e-07
1.95652e-07
1.86815e-07
1.78348e-07
1.70236e-07
1.62465e-07
1.55024e-07
1.47898e-07
1.41077e-07
1.34548e-07
1.283e-07
1.22322e-07
1.16604e-07
1.11134e-07
1.05904e-07
1.00904e-07
9.61235e-08
9.15549e-08
8.71894e-08
8.30185e-08
7.90344e-08
7.52295e-08
7.15961e-08
6.81274e-08
6.48163e-08
6.16563e-08
5.8641e-08
5.57643e-08
5.30204e-08
5.04035e-08
4.79082e-08
4.55292e-08
4.32616e-08
4.11005e-08
3.90413e-08
3.70794e-08
3.52106e-08
3.34309e-08
3.17362e-08
3.01227e-08
2.85869e-08
2.71252e-08
2.57343e-08
2.44109e-08
2.31521e-08
2.19549e-08
2.08164e-08
1.97339e-08
1.8705e-08
1.7727e-08
1.67975e-08
1.59145e-08
1.50756e-08
1.42788e-08
1.35221e-08
1.28036e-08
1.21214e-08
1.14739e-08
1.08594e-08
1.02763e-08
9.72311e-09
9.19833e-09
8.7006e-09
8.2286e-09
7.78108e-09
7.35683e-09
6.95471e-09
6.57362e-09
6.21252e-09
5.87042e-09
5.54637e-09
5.23945e-09
4.94883e-09
4.67366e-09
4.41318e-09
4.16662e-09
3.9333e-09
3.71253e-09
3.50366e-09
3.3061e-09
3.11925e-09
2.94256e-09
2.77551e-09
2.61759e-09
2.46834e-09
2.32729e-09
2.19402e-09
2.06811e-09
1.94919e-09
1.83688e-09
1.73083e-09
1.63071e-09
1.53621e-09
1.44702e-09
1.36286e-09
1.28346e-09
1.20857e-09
1.13794e-09
1.07134e-09
1.00857e-09
9.49398e-10
8.93644e-10
8.4112e-10
7.91649e-10
7.45067e-10
7.01217e-10
6.5995e-10
6.21125e-10
5.84611e-10
5.50282e-10
5.18019e-10
4.87711e-10
4.59253e-10
4.32544e-10
4.07491e-10
3.84007e-10
3.62007e-10
3.41414e-10
3.22154e-10
3.04159e-10
2.87363e-10
2.71706e-10
2.57131e-10
2.43586e-10
2.31022e-10
2.19391e-10
2.08652e-10
1.98765e-10
1.89693e-10
1.81404e-10
1.73866e-10
1.67052e-10
1.60935e-10
1.55494e-10
1.50707e-10
1.46557e-10
1.43029e-10
1.40109e-10
1.37786e-10
1.36051e-10
1.34898e-10
1.34323e-10
7.86206e-07
2.35656e-06
3.92078e-06
5.475e-06
7.01557e-06
8.5391e-06
1.00425e-05
1.15229e-05
1.29777e-05
1.44045e-05
1.58014e-05
1.71663e-05
1.84978e-05
1.97943e-05
2.10546e-05
2.22778e-05
2.34631e-05
2.46097e-05
2.57172e-05
2.67853e-05
2.78136e-05
2.88023e-05
2.97512e-05
3.06606e-05
3.15306e-05
3.23616e-05
3.31541e-05
3.39083e-05
3.46249e-05
3.53044e-05
3.59474e-05
3.65546e-05
3.71266e-05
3.76642e-05
3.81679e-05
3.86387e-05
3.90772e-05
3.94841e-05
3.98602e-05
4.02063e-05
4.05231e-05
4.08114e-05
4.10719e-05
4.13053e-05
4.15124e-05
4.16939e-05
4.18505e-05
4.19828e-05
4.20917e-05
4.21778e-05
4.22417e-05
4.22841e-05
4.23056e-05
4.23069e-05
4.22885e-05
4.22512e-05
4.21954e-05
4.21218e-05
4.20309e-05
4.19233e-05
4.17995e-05
4.16601e-05
4.15055e-05
4.13364e-05
4.11532e-05
4.09564e-05
4.07465e-05
4.0524e-05
4.02893e-05
4.00429e-05
3.97853e-05
3.95169e-05
3.9238e-05
3.89493e-05
3.8651e-05
3.83435e-05
3.80274e-05
3.77029e-05
3.73706e-05
3.70306e-05
3.66835e-05
3.63296e-05
3.59693e-05
3.56029e-05
3.52308e-05
3.48532e-05
3.44707e-05
3.40834e-05
3.36917e-05
3.32959e-05
3.28964e-05
3.24935e-05
3.20874e-05
3.16785e-05
3.12669e-05
3.08532e-05
3.04374e-05
3.00199e-05
2.96009e-05
2.91807e-05
2.87596e-05
2.83378e-05
2.79155e-05
2.7493e-05
2.70706e-05
2.66483e-05
2.62266e-05
2.58054e-05
2.53852e-05
2.49661e-05
2.45482e-05
2.41318e-05
2.3717e-05
2.3304e-05
2.28931e-05
2.24843e-05
2.20778e-05
2.16738e-05
2.12725e-05
2.08739e-05
2.04782e-05
2.00856e-05
1.96961e-05
1.93099e-05
1.89271e-05
1.85479e-05
1.81722e-05
1.78003e-05
1.74322e-05
1.70679e-05
1.67077e-05
1.63515e-05
1.59995e-05
1.56517e-05
1.53081e-05
1.49689e-05
1.46341e-05
1.43037e-05
1.39778e-05
1.36564e-05
1.33396e-05
1.30273e-05
1.27197e-05
1.24167e-05
1.21184e-05
1.18248e-05
1.15359e-05
1.12517e-05
1.09722e-05
1.06974e-05
1.04273e-05
1.01619e-05
9.90126e-06
9.64529e-06
9.394e-06
9.14737e-06
8.90539e-06
8.66803e-06
8.43527e-06
8.20708e-06
7.98344e-06
7.76431e-06
7.54966e-06
7.33945e-06
7.13366e-06
6.93223e-06
6.73513e-06
6.54232e-06
6.35375e-06
6.16937e-06
5.98915e-06
5.81303e-06
5.64097e-06
5.4729e-06
5.30879e-06
5.14858e-06
4.99221e-06
4.83963e-06
4.6908e-06
4.54564e-06
4.40411e-06
4.26614e-06
4.13169e-06
4.0007e-06
3.8731e-06
3.74884e-06
3.62786e-06
3.5101e-06
3.39551e-06
3.28402e-06
3.17558e-06
3.07013e-06
2.9676e-06
2.86796e-06
2.77112e-06
2.67704e-06
2.58567e-06
2.49693e-06
2.41078e-06
2.32716e-06
2.24602e-06
2.16729e-06
2.09093e-06
2.01688e-06
1.94509e-06
1.8755e-06
1.80806e-06
1.74271e-06
1.67942e-06
1.61812e-06
1.55877e-06
1.50132e-06
1.44572e-06
1.39192e-06
1.33987e-06
1.28953e-06
1.24086e-06
1.1938e-06
1.14832e-06
1.10436e-06
1.0619e-06
1.02088e-06
9.81271e-07
9.43025e-07
9.06106e-07
8.70475e-07
8.36094e-07
8.02926e-07
7.70936e-07
7.40087e-07
7.10346e-07
6.81678e-07
6.5405e-07
6.27431e-07
6.01788e-07
5.7709e-07
5.53309e-07
5.30414e-07
5.08376e-07
4.87169e-07
4.66764e-07
4.47136e-07
4.28258e-07
4.10106e-07
3.92655e-07
3.75882e-07
3.59762e-07
3.44274e-07
3.29397e-07
3.15108e-07
3.01387e-07
2.88214e-07
2.75569e-07
2.63435e-07
2.51792e-07
2.40622e-07
2.2991e-07
2.19636e-07
2.09787e-07
2.00345e-07
1.91297e-07
1.82626e-07
1.74319e-07
1.66362e-07
1.58742e-07
1.51446e-07
1.44461e-07
1.37776e-07
1.31378e-07
1.25257e-07
1.19401e-07
1.138e-07
1.08444e-07
1.03324e-07
9.84292e-08
9.3751e-08
8.92808e-08
8.50099e-08
8.09302e-08
7.7034e-08
7.33135e-08
6.97615e-08
6.6371e-08
6.31352e-08
6.00476e-08
5.7102e-08
5.42922e-08
5.16125e-08
4.90573e-08
4.66213e-08
4.42993e-08
4.20864e-08
3.99777e-08
3.79688e-08
3.60552e-08
3.42328e-08
3.24974e-08
3.08453e-08
2.92726e-08
2.77758e-08
2.63515e-08
2.49965e-08
2.37075e-08
2.24815e-08
2.13157e-08
2.02073e-08
1.91536e-08
1.81522e-08
1.72005e-08
1.62962e-08
1.54372e-08
1.46213e-08
1.38464e-08
1.31107e-08
1.24122e-08
1.17492e-08
1.11199e-08
1.05228e-08
9.95633e-09
9.41896e-09
8.90929e-09
8.42597e-09
7.96771e-09
7.53329e-09
7.12152e-09
6.73129e-09
6.36154e-09
6.01123e-09
5.6794e-09
5.36513e-09
5.06753e-09
4.78576e-09
4.51903e-09
4.26657e-09
4.02765e-09
3.80158e-09
3.5877e-09
3.3854e-09
3.19407e-09
3.01314e-09
2.84208e-09
2.68038e-09
2.52754e-09
2.38311e-09
2.24664e-09
2.11772e-09
1.99594e-09
1.88094e-09
1.77235e-09
1.66982e-09
1.57305e-09
1.48172e-09
1.39555e-09
1.31424e-09
1.23756e-09
1.16523e-09
1.09704e-09
1.03276e-09
9.7217e-10
9.15079e-10
8.61294e-10
8.10638e-10
7.62938e-10
7.18036e-10
6.75779e-10
6.36024e-10
5.98634e-10
5.63481e-10
5.30444e-10
4.99409e-10
4.70268e-10
4.42919e-10
4.17265e-10
3.93217e-10
3.7069e-10
3.49603e-10
3.29881e-10
3.11454e-10
2.94255e-10
2.78223e-10
2.63299e-10
2.49429e-10
2.36563e-10
2.24653e-10
2.13657e-10
2.03532e-10
1.94243e-10
1.85755e-10
1.78036e-10
1.71058e-10
1.64795e-10
1.59223e-10
1.54322e-10
1.50073e-10
1.4646e-10
1.4347e-10
1.41091e-10
1.39315e-10
1.38134e-10
1.37545e-10
7.92641e-07
2.37599e-06
3.95357e-06
5.52168e-06
7.07679e-06
8.6156e-06
1.0135e-05
1.16322e-05
1.31044e-05
1.45495e-05
1.59652e-05
1.73495e-05
1.87009e-05
2.00178e-05
2.12989e-05
2.25431e-05
2.37496e-05
2.49177e-05
2.60466e-05
2.71361e-05
2.81859e-05
2.91958e-05
3.01658e-05
3.1096e-05
3.19865e-05
3.28376e-05
3.36497e-05
3.44232e-05
3.51585e-05
3.58562e-05
3.65169e-05
3.71412e-05
3.77296e-05
3.8283e-05
3.8802e-05
3.92872e-05
3.97396e-05
4.01597e-05
4.05483e-05
4.09063e-05
4.12343e-05
4.1533e-05
4.18033e-05
4.20459e-05
4.22616e-05
4.24509e-05
4.26148e-05
4.27538e-05
4.28687e-05
4.29602e-05
4.3029e-05
4.30756e-05
4.31009e-05
4.31053e-05
4.30896e-05
4.30544e-05
4.30003e-05
4.29278e-05
4.28376e-05
4.27302e-05
4.26062e-05
4.24661e-05
4.23105e-05
4.214e-05
4.19549e-05
4.17559e-05
4.15435e-05
4.1318e-05
4.10801e-05
4.08302e-05
4.05687e-05
4.02961e-05
4.00128e-05
3.97194e-05
3.94161e-05
3.91035e-05
3.87819e-05
3.84518e-05
3.81135e-05
3.77675e-05
3.74142e-05
3.70538e-05
3.66869e-05
3.63137e-05
3.59346e-05
3.555e-05
3.51602e-05
3.47656e-05
3.43664e-05
3.39631e-05
3.3556e-05
3.31452e-05
3.27313e-05
3.23144e-05
3.18949e-05
3.1473e-05
3.10491e-05
3.06234e-05
3.01962e-05
2.97678e-05
2.93383e-05
2.89082e-05
2.84776e-05
2.80467e-05
2.76159e-05
2.71852e-05
2.67551e-05
2.63256e-05
2.5897e-05
2.54694e-05
2.50432e-05
2.46185e-05
2.41954e-05
2.37742e-05
2.3355e-05
2.2938e-05
2.25234e-05
2.21113e-05
2.17019e-05
2.12953e-05
2.08917e-05
2.04911e-05
2.00938e-05
1.96999e-05
1.93094e-05
1.89225e-05
1.85393e-05
1.81599e-05
1.77843e-05
1.74128e-05
1.70453e-05
1.66819e-05
1.63228e-05
1.5968e-05
1.56175e-05
1.52714e-05
1.49298e-05
1.45928e-05
1.42603e-05
1.39324e-05
1.36092e-05
1.32906e-05
1.29768e-05
1.26677e-05
1.23634e-05
1.20638e-05
1.17691e-05
1.14791e-05
1.1194e-05
1.09136e-05
1.06381e-05
1.03674e-05
1.01014e-05
9.84029e-06
9.58392e-06
9.33231e-06
9.08543e-06
8.84328e-06
8.60581e-06
8.37301e-06
8.14485e-06
7.92129e-06
7.7023e-06
7.48785e-06
7.27789e-06
7.07239e-06
6.87131e-06
6.6746e-06
6.48222e-06
6.29412e-06
6.11025e-06
5.93057e-06
5.75503e-06
5.58356e-06
5.41613e-06
5.25268e-06
5.09315e-06
4.93749e-06
4.78564e-06
4.63755e-06
4.49316e-06
4.35241e-06
4.21524e-06
4.08159e-06
3.95141e-06
3.82464e-06
3.70122e-06
3.58108e-06
3.46417e-06
3.35042e-06
3.23979e-06
3.13221e-06
3.02761e-06
2.92595e-06
2.82716e-06
2.73118e-06
2.63795e-06
2.54742e-06
2.45953e-06
2.37422e-06
2.29144e-06
2.21112e-06
2.13321e-06
2.05767e-06
1.98442e-06
1.91342e-06
1.84462e-06
1.77795e-06
1.71338e-06
1.65084e-06
1.59029e-06
1.53168e-06
1.47495e-06
1.42006e-06
1.36696e-06
1.31561e-06
1.26595e-06
1.21794e-06
1.17154e-06
1.12669e-06
1.08337e-06
1.04153e-06
1.00111e-06
9.62094e-07
9.24428e-07
8.88076e-07
8.53e-07
8.19162e-07
7.86525e-07
7.55052e-07
7.24709e-07
6.95462e-07
6.67275e-07
6.40118e-07
6.13956e-07
5.88759e-07
5.64497e-07
5.41139e-07
5.18656e-07
4.9702e-07
4.76202e-07
4.56177e-07
4.36918e-07
4.18399e-07
4.00595e-07
3.83482e-07
3.67037e-07
3.51236e-07
3.36057e-07
3.21479e-07
3.07481e-07
2.94041e-07
2.81141e-07
2.68762e-07
2.56883e-07
2.45488e-07
2.34558e-07
2.24078e-07
2.14029e-07
2.04396e-07
1.95165e-07
1.86319e-07
1.77844e-07
1.69726e-07
1.61952e-07
1.54508e-07
1.47382e-07
1.40562e-07
1.34034e-07
1.27789e-07
1.21815e-07
1.16101e-07
1.10637e-07
1.05413e-07
1.00419e-07
9.56467e-08
9.1086e-08
8.67288e-08
8.25666e-08
7.85916e-08
7.47959e-08
7.11721e-08
6.7713e-08
6.44118e-08
6.12618e-08
5.82565e-08
5.539e-08
5.26561e-08
5.00493e-08
4.7564e-08
4.5195e-08
4.29374e-08
4.07861e-08
3.87365e-08
3.67843e-08
3.4925e-08
3.31545e-08
3.14689e-08
2.98645e-08
2.83374e-08
2.68844e-08
2.55019e-08
2.41868e-08
2.29361e-08
2.17467e-08
2.06159e-08
1.95409e-08
1.85192e-08
1.75482e-08
1.66257e-08
1.57493e-08
1.49169e-08
1.41264e-08
1.33758e-08
1.26631e-08
1.19867e-08
1.13448e-08
1.07356e-08
1.01576e-08
9.60941e-09
9.08943e-09
8.59634e-09
8.12882e-09
7.68561e-09
7.26552e-09
6.8674e-09
6.49016e-09
6.13277e-09
5.79423e-09
5.47361e-09
5.16999e-09
4.88253e-09
4.6104e-09
4.35283e-09
4.10908e-09
3.87844e-09
3.66024e-09
3.45385e-09
3.25865e-09
3.07406e-09
2.89955e-09
2.73457e-09
2.57865e-09
2.43129e-09
2.29207e-09
2.16054e-09
2.0363e-09
1.91897e-09
1.80818e-09
1.70359e-09
1.60486e-09
1.51168e-09
1.42376e-09
1.34082e-09
1.26258e-09
1.18879e-09
1.11922e-09
1.05364e-09
9.91826e-10
9.33581e-10
8.78709e-10
8.27028e-10
7.78364e-10
7.32554e-10
6.89443e-10
6.48883e-10
6.10737e-10
5.74874e-10
5.41169e-10
5.09507e-10
4.79776e-10
4.51874e-10
4.25702e-10
4.01168e-10
3.78185e-10
3.56671e-10
3.36551e-10
3.17751e-10
3.00205e-10
2.83848e-10
2.68622e-10
2.54472e-10
2.41346e-10
2.29195e-10
2.17976e-10
2.07647e-10
1.98171e-10
1.89511e-10
1.81636e-10
1.74517e-10
1.68127e-10
1.62442e-10
1.57442e-10
1.53107e-10
1.49421e-10
1.4637e-10
1.43944e-10
1.42131e-10
1.40927e-10
1.40326e-10
7.9819e-07
2.39272e-06
3.98175e-06
5.56169e-06
7.12912e-06
8.6808e-06
1.02137e-05
1.17249e-05
1.32118e-05
1.4672e-05
1.61034e-05
1.7504e-05
1.88719e-05
2.02058e-05
2.15042e-05
2.2766e-05
2.39902e-05
2.51761e-05
2.6323e-05
2.74304e-05
2.8498e-05
2.95256e-05
3.05132e-05
3.14607e-05
3.23683e-05
3.32363e-05
3.40648e-05
3.48544e-05
3.56053e-05
3.63183e-05
3.69937e-05
3.76322e-05
3.82344e-05
3.88011e-05
3.93327e-05
3.98302e-05
4.02941e-05
4.07253e-05
4.11244e-05
4.14923e-05
4.18297e-05
4.21373e-05
4.24159e-05
4.26662e-05
4.2889e-05
4.3085e-05
4.32549e-05
4.33995e-05
4.35195e-05
4.36156e-05
4.36884e-05
4.37386e-05
4.3767e-05
4.37742e-05
4.37607e-05
4.37273e-05
4.36745e-05
4.3603e-05
4.35134e-05
4.34062e-05
4.3282e-05
4.31414e-05
4.2985e-05
4.28132e-05
4.26267e-05
4.24258e-05
4.22112e-05
4.19834e-05
4.17428e-05
4.14899e-05
4.12251e-05
4.09491e-05
4.06621e-05
4.03647e-05
4.00573e-05
3.97403e-05
3.94142e-05
3.90794e-05
3.87362e-05
3.83851e-05
3.80265e-05
3.76608e-05
3.72883e-05
3.69094e-05
3.65245e-05
3.6134e-05
3.57382e-05
3.53374e-05
3.4932e-05
3.45223e-05
3.41087e-05
3.36915e-05
3.3271e-05
3.28474e-05
3.24212e-05
3.19926e-05
3.15619e-05
3.11293e-05
3.06952e-05
3.02598e-05
2.98234e-05
2.93863e-05
2.89487e-05
2.85108e-05
2.80729e-05
2.76353e-05
2.71981e-05
2.67615e-05
2.63259e-05
2.58914e-05
2.54582e-05
2.50264e-05
2.45964e-05
2.41683e-05
2.37422e-05
2.33183e-05
2.28969e-05
2.2478e-05
2.20618e-05
2.16485e-05
2.12382e-05
2.08311e-05
2.04272e-05
2.00268e-05
1.96298e-05
1.92365e-05
1.8847e-05
1.84613e-05
1.80795e-05
1.77018e-05
1.73282e-05
1.69589e-05
1.65938e-05
1.62331e-05
1.58768e-05
1.5525e-05
1.51777e-05
1.48351e-05
1.44971e-05
1.41638e-05
1.38352e-05
1.35113e-05
1.31923e-05
1.28781e-05
1.25687e-05
1.22642e-05
1.19645e-05
1.16698e-05
1.13799e-05
1.10949e-05
1.08148e-05
1.05396e-05
1.02692e-05
1.00037e-05
9.74312e-06
9.48733e-06
9.23636e-06
8.99018e-06
8.74877e-06
8.51211e-06
8.28015e-06
8.05288e-06
7.83026e-06
7.61224e-06
7.3988e-06
7.18989e-06
6.98546e-06
6.78549e-06
6.58991e-06
6.39868e-06
6.21176e-06
6.0291e-06
5.85064e-06
5.67633e-06
5.50612e-06
5.33995e-06
5.17777e-06
5.01952e-06
4.86515e-06
4.7146e-06
4.56781e-06
4.42472e-06
4.28527e-06
4.14941e-06
4.01706e-06
3.88819e-06
3.76271e-06
3.64057e-06
3.52172e-06
3.40609e-06
3.29362e-06
3.18425e-06
3.07791e-06
2.97456e-06
2.87413e-06
2.77655e-06
2.68178e-06
2.58975e-06
2.50039e-06
2.41367e-06
2.32951e-06
2.24786e-06
2.16866e-06
2.09185e-06
2.01739e-06
1.94521e-06
1.87526e-06
1.80749e-06
1.74185e-06
1.67827e-06
1.61671e-06
1.55713e-06
1.49946e-06
1.44366e-06
1.38967e-06
1.33747e-06
1.28698e-06
1.23817e-06
1.191e-06
1.14541e-06
1.10137e-06
1.05883e-06
1.01775e-06
9.78078e-07
9.39787e-07
9.02831e-07
8.67172e-07
8.32772e-07
7.99592e-07
7.67597e-07
7.3675e-07
7.07016e-07
6.78362e-07
6.50753e-07
6.24156e-07
5.98541e-07
5.73876e-07
5.50129e-07
5.27273e-07
5.05277e-07
4.84114e-07
4.63756e-07
4.44177e-07
4.2535e-07
4.07251e-07
3.89853e-07
3.73135e-07
3.57071e-07
3.4164e-07
3.2682e-07
3.12589e-07
2.98927e-07
2.85812e-07
2.73227e-07
2.61151e-07
2.49566e-07
2.38455e-07
2.278e-07
2.17585e-07
2.07792e-07
1.98407e-07
1.89414e-07
1.80799e-07
1.72546e-07
1.64643e-07
1.57075e-07
1.49831e-07
1.42897e-07
1.36261e-07
1.29912e-07
1.23839e-07
1.1803e-07
1.12475e-07
1.07164e-07
1.02088e-07
9.72357e-08
9.25993e-08
8.81697e-08
8.39384e-08
7.98973e-08
7.60385e-08
7.23545e-08
6.8838e-08
6.54819e-08
6.22796e-08
5.92244e-08
5.63102e-08
5.35309e-08
5.08808e-08
4.83542e-08
4.59459e-08
4.36507e-08
4.14637e-08
3.93801e-08
3.73954e-08
3.55052e-08
3.37053e-08
3.19917e-08
3.03606e-08
2.88082e-08
2.7331e-08
2.59256e-08
2.45887e-08
2.33171e-08
2.2108e-08
2.09584e-08
1.98655e-08
1.88269e-08
1.78398e-08
1.69019e-08
1.6011e-08
1.51647e-08
1.43611e-08
1.3598e-08
1.28735e-08
1.21859e-08
1.15332e-08
1.09139e-08
1.03264e-08
9.76905e-09
9.24044e-09
8.73915e-09
8.26386e-09
7.81329e-09
7.38622e-09
6.98149e-09
6.59798e-09
6.23466e-09
5.8905e-09
5.56454e-09
5.25588e-09
4.96364e-09
4.687e-09
4.42515e-09
4.17735e-09
3.94288e-09
3.72105e-09
3.51123e-09
3.31279e-09
3.12514e-09
2.94772e-09
2.78e-09
2.62149e-09
2.47169e-09
2.33014e-09
2.19643e-09
2.07013e-09
1.95085e-09
1.83822e-09
1.73189e-09
1.63152e-09
1.5368e-09
1.44742e-09
1.36309e-09
1.28355e-09
1.20854e-09
1.13782e-09
1.07114e-09
1.0083e-09
9.4909e-10
8.93307e-10
8.40767e-10
7.91295e-10
7.44724e-10
7.00896e-10
6.59663e-10
6.20883e-10
5.84424e-10
5.5016e-10
5.17971e-10
4.87747e-10
4.59381e-10
4.32774e-10
4.07832e-10
3.84467e-10
3.62597e-10
3.42142e-10
3.2303e-10
3.05192e-10
2.88564e-10
2.73085e-10
2.587e-10
2.45355e-10
2.33003e-10
2.21598e-10
2.11097e-10
2.01463e-10
1.92659e-10
1.84653e-10
1.77416e-10
1.7092e-10
1.65141e-10
1.60057e-10
1.5565e-10
1.51903e-10
1.48802e-10
1.46335e-10
1.44493e-10
1.43268e-10
1.42657e-10
8.02743e-07
2.40644e-06
4.00482e-06
5.59439e-06
7.17182e-06
8.7339e-06
1.02776e-05
1.18001e-05
1.32988e-05
1.47712e-05
1.62152e-05
1.76287e-05
1.901e-05
2.03574e-05
2.16696e-05
2.29455e-05
2.41839e-05
2.5384e-05
2.65452e-05
2.7667e-05
2.87489e-05
2.97907e-05
3.07923e-05
3.17538e-05
3.26751e-05
3.35565e-05
3.43982e-05
3.52006e-05
3.59642e-05
3.66893e-05
3.73766e-05
3.80265e-05
3.86398e-05
3.92171e-05
3.9759e-05
4.02662e-05
4.07394e-05
4.11795e-05
4.15871e-05
4.1963e-05
4.23079e-05
4.26225e-05
4.29078e-05
4.31643e-05
4.33928e-05
4.35942e-05
4.37691e-05
4.39182e-05
4.40422e-05
4.4142e-05
4.42181e-05
4.42713e-05
4.43022e-05
4.43115e-05
4.42998e-05
4.42679e-05
4.42162e-05
4.41455e-05
4.40564e-05
4.39494e-05
4.38251e-05
4.36841e-05
4.3527e-05
4.33542e-05
4.31665e-05