/*--------------------------------*- C++ -*----------------------------------*\
  =========                 |
  \\      /  F ield         | OpenFOAM: The Open Source CFD Toolbox
   \\    /   O peration     | Website:  https://openfoam.org
    \\  /    A nd           | Version:  10
     \\/     M anipulation  |
\*---------------------------------------------------------------------------*/
FoamFile
{
    format      ascii;
    class       volScalarField;
    location    "0.2";
    object      beta;
}
// * * * * * * * * * * * * * * * * * * * * * * * * * * * * * * * * * * * * * //

dimensions      [0 0 0 0 0 0 0];

internalField   uniform 0;

boundaryField
{
    frontAndBack
    {
        type            empty;
    }
    inlet
    {
        type            calculated;
        value           uniform 0;
    }
    outlet
    {
        type            calculated;
        value           uniform 0;
    }
    substrate
    {
        type            calculated;
        value           nonuniform List<scalar> 
400
(
0.00265356
0.0028767
0.00308822
0.00329353
0.00349515
0.00369436
0.00389174
0.00408753
0.00428175
0.0044743
0.00466498
0.00485356
0.00503978
0.00522337
0.00540406
0.00558159
0.00575571
0.0059262
0.00609285
0.00625549
0.00641397
0.00656814
0.00671792
0.00686322
0.00700397
0.00714015
0.00727175
0.00739875
0.00752119
0.0076391
0.00775253
0.00786154
0.00796621
0.00806662
0.00816285
0.00825502
0.00834322
0.00842757
0.00850816
0.00858513
0.00865858
0.00872863
0.00879541
0.00885902
0.0089196
0.00897725
0.00903209
0.00908423
0.00913378
0.00918086
0.00922557
0.00926801
0.00930828
0.00934647
0.0093827
0.00941703
0.00944957
0.0094804
0.0095096
0.00953724
0.00956341
0.00958817
0.0096116
0.00963375
0.00965471
0.00967452
0.00969325
0.00971094
0.00972766
0.00974345
0.00975837
0.00977245
0.00978575
0.0097983
0.00981014
0.00982132
0.00983186
0.0098418
0.00985118
0.00986002
0.00986835
0.00987621
0.00988362
0.00989059
0.00989716
0.00990336
0.00990919
0.00991468
0.00991985
0.00992472
0.0099293
0.00993361
0.00993767
0.00994149
0.00994508
0.00994845
0.00995163
0.00995462
0.00995743
0.00996007
0.00996255
0.00996488
0.00996707
0.00996913
0.00997106
0.00997288
0.00997458
0.00997618
0.00997769
0.0099791
0.00998042
0.00998167
0.00998283
0.00998393
0.00998495
0.00998592
0.00998682
0.00998767
0.00998846
0.0099892
0.0099899
0.00999056
0.00999117
0.00999174
0.00999228
0.00999278
0.00999326
0.0099937
0.00999411
0.0099945
0.00999486
0.0099952
0.00999552
0.00999581
0.00999609
0.00999635
0.00999659
0.00999682
0.00999703
0.00999723
0.00999742
0.00999759
0.00999775
0.00999791
0.00999805
0.00999818
0.0099983
0.00999842
0.00999853
0.00999863
0.00999872
0.00999881
0.00999889
0.00999897
0.00999904
0.0099991
0.00999917
0.00999922
0.00999928
0.00999933
0.00999937
0.00999942
0.00999946
0.0099995
0.00999953
0.00999956
0.0099996
0.00999962
0.00999965
0.00999967
0.0099997
0.00999972
0.00999974
0.00999976
0.00999978
0.00999979
0.00999981
0.00999982
0.00999983
0.00999985
0.00999986
0.00999987
0.00999988
0.00999989
0.00999989
0.0099999
0.00999991
0.00999992
0.00999992
0.00999993
0.00999993
0.00999994
0.00999994
0.00999995
0.00999995
0.00999995
0.00999996
0.00999996
0.00999996
0.00999997
0.00999997
0.00999997
0.00999997
0.00999998
0.00999998
0.00999998
0.00999998
0.00999998
0.00999998
0.00999998
0.00999999
0.00999999
0.00999999
0.00999999
0.00999999
0.00999999
0.00999999
0.00999999
0.00999999
0.00999999
0.00999999
0.00999999
0.00999999
0.01
0.01
0.01
0.01
0.01
0.01
0.01
0.01
0.01
0.01
0.01
0.01
0.01
0.01
0.01
0.01
0.01
0.01
0.01
0.01
0.01
0.01
0.01
0.01
0.01
0.01
0.01
0.01
0.01
0.01
0.01
0.01
0.01
0.01
0.01
0.01
0.01
0.01
0.01
0.01
0.01
0.01
0.01
0.01
0.01
0.01
0.01
0.01
0.01
0.01
0.01
0.01
0.01
0.01
0.01
0.01
0.01
0.01
0.01
0.01
0.01
0.01
0.01
0.01
0.01
0.01
0.01
0.01
0.01
0.01
0.01
0.01
0.01
0.01
0.01
0.01
0.01
0.01
0.01
0.01
0.01
0.01
0.01
0.01
0.01
0.01
0.01
0.01
0.01
0.01
0.01
0.01
0.01
0.01
0.01
0.01
0.01
0.01
0.01
0.01
0.01
0.01
0.01
0.01
0.01
0.01
0.01
0.01
0.01
0.01
0.01
0.01
0.01
0.01
0.01
0.01
0.01
0.01
0.01
0.01
0.01
0.01
0.01
0.01
0.01
0.01
0.01
0.01
0.01
0.01
0.01
0.01
0.01
0.01
0.01
0.01
0.01
0.01
0.01
0.01
0.01
0.01
0.01
0.01
0.01
0.01
0.01
0.01
0.01
0.01
0.01
0.01
0.01
0.01
0.01
0.01
0.01
0.01
0.01
0.01
0.01
0.01
0.01
0.01
0.01
0.01
0.01
0.01
0.01
0.01
0.01
0.01
0.01
0.01
0.01
0.01
0.01
)
;
    }
    Wall
    {
        type            calculated;
        value           nonuniform List<scalar> 
400
(
0.00265357
0.00287671
0.00308822
0.00329352
0.00349515
0.00369436
0.00389174
0.00408753
0.00428175
0.0044743
0.00466498
0.00485356
0.00503978
0.00522336
0.00540405
0.00558157
0.00575569
0.00592618
0.00609283
0.00625547
0.00641394
0.00656811
0.00671789
0.00686318
0.00700393
0.00714011
0.0072717
0.0073987
0.00752114
0.00763905
0.00775248
0.00786149
0.00796616
0.00806656
0.0081628
0.00825497
0.00834317
0.00842751
0.00850811
0.00858508
0.00865853
0.00872858
0.00879536
0.00885898
0.00891955
0.0089772
0.00903204
0.00908419
0.00913374
0.00918082
0.00922553
0.00926797
0.00930824
0.00934644
0.00938266
0.009417
0.00944954
0.00948037
0.00950957
0.00953721
0.00956338
0.00958814
0.00961157
0.00963373
0.00965469
0.0096745
0.00969323
0.00971092
0.00972764
0.00974344
0.00975835
0.00977244
0.00978573
0.00979828
0.00981013
0.0098213
0.00983185
0.00984179
0.00985117
0.00986001
0.00986834
0.0098762
0.00988361
0.00989058
0.00989716
0.00990335
0.00990918
0.00991467
0.00991984
0.00992471
0.00992929
0.00993361
0.00993766
0.00994148
0.00994507
0.00994845
0.00995163
0.00995461
0.00995742
0.00996006
0.00996254
0.00996488
0.00996707
0.00996912
0.00997106
0.00997287
0.00997458
0.00997618
0.00997769
0.0099791
0.00998042
0.00998167
0.00998283
0.00998393
0.00998495
0.00998592
0.00998682
0.00998767
0.00998846
0.0099892
0.0099899
0.00999056
0.00999117
0.00999174
0.00999228
0.00999278
0.00999326
0.0099937
0.00999411
0.0099945
0.00999486
0.0099952
0.00999552
0.00999581
0.00999609
0.00999635
0.00999659
0.00999682
0.00999703
0.00999723
0.00999742
0.00999759
0.00999775
0.00999791
0.00999805
0.00999818
0.0099983
0.00999842
0.00999853
0.00999863
0.00999872
0.00999881
0.00999889
0.00999897
0.00999904
0.0099991
0.00999917
0.00999922
0.00999928
0.00999933
0.00999937
0.00999942
0.00999946
0.0099995
0.00999953
0.00999956
0.0099996
0.00999962
0.00999965
0.00999967
0.0099997
0.00999972
0.00999974
0.00999976
0.00999978
0.00999979
0.00999981
0.00999982
0.00999983
0.00999985
0.00999986
0.00999987
0.00999988
0.00999989
0.00999989
0.0099999
0.00999991
0.00999992
0.00999992
0.00999993
0.00999993
0.00999994
0.00999994
0.00999995
0.00999995
0.00999995
0.00999996
0.00999996
0.00999996
0.00999997
0.00999997
0.00999997
0.00999997
0.00999998
0.00999998
0.00999998
0.00999998
0.00999998
0.00999998
0.00999998
0.00999999
0.00999999
0.00999999
0.00999999
0.00999999
0.00999999
0.00999999
0.00999999
0.00999999
0.00999999
0.00999999
0.00999999
0.00999999
0.01
0.01
0.01
0.01
0.01
0.01
0.01
0.01
0.01
0.01
0.01
0.01
0.01
0.01
0.01
0.01
0.01
0.01
0.01
0.01
0.01
0.01
0.01
0.01
0.01
0.01
0.01
0.01
0.01
0.01
0.01
0.01
0.01
0.01
0.01
0.01
0.01
0.01
0.01
0.01
0.01
0.01
0.01
0.01
0.01
0.01
0.01
0.01
0.01
0.01
0.01
0.01
0.01
0.01
0.01
0.01
0.01
0.01
0.01
0.01
0.01
0.01
0.01
0.01
0.01
0.01
0.01
0.01
0.01
0.01
0.01
0.01
0.01
0.01
0.01
0.01
0.01
0.01
0.01
0.01
0.01
0.01
0.01
0.01
0.01
0.01
0.01
0.01
0.01
0.01
0.01
0.01
0.01
0.01
0.01
0.01
0.01
0.01
0.01
0.01
0.01
0.01
0.01
0.01
0.01
0.01
0.01
0.01
0.01
0.01
0.01
0.01
0.01
0.01
0.01
0.01
0.01
0.01
0.01
0.01
0.01
0.01
0.01
0.01
0.01
0.01
0.01
0.01
0.01
0.01
0.01
0.01
0.01
0.01
0.01
0.01
0.01
0.01
0.01
0.01
0.01
0.01
0.01
0.01
0.01
0.01
0.01
0.01
0.01
0.01
0.01
0.01
0.01
0.01
0.01
0.01
0.01
0.01
0.01
0.01
0.01
0.01
0.01
0.01
0.01
0.01
0.01
0.01
0.01
0.01
0.01
0.01
0.01
0.01
0.01
0.01
0.01
)
;
    }
}


// ************************************************************************* //
