/*--------------------------------*- C++ -*----------------------------------*\
  =========                 |
  \\      /  F ield         | OpenFOAM: The Open Source CFD Toolbox
   \\    /   O peration     | Website:  https://openfoam.org
    \\  /    A nd           | Version:  10
     \\/     M anipulation  |
\*---------------------------------------------------------------------------*/
FoamFile
{
    format      ascii;
    class       volScalarField;
    location    "0.2";
    object      growth;
}
// * * * * * * * * * * * * * * * * * * * * * * * * * * * * * * * * * * * * * //

dimensions      [0 0 0 0 0 0 0];

internalField   uniform 0;

boundaryField
{
    frontAndBack
    {
        type            empty;
    }
    inlet
    {
        type            calculated;
        value           uniform 0;
    }
    outlet
    {
        type            calculated;
        value           uniform 0;
    }
    substrate
    {
        type            calculated;
        value           nonuniform List<scalar> 
400
(
0.734644
0.71233
0.691178
0.670647
0.650485
0.630564
0.610826
0.591247
0.571825
0.55257
0.533502
0.514644
0.496022
0.477663
0.459594
0.441841
0.424429
0.40738
0.390715
0.374451
0.358603
0.343186
0.328208
0.313678
0.299603
0.285985
0.272825
0.260125
0.247881
0.23609
0.224747
0.213846
0.203379
0.193338
0.183715
0.174498
0.165678
0.157243
0.149184
0.141487
0.134142
0.127137
0.120459
0.114098
0.10804
0.102275
0.0967912
0.0915771
0.0866215
0.0819138
0.0774431
0.0731994
0.0691724
0.0653526
0.0617303
0.0582967
0.0550427
0.05196
0.0490405
0.0462761
0.0436594
0.0411832
0.0388404
0.0366245
0.0345291
0.032548
0.0306754
0.0289059
0.027234
0.0256546
0.0241631
0.0227547
0.0214251
0.0201702
0.0189858
0.0178684
0.0168142
0.0158199
0.0148822
0.013998
0.0131645
0.0123789
0.0116385
0.0109408
0.0102835
0.00966436
0.00908121
0.00853207
0.00801503
0.00752828
0.00707013
0.00663894
0.00623321
0.00585147
0.00549237
0.0051546
0.00483696
0.00453827
0.00425746
0.00399349
0.00374538
0.00351221
0.00329312
0.00308729
0.00289393
0.00271232
0.00254177
0.00238163
0.00223128
0.00209014
0.00195767
0.00183336
0.00171671
0.00160727
0.0015046
0.00140831
0.00131801
0.00123333
0.00115394
0.00107952
0.00100976
0.000944389
0.000883131
0.000825738
0.000771972
0.000721612
0.000674448
0.000630284
0.000588933
0.000550223
0.000513988
0.000480077
0.000448344
0.000418652
0.000390876
0.000364894
0.000340593
0.000317869
0.000296622
0.000276758
0.00025819
0.000240836
0.000224618
0.000209465
0.000195308
0.000182083
0.000169731
0.000158196
0.000147425
0.000137369
0.000127982
0.000119221
0.000111044
0.000103414
9.62954e-05
8.96548e-05
8.34608e-05
7.76843e-05
7.22977e-05
6.72756e-05
6.25938e-05
5.82299e-05
5.41629e-05
5.0373e-05
4.68419e-05
4.35524e-05
4.04884e-05
3.76347e-05
3.49774e-05
3.25032e-05
3.01999e-05
2.80559e-05
2.60605e-05
2.42037e-05
2.2476e-05
2.08687e-05
1.93737e-05
1.79833e-05
1.66903e-05
1.54881e-05
1.43704e-05
1.33316e-05
1.2366e-05
1.14688e-05
1.06352e-05
9.86075e-06
9.14139e-06
8.4733e-06
7.85292e-06
7.2769e-06
6.74217e-06
6.24583e-06
5.78518e-06
5.35774e-06
4.96115e-06
4.59325e-06
4.25201e-06
3.93555e-06
3.6421e-06
3.37004e-06
3.11784e-06
2.88408e-06
2.66746e-06
2.46673e-06
2.28078e-06
2.10852e-06
1.94899e-06
1.80125e-06
1.66446e-06
1.53783e-06
1.42061e-06
1.31213e-06
1.21175e-06
1.11888e-06
1.03297e-06
9.53507e-07
8.80023e-07
8.12077e-07
7.49261e-07
6.91197e-07
6.37534e-07
5.87945e-07
5.42129e-07
4.99805e-07
4.60713e-07
4.24612e-07
3.91278e-07
3.60504e-07
3.32098e-07
3.05881e-07
2.8169e-07
2.5937e-07
2.3878e-07
2.1979e-07
2.02278e-07
1.86131e-07
1.71245e-07
1.57524e-07
1.44879e-07
1.33228e-07
1.22494e-07
1.12606e-07
1.03499e-07
9.51135e-08
8.73928e-08
8.02857e-08
7.37443e-08
6.77247e-08
6.21862e-08
5.70912e-08
5.24049e-08
4.80952e-08
4.41326e-08
4.04897e-08
3.71412e-08
3.4064e-08
3.12364e-08
2.86388e-08
2.62527e-08
2.40613e-08
2.20491e-08
2.02018e-08
1.85061e-08
1.69498e-08
1.55217e-08
1.42116e-08
1.30097e-08
1.19075e-08
1.08968e-08
9.97013e-09
9.1207e-09
8.3422e-09
7.62882e-09
6.97524e-09
6.37654e-09
5.82821e-09
5.3261e-09
4.8664e-09
4.44559e-09
4.06046e-09
3.70805e-09
3.38562e-09
3.09069e-09
2.82094e-09
2.57429e-09
2.34879e-09
2.14265e-09
1.95427e-09
1.78212e-09
1.62486e-09
1.4812e-09
1.35001e-09
1.23021e-09
1.12084e-09
1.02102e-09
9.29914e-10
8.46787e-10
7.70952e-10
7.01781e-10
6.38701e-10
5.81186e-10
5.28754e-10
4.80964e-10
4.37415e-10
3.97736e-10
3.6159e-10
3.2867e-10
2.98691e-10
2.71398e-10
2.46553e-10
2.23942e-10
2.03366e-10
1.84648e-10
1.67621e-10
1.52136e-10
1.38056e-10
1.25256e-10
1.13622e-10
1.03049e-10
9.34429e-11
8.47163e-11
7.67904e-11
6.95931e-11
6.30585e-11
5.71269e-11
5.17435e-11
4.68587e-11
4.2427e-11
3.84073e-11
3.47619e-11
3.14565e-11
2.84601e-11
2.57443e-11
2.32832e-11
2.10534e-11
1.90335e-11
1.72042e-11
1.55478e-11
1.40481e-11
1.26907e-11
1.14623e-11
1.03508e-11
9.34529e-12
8.43586e-12
7.61348e-12
6.86995e-12
6.19786e-12
5.59044e-12
5.04158e-12
4.54574e-12
4.09788e-12
3.69344e-12
3.32827e-12
2.99863e-12
2.70112e-12
2.43267e-12
2.19047e-12
1.97201e-12
1.775e-12
1.59737e-12
1.43724e-12
1.29292e-12
1.16288e-12
1.04572e-12
9.40196e-13
8.45168e-13
7.59613e-13
6.82602e-13
6.13298e-13
5.50945e-13
4.94859e-13
4.44423e-13
3.99082e-13
3.58332e-13
3.21719e-13
2.88836e-13
2.59314e-13
2.32821e-13
2.09058e-13
1.87756e-13
1.68672e-13
1.5159e-13
1.36313e-13
1.22667e-13
1.10493e-13
9.96518e-14
9.00172e-14
8.14772e-14
7.39322e-14
6.7294e-14
6.14848e-14
5.64362e-14
5.20889e-14
4.83914e-14
4.53001e-14
4.27782e-14
4.07958e-14
3.93293e-14
3.83612e-14
3.788e-14
)
;
    }
    Wall
    {
        type            calculated;
        value           nonuniform List<scalar> 
400
(
0.734643
0.712329
0.691178
0.670648
0.650485
0.630564
0.610826
0.591247
0.571825
0.55257
0.533502
0.514644
0.496022
0.477664
0.459595
0.441843
0.424431
0.407382
0.390717
0.374453
0.358606
0.343189
0.328211
0.313682
0.299607
0.285989
0.27283
0.26013
0.247886
0.236095
0.224752
0.213851
0.203384
0.193344
0.18372
0.174503
0.165683
0.157249
0.149189
0.141492
0.134147
0.127142
0.120464
0.114102
0.108045
0.10228
0.0967957
0.0915814
0.0866257
0.0819178
0.0774471
0.0732032
0.0691761
0.0653561
0.0617338
0.0583
0.0550459
0.0519631
0.0490434
0.0462789
0.0436621
0.0411858
0.0388429
0.0366269
0.0345313
0.0325501
0.0306775
0.0289078
0.0272358
0.0256564
0.0241648
0.0227563
0.0214267
0.0201716
0.0189872
0.0178697
0.0168154
0.015821
0.0148833
0.0139991
0.0131655
0.0123798
0.0116394
0.0109416
0.0102843
0.00966509
0.00908191
0.00853272
0.00801564
0.00752886
0.00707067
0.00663945
0.00623369
0.00585192
0.00549279
0.005155
0.00483733
0.00453862
0.00425779
0.00399379
0.00374566
0.00351248
0.00329337
0.00308752
0.00289415
0.00271253
0.00254196
0.00238181
0.00223144
0.0020903
0.00195782
0.00183349
0.00171683
0.00160738
0.00150471
0.00140841
0.0013181
0.00123342
0.00115402
0.00107959
0.00100983
0.000944455
0.000883192
0.000825795
0.000772025
0.000721661
0.000674494
0.000630326
0.000588972
0.000550259
0.000514022
0.000480109
0.000448373
0.00041868
0.000390901
0.000364917
0.000340615
0.000317889
0.00029664
0.000276775
0.000258206
0.000240851
0.000224632
0.000209477
0.000195319
0.000182094
0.000169741
0.000158205
0.000147434
0.000137377
0.00012799
0.000119227
0.00011105
0.00010342
9.63008e-05
8.96597e-05
8.34654e-05
7.76885e-05
7.23017e-05
6.72792e-05
6.25971e-05
5.8233e-05
5.41657e-05
5.03757e-05
4.68444e-05
4.35547e-05
4.04905e-05
3.76367e-05
3.49792e-05
3.25049e-05
3.02014e-05
2.80573e-05
2.60618e-05
2.42049e-05
2.24771e-05
2.08698e-05
1.93747e-05
1.79841e-05
1.66911e-05
1.54888e-05
1.43711e-05
1.33322e-05
1.23666e-05
1.14694e-05
1.06357e-05
9.86123e-06
9.14184e-06
8.47372e-06
7.8533e-06
7.27725e-06
6.74249e-06
6.24613e-06
5.78546e-06
5.358e-06
4.96139e-06
4.59348e-06
4.25222e-06
3.93574e-06
3.64228e-06
3.3702e-06
3.11799e-06
2.88422e-06
2.66759e-06
2.46686e-06
2.28089e-06
2.10863e-06
1.94908e-06
1.80134e-06
1.66454e-06
1.5379e-06
1.42068e-06
1.3122e-06
1.21181e-06
1.11894e-06
1.03302e-06
9.53556e-07
8.80069e-07
8.12119e-07
7.493e-07
6.91233e-07
6.37568e-07
5.87977e-07
5.42158e-07
4.99832e-07
4.60738e-07
4.24635e-07
3.913e-07
3.60524e-07
3.32116e-07
3.05899e-07
2.81706e-07
2.59385e-07
2.38794e-07
2.19803e-07
2.02289e-07
1.86142e-07
1.71255e-07
1.57534e-07
1.44888e-07
1.33236e-07
1.22501e-07
1.12613e-07
1.03506e-07
9.51194e-08
8.73983e-08
8.02908e-08
7.37491e-08
6.77291e-08
6.21903e-08
5.7095e-08
5.24084e-08
4.80984e-08
4.41356e-08
4.04924e-08
3.71438e-08
3.40664e-08
3.12386e-08
2.86408e-08
2.62546e-08
2.40631e-08
2.20507e-08
2.02033e-08
1.85074e-08
1.69511e-08
1.55229e-08
1.42126e-08
1.30107e-08
1.19084e-08
1.08976e-08
9.97091e-09
9.12143e-09
8.34287e-09
7.62944e-09
6.97581e-09
6.37706e-09
5.82869e-09
5.32654e-09
4.86681e-09
4.44597e-09
4.06081e-09
3.70837e-09
3.38592e-09
3.09096e-09
2.8212e-09
2.57452e-09
2.349e-09
2.14285e-09
1.95445e-09
1.78229e-09
1.62501e-09
1.48134e-09
1.35014e-09
1.23033e-09
1.12095e-09
1.02112e-09
9.30006e-10
8.46872e-10
7.71029e-10
7.01853e-10
6.38767e-10
5.81246e-10
5.28809e-10
4.81015e-10
4.37461e-10
3.97778e-10
3.61629e-10
3.28705e-10
2.98724e-10
2.71428e-10
2.46581e-10
2.23967e-10
2.03389e-10
1.84669e-10
1.6764e-10
1.52154e-10
1.38072e-10
1.25271e-10
1.13635e-10
1.03062e-10
9.34542e-11
8.47267e-11
7.67999e-11
6.96017e-11
6.30664e-11
5.71341e-11
5.17501e-11
4.68647e-11
4.24325e-11
3.84123e-11
3.47664e-11
3.14607e-11
2.84639e-11
2.57477e-11
2.32863e-11
2.10563e-11
1.90362e-11
1.72066e-11
1.55499e-11
1.40501e-11
1.26925e-11
1.14639e-11
1.03523e-11
9.34664e-12
8.43709e-12
7.6146e-12
6.87097e-12
6.19878e-12
5.59128e-12
5.04235e-12
4.54644e-12
4.09851e-12
3.69401e-12
3.32879e-12
2.9991e-12
2.70155e-12
2.43305e-12
2.19082e-12
1.97233e-12
1.77529e-12
1.59763e-12
1.43748e-12
1.29314e-12
1.16307e-12
1.0459e-12
9.40356e-13
8.45313e-13
7.59744e-13
6.8272e-13
6.13405e-13
5.51042e-13
4.94947e-13
4.44503e-13
3.99154e-13
3.58396e-13
3.21778e-13
2.88889e-13
2.59362e-13
2.32864e-13
2.09097e-13
1.87791e-13
1.68704e-13
1.51619e-13
1.36339e-13
1.2269e-13
1.10514e-13
9.96709e-14
9.00344e-14
8.14928e-14
7.39464e-14
6.73069e-14
6.14965e-14
5.6447e-14
5.20988e-14
4.84007e-14
4.53088e-14
4.27865e-14
4.08038e-14
3.93367e-14
3.83672e-14
3.78849e-14
)
;
    }
}


// ************************************************************************* //
