/*--------------------------------*- C++ -*----------------------------------*\
  =========                 |
  \\      /  F ield         | OpenFOAM: The Open Source CFD Toolbox
   \\    /   O peration     | Website:  https://openfoam.org
    \\  /    A nd           | Version:  10
     \\/     M anipulation  |
\*---------------------------------------------------------------------------*/
FoamFile
{
    format      ascii;
    class       volScalarField;
    location    "0.8";
    object      Exp1;
}
// * * * * * * * * * * * * * * * * * * * * * * * * * * * * * * * * * * * * * //

dimensions      [0 0 0 0 0 0 0];

internalField   uniform 0;

boundaryField
{
    frontAndBack
    {
        type            empty;
    }
    inlet
    {
        type            calculated;
        value           uniform 0;
    }
    outlet
    {
        type            calculated;
        value           uniform 0;
    }
    substrate
    {
        type            calculated;
        value           nonuniform List<scalar> 
400
(
3.20179e-14
9.58854e-14
1.59362e-13
2.22277e-13
2.8448e-13
3.45842e-13
4.0625e-13
4.65604e-13
5.23818e-13
5.80816e-13
6.36536e-13
6.90924e-13
7.43938e-13
7.95544e-13
8.45716e-13
8.94436e-13
9.41694e-13
9.87485e-13
1.03181e-12
1.07468e-12
1.1161e-12
1.1561e-12
1.19468e-12
1.23187e-12
1.26769e-12
1.30218e-12
1.33536e-12
1.36725e-12
1.3979e-12
1.42734e-12
1.45559e-12
1.48268e-12
1.50866e-12
1.53356e-12
1.55739e-12
1.58021e-12
1.60204e-12
1.62291e-12
1.64286e-12
1.6619e-12
1.68008e-12
1.69742e-12
1.71394e-12
1.72968e-12
1.74466e-12
1.7589e-12
1.77243e-12
1.78527e-12
1.79745e-12
1.80899e-12
1.8199e-12
1.83021e-12
1.83993e-12
1.84909e-12
1.8577e-12
1.86577e-12
1.87334e-12
1.8804e-12
1.88698e-12
1.89309e-12
1.89874e-12
1.90395e-12
1.90873e-12
1.91309e-12
1.91704e-12
1.92059e-12
1.92376e-12
1.92656e-12
1.92898e-12
1.93105e-12
1.93278e-12
1.93416e-12
1.93521e-12
1.93594e-12
1.93636e-12
1.93647e-12
1.93627e-12
1.93579e-12
1.93501e-12
1.93396e-12
1.93262e-12
1.93102e-12
1.92916e-12
1.92704e-12
1.92467e-12
1.92205e-12
1.91918e-12
1.91609e-12
1.91275e-12
1.90919e-12
1.90541e-12
1.90141e-12
1.89719e-12
1.89277e-12
1.88814e-12
1.8833e-12
1.87827e-12
1.87305e-12
1.86763e-12
1.86203e-12
1.85624e-12
1.85028e-12
1.84413e-12
1.83782e-12
1.83134e-12
1.82469e-12
1.81788e-12
1.81092e-12
1.80379e-12
1.79652e-12
1.78909e-12
1.78152e-12
1.77381e-12
1.76596e-12
1.75797e-12
1.74985e-12
1.7416e-12
1.73322e-12
1.72472e-12
1.7161e-12
1.70736e-12
1.6985e-12
1.68954e-12
1.68046e-12
1.67127e-12
1.66199e-12
1.6526e-12
1.64311e-12
1.63353e-12
1.62386e-12
1.6141e-12
1.60425e-12
1.59432e-12
1.5843e-12
1.57421e-12
1.56404e-12
1.5538e-12
1.54349e-12
1.53311e-12
1.52267e-12
1.51216e-12
1.50159e-12
1.49097e-12
1.48029e-12
1.46956e-12
1.45878e-12
1.44795e-12
1.43708e-12
1.42617e-12
1.41522e-12
1.40423e-12
1.3932e-12
1.38214e-12
1.37106e-12
1.35994e-12
1.3488e-12
1.33764e-12
1.32645e-12
1.31525e-12
1.30403e-12
1.2928e-12
1.28155e-12
1.2703e-12
1.25903e-12
1.24777e-12
1.2365e-12
1.22522e-12
1.21395e-12
1.20268e-12
1.19142e-12
1.18016e-12
1.16892e-12
1.15768e-12
1.14645e-12
1.13524e-12
1.12405e-12
1.11287e-12
1.10172e-12
1.09058e-12
1.07947e-12
1.06838e-12
1.05732e-12
1.04629e-12
1.03529e-12
1.02432e-12
1.01338e-12
1.00248e-12
9.91616e-13
9.80787e-13
9.69998e-13
9.59249e-13
9.48541e-13
9.37877e-13
9.27257e-13
9.16683e-13
9.06156e-13
8.95677e-13
8.85247e-13
8.74868e-13
8.64541e-13
8.54267e-13
8.44047e-13
8.33882e-13
8.23772e-13
8.1372e-13
8.03726e-13
7.93791e-13
7.83916e-13
7.74102e-13
7.64349e-13
7.54658e-13
7.45031e-13
7.35468e-13
7.2597e-13
7.16538e-13
7.07171e-13
6.97871e-13
6.88639e-13
6.79475e-13
6.7038e-13
6.61354e-13
6.52398e-13
6.43512e-13
6.34697e-13
6.25953e-13
6.17281e-13
6.08681e-13
6.00154e-13
5.91699e-13
5.83318e-13
5.7501e-13
5.66776e-13
5.58615e-13
5.5053e-13
5.42518e-13
5.34582e-13
5.2672e-13
5.18934e-13
5.11222e-13
5.03586e-13
4.96026e-13
4.88541e-13
4.81131e-13
4.73797e-13
4.66539e-13
4.59356e-13
4.52249e-13
4.45217e-13
4.38261e-13
4.3138e-13
4.24574e-13
4.17844e-13
4.11189e-13
4.04608e-13
3.98103e-13
3.91672e-13
3.85315e-13
3.79033e-13
3.72824e-13
3.6669e-13
3.60629e-13
3.54641e-13
3.48726e-13
3.42884e-13
3.37114e-13
3.31417e-13
3.25791e-13
3.20236e-13
3.14753e-13
3.0934e-13
3.03998e-13
2.98726e-13
2.93524e-13
2.88391e-13
2.83326e-13
2.7833e-13
2.73402e-13
2.68542e-13
2.63749e-13
2.59022e-13
2.54362e-13
2.49768e-13
2.45239e-13
2.40775e-13
2.36375e-13
2.32039e-13
2.27767e-13
2.23557e-13
2.1941e-13
2.15325e-13
2.11302e-13
2.07339e-13
2.03437e-13
1.99595e-13
1.95812e-13
1.92088e-13
1.88423e-13
1.84815e-13
1.81264e-13
1.77771e-13
1.74333e-13
1.70952e-13
1.67625e-13
1.64353e-13
1.61136e-13
1.57972e-13
1.5486e-13
1.51802e-13
1.48795e-13
1.4584e-13
1.42936e-13
1.40082e-13
1.37278e-13
1.34523e-13
1.31817e-13
1.2916e-13
1.2655e-13
1.23987e-13
1.21471e-13
1.19001e-13
1.16577e-13
1.14198e-13
1.11863e-13
1.09573e-13
1.07326e-13
1.05122e-13
1.02961e-13
1.00843e-13
9.87653e-14
9.67292e-14
9.47337e-14
9.27784e-14
9.08628e-14
8.89865e-14
8.71489e-14
8.53497e-14
8.35883e-14
8.18643e-14
8.01773e-14
7.85268e-14
7.69124e-14
7.53337e-14
7.37902e-14
7.22815e-14
7.08072e-14
6.93669e-14
6.79603e-14
6.65868e-14
6.52461e-14
6.39379e-14
6.26617e-14
6.14172e-14
6.02041e-14
5.90218e-14
5.78702e-14
5.67489e-14
5.56575e-14
5.45957e-14
5.35632e-14
5.25596e-14
5.15847e-14
5.06381e-14
4.97195e-14
4.88287e-14
4.79654e-14
4.71293e-14
4.63201e-14
4.55375e-14
4.47814e-14
4.40514e-14
4.33474e-14
4.2669e-14
4.20162e-14
4.13885e-14
4.07859e-14
4.02082e-14
3.96551e-14
3.91264e-14
3.86221e-14
3.81418e-14
3.76855e-14
3.72529e-14
3.6844e-14
3.64586e-14
3.60966e-14
3.57578e-14
3.54421e-14
3.51494e-14
3.48796e-14
3.46327e-14
3.44084e-14
3.42068e-14
3.40278e-14
3.38713e-14
3.37372e-14
3.36256e-14
3.35364e-14
3.34694e-14
3.34249e-14
3.34026e-14
)
;
    }
    Wall
    {
        type            calculated;
        value           nonuniform List<scalar> 
400
(
3.2018e-14
9.58856e-14
1.59363e-13
2.22277e-13
2.8448e-13
3.45842e-13
4.0625e-13
4.65605e-13
5.23818e-13
5.80816e-13
6.36536e-13
6.90925e-13
7.43939e-13
7.95544e-13
8.45716e-13
8.94436e-13
9.41694e-13
9.87485e-13
1.03181e-12
1.07468e-12
1.1161e-12
1.15609e-12
1.19468e-12
1.23187e-12
1.26769e-12
1.30218e-12
1.33536e-12
1.36725e-12
1.3979e-12
1.42734e-12
1.45559e-12
1.48268e-12
1.50866e-12
1.53355e-12
1.55739e-12
1.58021e-12
1.60204e-12
1.62291e-12
1.64285e-12
1.6619e-12
1.68008e-12
1.69741e-12
1.71394e-12
1.72968e-12
1.74465e-12
1.7589e-12
1.77243e-12
1.78527e-12
1.79745e-12
1.80898e-12
1.81989e-12
1.8302e-12
1.83993e-12
1.84908e-12
1.85769e-12
1.86577e-12
1.87333e-12
1.8804e-12
1.88698e-12
1.89309e-12
1.89874e-12
1.90395e-12
1.90872e-12
1.91308e-12
1.91703e-12
1.92059e-12
1.92376e-12
1.92655e-12
1.92898e-12
1.93105e-12
1.93277e-12
1.93416e-12
1.93521e-12
1.93594e-12
1.93635e-12
1.93646e-12
1.93627e-12
1.93578e-12
1.93501e-12
1.93395e-12
1.93262e-12
1.93102e-12
1.92916e-12
1.92703e-12
1.92466e-12
1.92204e-12
1.91918e-12
1.91608e-12
1.91275e-12
1.90919e-12
1.90541e-12
1.9014e-12
1.89719e-12
1.89276e-12
1.88813e-12
1.8833e-12
1.87827e-12
1.87304e-12
1.86762e-12
1.86202e-12
1.85623e-12
1.85027e-12
1.84413e-12
1.83782e-12
1.83133e-12
1.82469e-12
1.81788e-12
1.81091e-12
1.80379e-12
1.79651e-12
1.78909e-12
1.78152e-12
1.77381e-12
1.76596e-12
1.75797e-12
1.74985e-12
1.7416e-12
1.73322e-12
1.72472e-12
1.71609e-12
1.70735e-12
1.6985e-12
1.68953e-12
1.68045e-12
1.67127e-12
1.66198e-12
1.65259e-12
1.64311e-12
1.63353e-12
1.62385e-12
1.61409e-12
1.60424e-12
1.59431e-12
1.5843e-12
1.5742e-12
1.56404e-12
1.5538e-12
1.54348e-12
1.5331e-12
1.52266e-12
1.51215e-12
1.50159e-12
1.49096e-12
1.48029e-12
1.46956e-12
1.45878e-12
1.44795e-12
1.43708e-12
1.42616e-12
1.41521e-12
1.40422e-12
1.3932e-12
1.38214e-12
1.37105e-12
1.35994e-12
1.34879e-12
1.33763e-12
1.32645e-12
1.31524e-12
1.30402e-12
1.29279e-12
1.28155e-12
1.27029e-12
1.25903e-12
1.24776e-12
1.23649e-12
1.22522e-12
1.21395e-12
1.20268e-12
1.19142e-12
1.18016e-12
1.16891e-12
1.15767e-12
1.14645e-12
1.13524e-12
1.12404e-12
1.11287e-12
1.10171e-12
1.09058e-12
1.07947e-12
1.06838e-12
1.05732e-12
1.04629e-12
1.03529e-12
1.02432e-12
1.01338e-12
1.00248e-12
9.91612e-13
9.80784e-13
9.69994e-13
9.59245e-13
9.48538e-13
9.37873e-13
9.27253e-13
9.16679e-13
9.06152e-13
8.95673e-13
8.85244e-13
8.74865e-13
8.64538e-13
8.54264e-13
8.44044e-13
8.33879e-13
8.23769e-13
8.13717e-13
8.03723e-13
7.93788e-13
7.83913e-13
7.74099e-13
7.64346e-13
7.54656e-13
7.45029e-13
7.35466e-13
7.25968e-13
7.16535e-13
7.07168e-13
6.97869e-13
6.88637e-13
6.79473e-13
6.70378e-13
6.61352e-13
6.52396e-13
6.4351e-13
6.34695e-13
6.25951e-13
6.17279e-13
6.08679e-13
6.00151e-13
5.91697e-13
5.83315e-13
5.75008e-13
5.66773e-13
5.58613e-13
5.50528e-13
5.42516e-13
5.3458e-13
5.26718e-13
5.18932e-13
5.11221e-13
5.03585e-13
4.96024e-13
4.88539e-13
4.81129e-13
4.73795e-13
4.66537e-13
4.59354e-13
4.52247e-13
4.45215e-13
4.38259e-13
4.31378e-13
4.24573e-13
4.17842e-13
4.11187e-13
4.04607e-13
3.98101e-13
3.9167e-13
3.85314e-13
3.79031e-13
3.72823e-13
3.66688e-13
3.60627e-13
3.54639e-13
3.48725e-13
3.42883e-13
3.37113e-13
3.31415e-13
3.25789e-13
3.20235e-13
3.14752e-13
3.09339e-13
3.03997e-13
2.98725e-13
2.93523e-13
2.8839e-13
2.83325e-13
2.78329e-13
2.73401e-13
2.68541e-13
2.63748e-13
2.59021e-13
2.54361e-13
2.49767e-13
2.45238e-13
2.40774e-13
2.36374e-13
2.32038e-13
2.27766e-13
2.23557e-13
2.1941e-13
2.15325e-13
2.11301e-13
2.07339e-13
2.03436e-13
1.99594e-13
1.95811e-13
1.92087e-13
1.88422e-13
1.84814e-13
1.81264e-13
1.7777e-13
1.74333e-13
1.70951e-13
1.67625e-13
1.64353e-13
1.61135e-13
1.57971e-13
1.5486e-13
1.51801e-13
1.48795e-13
1.4584e-13
1.42935e-13
1.40082e-13
1.37277e-13
1.34523e-13
1.31817e-13
1.29159e-13
1.26549e-13
1.23987e-13
1.2147e-13
1.19001e-13
1.16576e-13
1.14197e-13
1.11863e-13
1.09572e-13
1.07326e-13
1.05122e-13
1.02961e-13
1.00842e-13
9.87649e-14
9.67288e-14
9.47333e-14
9.27781e-14
9.08625e-14
8.89862e-14
8.71486e-14
8.53494e-14
8.3588e-14
8.1864e-14
8.0177e-14
7.85265e-14
7.69121e-14
7.53334e-14
7.37899e-14
7.22812e-14
7.0807e-14
6.93667e-14
6.796e-14
6.65865e-14
6.52459e-14
6.39377e-14
6.26615e-14
6.1417e-14
6.02038e-14
5.90216e-14
5.787e-14
5.67487e-14
5.56573e-14
5.45955e-14
5.3563e-14
5.25594e-14
5.15845e-14
5.06379e-14
4.97193e-14
4.88286e-14
4.79652e-14
4.71291e-14
4.63199e-14
4.55374e-14
4.47812e-14
4.40513e-14
4.33472e-14
4.26689e-14
4.2016e-14
4.13884e-14
4.07858e-14
4.02081e-14
3.9655e-14
3.91263e-14
3.86219e-14
3.81417e-14
3.76854e-14
3.72528e-14
3.68439e-14
3.64585e-14
3.60965e-14
3.57577e-14
3.5442e-14
3.51493e-14
3.48795e-14
3.46325e-14
3.44083e-14
3.42067e-14
3.40277e-14
3.38712e-14
3.37371e-14
3.36255e-14
3.35362e-14
3.34693e-14
3.34248e-14
3.34024e-14
)
;
    }
}


// ************************************************************************* //
