/*--------------------------------*- C++ -*----------------------------------*\
  =========                 |
  \\      /  F ield         | OpenFOAM: The Open Source CFD Toolbox
   \\    /   O peration     | Website:  https://openfoam.org
    \\  /    A nd           | Version:  10
     \\/     M anipulation  |
\*---------------------------------------------------------------------------*/
FoamFile
{
    format      ascii;
    class       volScalarField;
    location    "0.8";
    object      N1;
}
// * * * * * * * * * * * * * * * * * * * * * * * * * * * * * * * * * * * * * //

dimensions      [0 0 0 0 0 0 0];

internalField   nonuniform List<scalar> 
8000
(
2.43046e-13
7.28151e-13
1.21065e-12
1.68922e-12
2.16271e-12
2.63014e-12
3.09063e-12
3.54341e-12
3.98781e-12
4.42325e-12
4.84923e-12
5.26533e-12
5.67121e-12
6.06658e-12
6.45124e-12
6.82503e-12
7.18784e-12
7.53963e-12
7.8804e-12
8.21017e-12
8.529e-12
8.83702e-12
9.13433e-12
9.4211e-12
9.69749e-12
9.9637e-12
1.02199e-11
1.04664e-11
1.07033e-11
1.0931e-11
1.11495e-11
1.13593e-11
1.15604e-11
1.17533e-11
1.1938e-11
1.21149e-11
1.22842e-11
1.2446e-11
1.26008e-11
1.27486e-11
1.28897e-11
1.30243e-11
1.31527e-11
1.32749e-11
1.33913e-11
1.3502e-11
1.36072e-11
1.37071e-11
1.38018e-11
1.38915e-11
1.39764e-11
1.40567e-11
1.41323e-11
1.42037e-11
1.42707e-11
1.43337e-11
1.43926e-11
1.44477e-11
1.4499e-11
1.45466e-11
1.45908e-11
1.46314e-11
1.46688e-11
1.47029e-11
1.47338e-11
1.47617e-11
1.47865e-11
1.48085e-11
1.48276e-11
1.48439e-11
1.48576e-11
1.48686e-11
1.48771e-11
1.4883e-11
1.48865e-11
1.48877e-11
1.48865e-11
1.4883e-11
1.48773e-11
1.48694e-11
1.48594e-11
1.48474e-11
1.48333e-11
1.48171e-11
1.47991e-11
1.47791e-11
1.47573e-11
1.47336e-11
1.47081e-11
1.46809e-11
1.46519e-11
1.46213e-11
1.4589e-11
1.45551e-11
1.45196e-11
1.44825e-11
1.44439e-11
1.44038e-11
1.43622e-11
1.43192e-11
1.42748e-11
1.4229e-11
1.41818e-11
1.41333e-11
1.40836e-11
1.40325e-11
1.39802e-11
1.39266e-11
1.38719e-11
1.3816e-11
1.3759e-11
1.37008e-11
1.36415e-11
1.35812e-11
1.35198e-11
1.34573e-11
1.33939e-11
1.33295e-11
1.32642e-11
1.31979e-11
1.31307e-11
1.30626e-11
1.29936e-11
1.29238e-11
1.28532e-11
1.27818e-11
1.27096e-11
1.26367e-11
1.2563e-11
1.24886e-11
1.24136e-11
1.23378e-11
1.22615e-11
1.21845e-11
1.21069e-11
1.20287e-11
1.19499e-11
1.18706e-11
1.17908e-11
1.17105e-11
1.16297e-11
1.15484e-11
1.14667e-11
1.13846e-11
1.13021e-11
1.12192e-11
1.11359e-11
1.10523e-11
1.09684e-11
1.08842e-11
1.07996e-11
1.07148e-11
1.06298e-11
1.05445e-11
1.0459e-11
1.03734e-11
1.02875e-11
1.02015e-11
1.01153e-11
1.00291e-11
9.94267e-12
9.85619e-12
9.76963e-12
9.68302e-12
9.59636e-12
9.50968e-12
9.42299e-12
9.3363e-12
9.24964e-12
9.16302e-12
9.07644e-12
8.98994e-12
8.90351e-12
8.81718e-12
8.73097e-12
8.64488e-12
8.55892e-12
8.47312e-12
8.38749e-12
8.30203e-12
8.21677e-12
8.13171e-12
8.04687e-12
7.96226e-12
7.87789e-12
7.79378e-12
7.70993e-12
7.62636e-12
7.54308e-12
7.4601e-12
7.37743e-12
7.29508e-12
7.21306e-12
7.13139e-12
7.05006e-12
6.9691e-12
6.88851e-12
6.8083e-12
6.72848e-12
6.64905e-12
6.57004e-12
6.49143e-12
6.41326e-12
6.33551e-12
6.2582e-12
6.18134e-12
6.10493e-12
6.02898e-12
5.9535e-12
5.87849e-12
5.80396e-12
5.72992e-12
5.65638e-12
5.58333e-12
5.51078e-12
5.43874e-12
5.36722e-12
5.29622e-12
5.22574e-12
5.15579e-12
5.08637e-12
5.01749e-12
4.94915e-12
4.88136e-12
4.81411e-12
4.74742e-12
4.68127e-12
4.61569e-12
4.55067e-12
4.48621e-12
4.42231e-12
4.35898e-12
4.29623e-12
4.23404e-12
4.17243e-12
4.11139e-12
4.05093e-12
3.99104e-12
3.93173e-12
3.87301e-12
3.81486e-12
3.75729e-12
3.70031e-12
3.6439e-12
3.58808e-12
3.53284e-12
3.47818e-12
3.4241e-12
3.3706e-12
3.31768e-12
3.26534e-12
3.21357e-12
3.16239e-12
3.11178e-12
3.06175e-12
3.01229e-12
2.9634e-12
2.91508e-12
2.86734e-12
2.82016e-12
2.77354e-12
2.72749e-12
2.682e-12
2.63707e-12
2.59269e-12
2.54887e-12
2.50561e-12
2.46289e-12
2.42072e-12
2.37909e-12
2.33801e-12
2.29746e-12
2.25745e-12
2.21797e-12
2.17902e-12
2.1406e-12
2.1027e-12
2.06532e-12
2.02845e-12
1.9921e-12
1.95626e-12
1.92093e-12
1.88609e-12
1.85176e-12
1.81792e-12
1.78458e-12
1.75172e-12
1.71935e-12
1.68745e-12
1.65604e-12
1.62509e-12
1.59462e-12
1.5646e-12
1.53505e-12
1.50596e-12
1.47732e-12
1.44913e-12
1.42138e-12
1.39408e-12
1.36721e-12
1.34077e-12
1.31476e-12
1.28918e-12
1.26402e-12
1.23927e-12
1.21494e-12
1.19101e-12
1.16749e-12
1.14436e-12
1.12163e-12
1.0993e-12
1.07735e-12
1.05578e-12
1.0346e-12
1.01379e-12
9.93347e-13
9.73275e-13
9.53565e-13
9.34214e-13
9.15219e-13
8.96574e-13
8.78277e-13
8.60323e-13
8.42708e-13
8.25429e-13
8.08481e-13
7.91861e-13
7.75565e-13
7.59589e-13
7.43929e-13
7.28582e-13
7.13545e-13
6.98812e-13
6.84382e-13
6.70249e-13
6.56411e-13
6.42865e-13
6.29606e-13
6.16632e-13
6.03938e-13
5.91522e-13
5.7938e-13
5.67509e-13
5.55906e-13
5.44568e-13
5.33491e-13
5.22672e-13
5.12109e-13
5.01798e-13
4.91737e-13
4.81922e-13
4.72351e-13
4.6302e-13
4.53928e-13
4.45071e-13
4.36447e-13
4.28053e-13
4.19887e-13
4.11946e-13
4.04228e-13
3.9673e-13
3.8945e-13
3.82385e-13
3.75534e-13
3.68895e-13
3.62464e-13
3.56241e-13
3.50222e-13
3.44407e-13
3.38793e-13
3.33378e-13
3.28161e-13
3.2314e-13
3.18313e-13
3.13678e-13
3.09235e-13
3.04981e-13
3.00916e-13
2.97036e-13
2.93343e-13
2.89833e-13
2.86507e-13
2.83362e-13
2.80398e-13
2.77613e-13
2.75008e-13
2.7258e-13
2.70329e-13
2.68254e-13
2.66354e-13
2.6463e-13
2.63079e-13
2.61703e-13
2.60499e-13
2.59468e-13
2.58609e-13
2.57923e-13
2.57408e-13
2.57065e-13
2.56894e-13
2.45534e-13
7.35831e-13
1.22393e-12
1.70855e-12
2.18859e-12
2.66303e-12
3.13098e-12
3.59167e-12
4.04438e-12
4.48852e-12
4.92355e-12
5.34901e-12
5.76454e-12
6.16981e-12
6.56457e-12
6.94864e-12
7.32188e-12
7.6842e-12
8.03556e-12
8.37595e-12
8.70543e-12
9.02405e-12
9.33191e-12
9.62915e-12
9.91591e-12
1.01924e-11
1.04587e-11
1.07151e-11
1.09618e-11
1.11989e-11
1.14268e-11
1.16457e-11
1.18557e-11
1.20572e-11
1.22503e-11
1.24354e-11
1.26126e-11
1.27821e-11
1.29442e-11
1.30992e-11
1.32472e-11
1.33884e-11
1.35232e-11
1.36516e-11
1.37739e-11
1.38902e-11
1.40008e-11
1.41059e-11
1.42055e-11
1.43e-11
1.43894e-11
1.44739e-11
1.45537e-11
1.46289e-11
1.46996e-11
1.4766e-11
1.48283e-11
1.48865e-11
1.49407e-11
1.49911e-11
1.50378e-11
1.5081e-11
1.51206e-11
1.51568e-11
1.51897e-11
1.52194e-11
1.52459e-11
1.52694e-11
1.52899e-11
1.53076e-11
1.53224e-11
1.53345e-11
1.53439e-11
1.53506e-11
1.53549e-11
1.53566e-11
1.53559e-11
1.53528e-11
1.53474e-11
1.53398e-11
1.53299e-11
1.53178e-11
1.53036e-11
1.52874e-11
1.52691e-11
1.52488e-11
1.52266e-11
1.52024e-11
1.51764e-11
1.51486e-11
1.5119e-11
1.50876e-11
1.50544e-11
1.50196e-11
1.49832e-11
1.49451e-11
1.49055e-11
1.48642e-11
1.48215e-11
1.47772e-11
1.47315e-11
1.46844e-11
1.46358e-11
1.45859e-11
1.45346e-11
1.4482e-11
1.44281e-11
1.4373e-11
1.43166e-11
1.4259e-11
1.42002e-11
1.41402e-11
1.40791e-11
1.40169e-11
1.39535e-11
1.38892e-11
1.38238e-11
1.37573e-11
1.36899e-11
1.36216e-11
1.35522e-11
1.3482e-11
1.34109e-11
1.33389e-11
1.3266e-11
1.31924e-11
1.31179e-11
1.30426e-11
1.29666e-11
1.28899e-11
1.28124e-11
1.27343e-11
1.26554e-11
1.2576e-11
1.24959e-11
1.24152e-11
1.23339e-11
1.22521e-11
1.21697e-11
1.20869e-11
1.20035e-11
1.19196e-11
1.18353e-11
1.17506e-11
1.16654e-11
1.15798e-11
1.14939e-11
1.14076e-11
1.1321e-11
1.12341e-11
1.11468e-11
1.10593e-11
1.09715e-11
1.08835e-11
1.07953e-11
1.07069e-11
1.06183e-11
1.05295e-11
1.04406e-11
1.03515e-11
1.02624e-11
1.01731e-11
1.00838e-11
9.99436e-12
9.90492e-12
9.81545e-12
9.72598e-12
9.63651e-12
9.54706e-12
9.45765e-12
9.3683e-12
9.27901e-12
9.18981e-12
9.10071e-12
9.01172e-12
8.92286e-12
8.83414e-12
8.74559e-12
8.6572e-12
8.569e-12
8.48099e-12
8.3932e-12
8.30563e-12
8.2183e-12
8.13122e-12
8.0444e-12
7.95786e-12
7.8716e-12
7.78565e-12
7.7e-12
7.61467e-12
7.52967e-12
7.44502e-12
7.36072e-12
7.27678e-12
7.19321e-12
7.11003e-12
7.02724e-12
6.94485e-12
6.86287e-12
6.78131e-12
6.70018e-12
6.61949e-12
6.53924e-12
6.45945e-12
6.38011e-12
6.30125e-12
6.22286e-12
6.14495e-12
6.06753e-12
5.99061e-12
5.91419e-12
5.83827e-12
5.76287e-12
5.688e-12
5.61364e-12
5.53982e-12
5.46654e-12
5.39379e-12
5.32159e-12
5.24994e-12
5.17885e-12
5.10831e-12
5.03833e-12
4.96892e-12
4.90008e-12
4.83182e-12
4.76412e-12
4.69701e-12
4.63048e-12
4.56453e-12
4.49916e-12
4.43439e-12
4.3702e-12
4.3066e-12
4.2436e-12
4.1812e-12
4.11939e-12
4.05817e-12
3.99756e-12
3.93754e-12
3.87812e-12
3.8193e-12
3.76108e-12
3.70346e-12
3.64645e-12
3.59003e-12
3.53421e-12
3.47899e-12
3.42437e-12
3.37034e-12
3.31692e-12
3.26409e-12
3.21185e-12
3.16021e-12
3.10916e-12
3.0587e-12
3.00883e-12
2.95954e-12
2.91085e-12
2.86273e-12
2.8152e-12
2.76825e-12
2.72187e-12
2.67607e-12
2.63084e-12
2.58618e-12
2.54209e-12
2.49856e-12
2.4556e-12
2.41319e-12
2.37134e-12
2.33004e-12
2.28929e-12
2.24909e-12
2.20943e-12
2.17032e-12
2.13173e-12
2.09368e-12
2.05616e-12
2.01917e-12
1.9827e-12
1.94675e-12
1.91131e-12
1.87639e-12
1.84197e-12
1.80805e-12
1.77464e-12
1.74172e-12
1.70929e-12
1.67735e-12
1.6459e-12
1.61492e-12
1.58442e-12
1.55439e-12
1.52483e-12
1.49573e-12
1.46709e-12
1.43891e-12
1.41118e-12
1.38389e-12
1.35704e-12
1.33064e-12
1.30467e-12
1.27912e-12
1.25401e-12
1.22931e-12
1.20503e-12
1.18116e-12
1.1577e-12
1.13465e-12
1.112e-12
1.08974e-12
1.06787e-12
1.04639e-12
1.02529e-12
1.00457e-12
9.8423e-13
9.64257e-13
9.44651e-13
9.25407e-13
9.06521e-13
8.8799e-13
8.69808e-13
8.51973e-13
8.3448e-13
8.17326e-13
8.00506e-13
7.84016e-13
7.67853e-13
7.52012e-13
7.36491e-13
7.21285e-13
7.0639e-13
6.91803e-13
6.77521e-13
6.63538e-13
6.49853e-13
6.36461e-13
6.23359e-13
6.10544e-13
5.98012e-13
5.85759e-13
5.73783e-13
5.6208e-13
5.50647e-13
5.3948e-13
5.28577e-13
5.17935e-13
5.0755e-13
4.9742e-13
4.87541e-13
4.7791e-13
4.68526e-13
4.59384e-13
4.50483e-13
4.41819e-13
4.3339e-13
4.25194e-13
4.17227e-13
4.09488e-13
4.01974e-13
3.94682e-13
3.87611e-13
3.80758e-13
3.7412e-13
3.67697e-13
3.61485e-13
3.55482e-13
3.49688e-13
3.44099e-13
3.38714e-13
3.33532e-13
3.28549e-13
3.23766e-13
3.1918e-13
3.14789e-13
3.10592e-13
3.06589e-13
3.02776e-13
2.99154e-13
2.9572e-13
2.92474e-13
2.89415e-13
2.86541e-13
2.83851e-13
2.81345e-13
2.79022e-13
2.7688e-13
2.7492e-13
2.7314e-13
2.7154e-13
2.70119e-13
2.68876e-13
2.67812e-13
2.66926e-13
2.66217e-13
2.65686e-13
2.65332e-13
2.65155e-13
2.47975e-13
7.4326e-13
1.2366e-12
1.7268e-12
2.21277e-12
2.69353e-12
3.16818e-12
3.63593e-12
4.09606e-12
4.54795e-12
4.99102e-12
5.42482e-12
5.84892e-12
6.26299e-12
6.66674e-12
7.05995e-12
7.44246e-12
7.81414e-12
8.17492e-12
8.52478e-12
8.86372e-12
9.19178e-12
9.50905e-12
9.81562e-12
1.01116e-11
1.03972e-11
1.06725e-11
1.09378e-11
1.11932e-11
1.14389e-11
1.16751e-11
1.19021e-11
1.21201e-11
1.23294e-11
1.253e-11
1.27224e-11
1.29066e-11
1.3083e-11
1.32518e-11
1.34132e-11
1.35674e-11
1.37146e-11
1.3855e-11
1.3989e-11
1.41165e-11
1.4238e-11
1.43534e-11
1.44631e-11
1.45673e-11
1.4666e-11
1.47594e-11
1.48478e-11
1.49313e-11
1.50099e-11
1.5084e-11
1.51536e-11
1.52188e-11
1.52798e-11
1.53367e-11
1.53896e-11
1.54386e-11
1.5484e-11
1.55256e-11
1.55637e-11
1.55984e-11
1.56298e-11
1.56578e-11
1.56827e-11
1.57045e-11
1.57234e-11
1.57392e-11
1.57523e-11
1.57625e-11
1.577e-11
1.57749e-11
1.57772e-11
1.57769e-11
1.57742e-11
1.57691e-11
1.57616e-11
1.57518e-11
1.57398e-11
1.57256e-11
1.57092e-11
1.56907e-11
1.56701e-11
1.56475e-11
1.5623e-11
1.55965e-11
1.55681e-11
1.55379e-11
1.55058e-11
1.5472e-11
1.54364e-11
1.53991e-11
1.53601e-11
1.53195e-11
1.52773e-11
1.52335e-11
1.51881e-11
1.51413e-11
1.50929e-11
1.50431e-11
1.49919e-11
1.49393e-11
1.48853e-11
1.483e-11
1.47734e-11
1.47155e-11
1.46563e-11
1.45959e-11
1.45344e-11
1.44716e-11
1.44077e-11
1.43427e-11
1.42766e-11
1.42094e-11
1.41411e-11
1.40719e-11
1.40017e-11
1.39304e-11
1.38583e-11
1.37852e-11
1.37112e-11
1.36364e-11
1.35606e-11
1.34841e-11
1.34068e-11
1.33287e-11
1.32498e-11
1.31702e-11
1.30899e-11
1.30089e-11
1.29272e-11
1.28449e-11
1.2762e-11
1.26785e-11
1.25944e-11
1.25097e-11
1.24245e-11
1.23388e-11
1.22526e-11
1.2166e-11
1.20789e-11
1.19913e-11
1.19034e-11
1.18151e-11
1.17264e-11
1.16373e-11
1.1548e-11
1.14583e-11
1.13684e-11
1.12781e-11
1.11877e-11
1.1097e-11
1.10061e-11
1.0915e-11
1.08238e-11
1.07323e-11
1.06408e-11
1.05492e-11
1.04574e-11
1.03656e-11
1.02737e-11
1.01817e-11
1.00898e-11
9.9978e-12
9.90583e-12
9.81389e-12
9.72198e-12
9.63013e-12
9.53835e-12
9.44666e-12
9.35506e-12
9.26359e-12
9.17225e-12
9.08105e-12
8.99002e-12
8.89916e-12
8.8085e-12
8.71803e-12
8.62779e-12
8.53778e-12
8.44801e-12
8.35849e-12
8.26925e-12
8.18029e-12
8.09162e-12
8.00326e-12
7.91522e-12
7.8275e-12
7.74013e-12
7.65311e-12
7.56645e-12
7.48017e-12
7.39427e-12
7.30876e-12
7.22366e-12
7.13896e-12
7.0547e-12
6.97086e-12
6.88746e-12
6.80451e-12
6.72202e-12
6.64e-12
6.55845e-12
6.47738e-12
6.39679e-12
6.31671e-12
6.23712e-12
6.15805e-12
6.07949e-12
6.00146e-12
5.92395e-12
5.84698e-12
5.77055e-12
5.69467e-12
5.61933e-12
5.54455e-12
5.47034e-12
5.39668e-12
5.3236e-12
5.25109e-12
5.17916e-12
5.10781e-12
5.03705e-12
4.96687e-12
4.89729e-12
4.8283e-12
4.7599e-12
4.69211e-12
4.62492e-12
4.55833e-12
4.49235e-12
4.42698e-12
4.36222e-12
4.29807e-12
4.23453e-12
4.1716e-12
4.10929e-12
4.0476e-12
3.98652e-12
3.92606e-12
3.86621e-12
3.80698e-12
3.74837e-12
3.69037e-12
3.63299e-12
3.57623e-12
3.52008e-12
3.46455e-12
3.40963e-12
3.35532e-12
3.30163e-12
3.24854e-12
3.19606e-12
3.14419e-12
3.09293e-12
3.04227e-12
2.99221e-12
2.94275e-12
2.89389e-12
2.84562e-12
2.79795e-12
2.75087e-12
2.70438e-12
2.65847e-12
2.61315e-12
2.5684e-12
2.52424e-12
2.48064e-12
2.43762e-12
2.39517e-12
2.35328e-12
2.31196e-12
2.27119e-12
2.23098e-12
2.19132e-12
2.15221e-12
2.11364e-12
2.07561e-12
2.03812e-12
2.00116e-12
1.96474e-12
1.92883e-12
1.89345e-12
1.85859e-12
1.82424e-12
1.7904e-12
1.75707e-12
1.72424e-12
1.6919e-12
1.66006e-12
1.62871e-12
1.59784e-12
1.56745e-12
1.53754e-12
1.5081e-12
1.47913e-12
1.45062e-12
1.42257e-12
1.39498e-12
1.36783e-12
1.34113e-12
1.31488e-12
1.28906e-12
1.26367e-12
1.23871e-12
1.21418e-12
1.19006e-12
1.16637e-12
1.14308e-12
1.1202e-12
1.09772e-12
1.07564e-12
1.05395e-12
1.03265e-12
1.01174e-12
9.9121e-13
9.71055e-13
9.51273e-13
9.3186e-13
9.1281e-13
8.94121e-13
8.75787e-13
8.57805e-13
8.40171e-13
8.22881e-13
8.0593e-13
7.89315e-13
7.73032e-13
7.57077e-13
7.41446e-13
7.26135e-13
7.1114e-13
6.96458e-13
6.82085e-13
6.68017e-13
6.54251e-13
6.40783e-13
6.2761e-13
6.14727e-13
6.02132e-13
5.89821e-13
5.77791e-13
5.66038e-13
5.5456e-13
5.43352e-13
5.32412e-13
5.21737e-13
5.11323e-13
5.01168e-13
4.91268e-13
4.81622e-13
4.72224e-13
4.63074e-13
4.54168e-13
4.45504e-13
4.37078e-13
4.28889e-13
4.20934e-13
4.13209e-13
4.05714e-13
3.98445e-13
3.914e-13
3.84577e-13
3.77974e-13
3.71589e-13
3.65419e-13
3.59462e-13
3.53717e-13
3.48182e-13
3.42854e-13
3.37733e-13
3.32816e-13
3.28101e-13
3.23588e-13
3.19274e-13
3.15158e-13
3.11239e-13
3.07516e-13
3.03986e-13
3.00649e-13
2.97504e-13
2.9455e-13
2.91785e-13
2.89209e-13
2.86821e-13
2.8462e-13
2.82604e-13
2.80775e-13
2.7913e-13
2.77669e-13
2.76392e-13
2.75298e-13
2.74387e-13
2.73658e-13
2.73112e-13
2.72749e-13
2.72567e-13
2.50253e-13
7.50159e-13
1.24829e-12
1.74351e-12
2.23479e-12
2.72116e-12
3.20173e-12
3.6757e-12
4.14235e-12
4.60102e-12
5.05116e-12
5.49225e-12
5.92386e-12
6.34563e-12
6.75724e-12
7.15845e-12
7.54907e-12
7.92894e-12
8.29798e-12
8.65612e-12
9.00336e-12
9.33971e-12
9.66522e-12
9.97998e-12
1.02841e-11
1.05777e-11
1.08609e-11
1.1134e-11
1.1397e-11
1.16502e-11
1.18938e-11
1.2128e-11
1.2353e-11
1.2569e-11
1.27763e-11
1.29751e-11
1.31656e-11
1.33481e-11
1.35227e-11
1.36897e-11
1.38494e-11
1.40019e-11
1.41474e-11
1.42862e-11
1.44184e-11
1.45443e-11
1.46641e-11
1.47779e-11
1.4886e-11
1.49885e-11
1.50855e-11
1.51773e-11
1.5264e-11
1.53458e-11
1.54228e-11
1.54951e-11
1.5563e-11
1.56265e-11
1.56857e-11
1.57408e-11
1.5792e-11
1.58392e-11
1.58827e-11
1.59225e-11
1.59588e-11
1.59916e-11
1.6021e-11
1.60472e-11
1.60701e-11
1.609e-11
1.61068e-11
1.61206e-11
1.61316e-11
1.61398e-11
1.61453e-11
1.6148e-11
1.61482e-11
1.61458e-11
1.61409e-11
1.61336e-11
1.61239e-11
1.61119e-11
1.60976e-11
1.60811e-11
1.60625e-11
1.60417e-11
1.60188e-11
1.59939e-11
1.5967e-11
1.59381e-11
1.59073e-11
1.58747e-11
1.58402e-11
1.58039e-11
1.57659e-11
1.57261e-11
1.56847e-11
1.56416e-11
1.55968e-11
1.55505e-11
1.55026e-11
1.54532e-11
1.54024e-11
1.535e-11
1.52962e-11
1.5241e-11
1.51845e-11
1.51266e-11
1.50673e-11
1.50068e-11
1.49451e-11
1.48821e-11
1.48179e-11
1.47525e-11
1.46859e-11
1.46183e-11
1.45495e-11
1.44797e-11
1.44088e-11
1.43369e-11
1.4264e-11
1.41902e-11
1.41154e-11
1.40396e-11
1.3963e-11
1.38855e-11
1.38072e-11
1.3728e-11
1.36481e-11
1.35673e-11
1.34858e-11
1.34036e-11
1.33207e-11
1.32371e-11
1.31528e-11
1.30679e-11
1.29824e-11
1.28963e-11
1.28096e-11
1.27224e-11
1.26346e-11
1.25464e-11
1.24576e-11
1.23685e-11
1.22788e-11
1.21888e-11
1.20983e-11
1.20075e-11
1.19164e-11
1.18249e-11
1.17331e-11
1.1641e-11
1.15486e-11
1.1456e-11
1.13631e-11
1.127e-11
1.11768e-11
1.10833e-11
1.09897e-11
1.0896e-11
1.08021e-11
1.07082e-11
1.06142e-11
1.05201e-11
1.04259e-11
1.03318e-11
1.02376e-11
1.01434e-11
1.00493e-11
9.95515e-12
9.86109e-12
9.76711e-12
9.67322e-12
9.57944e-12
9.48577e-12
9.39224e-12
9.29886e-12
9.20564e-12
9.11261e-12
9.01977e-12
8.92713e-12
8.83472e-12
8.74255e-12
8.65063e-12
8.55897e-12
8.46759e-12
8.37649e-12
8.2857e-12
8.19522e-12
8.10506e-12
8.01525e-12
7.92578e-12
7.83667e-12
7.74794e-12
7.65958e-12
7.57162e-12
7.48406e-12
7.39692e-12
7.3102e-12
7.22391e-12
7.13806e-12
7.05266e-12
6.96772e-12
6.88325e-12
6.79926e-12
6.71575e-12
6.63274e-12
6.55022e-12
6.46822e-12
6.38673e-12
6.30576e-12
6.22531e-12
6.14541e-12
6.06604e-12
5.98723e-12
5.90896e-12
5.83126e-12
5.75412e-12
5.67754e-12
5.60155e-12
5.52613e-12
5.45129e-12
5.37704e-12
5.30339e-12
5.23033e-12
5.15786e-12
5.08601e-12
5.01475e-12
4.94411e-12
4.87407e-12
4.80465e-12
4.73585e-12
4.66767e-12
4.60011e-12
4.53317e-12
4.46685e-12
4.40116e-12
4.3361e-12
4.27166e-12
4.20786e-12
4.14468e-12
4.08214e-12
4.02023e-12
3.95894e-12
3.8983e-12
3.83828e-12
3.77889e-12
3.72013e-12
3.66201e-12
3.60452e-12
3.54765e-12
3.49141e-12
3.4358e-12
3.38082e-12
3.32646e-12
3.27272e-12
3.21961e-12
3.16711e-12
3.11524e-12
3.06398e-12
3.01333e-12
2.9633e-12
2.91388e-12
2.86506e-12
2.81685e-12
2.76924e-12
2.72224e-12
2.67582e-12
2.63001e-12
2.58478e-12
2.54014e-12
2.49609e-12
2.45262e-12
2.40973e-12
2.36741e-12
2.32567e-12
2.28449e-12
2.24388e-12
2.20383e-12
2.16434e-12
2.1254e-12
2.08701e-12
2.04916e-12
2.01186e-12
1.9751e-12
1.93887e-12
1.90317e-12
1.868e-12
1.83335e-12
1.79921e-12
1.76559e-12
1.73248e-12
1.69988e-12
1.66777e-12
1.63616e-12
1.60505e-12
1.57442e-12
1.54427e-12
1.51461e-12
1.48541e-12
1.45669e-12
1.42844e-12
1.40064e-12
1.3733e-12
1.34642e-12
1.31998e-12
1.29398e-12
1.26842e-12
1.2433e-12
1.21861e-12
1.19434e-12
1.1705e-12
1.14707e-12
1.12405e-12
1.10144e-12
1.07923e-12
1.05742e-12
1.03601e-12
1.01498e-12
9.94347e-13
9.7409e-13
9.54211e-13
9.34705e-13
9.15567e-13
8.96794e-13
8.78381e-13
8.60324e-13
8.42618e-13
8.25261e-13
8.08248e-13
7.91574e-13
7.75236e-13
7.5923e-13
7.43552e-13
7.28197e-13
7.13163e-13
6.98446e-13
6.8404e-13
6.69944e-13
6.56153e-13
6.42663e-13
6.29472e-13
6.16575e-13
6.03968e-13
5.9165e-13
5.79615e-13
5.67861e-13
5.56385e-13
5.45182e-13
5.34251e-13
5.23588e-13
5.13189e-13
5.03052e-13
4.93174e-13
4.83551e-13
4.74182e-13
4.65062e-13
4.5619e-13
4.47562e-13
4.39177e-13
4.3103e-13
4.23121e-13
4.15445e-13
4.08002e-13
4.00788e-13
3.93802e-13
3.8704e-13
3.80502e-13
3.74184e-13
3.68084e-13
3.62201e-13
3.56533e-13
3.51078e-13
3.45834e-13
3.40798e-13
3.35971e-13
3.31349e-13
3.26932e-13
3.22718e-13
3.18705e-13
3.14892e-13
3.11278e-13
3.07861e-13
3.0464e-13
3.01615e-13
2.98784e-13
2.96146e-13
2.93701e-13
2.91447e-13
2.89383e-13
2.87509e-13
2.85825e-13
2.84329e-13
2.83021e-13
2.81901e-13
2.80968e-13
2.80222e-13
2.79663e-13
2.79291e-13
2.79104e-13
2.52299e-13
7.56339e-13
1.25872e-12
1.75837e-12
2.25429e-12
2.74553e-12
3.23121e-12
3.71055e-12
4.1828e-12
4.64732e-12
5.10351e-12
5.55086e-12
5.98892e-12
6.41729e-12
6.83564e-12
7.24372e-12
7.64129e-12
8.02819e-12
8.40431e-12
8.76956e-12
9.12391e-12
9.46737e-12
9.79996e-12
1.01218e-11
1.04328e-11
1.07333e-11
1.10234e-11
1.13031e-11
1.15727e-11
1.18324e-11
1.20823e-11
1.23227e-11
1.25537e-11
1.27756e-11
1.29886e-11
1.3193e-11
1.33889e-11
1.35766e-11
1.37562e-11
1.39281e-11
1.40925e-11
1.42495e-11
1.43994e-11
1.45424e-11
1.46787e-11
1.48085e-11
1.4932e-11
1.50494e-11
1.51609e-11
1.52666e-11
1.53667e-11
1.54615e-11
1.5551e-11
1.56355e-11
1.5715e-11
1.57898e-11
1.58599e-11
1.59255e-11
1.59868e-11
1.60438e-11
1.60968e-11
1.61457e-11
1.61908e-11
1.62321e-11
1.62697e-11
1.63038e-11
1.63344e-11
1.63616e-11
1.63856e-11
1.64063e-11
1.64239e-11
1.64385e-11
1.64502e-11
1.64589e-11
1.64649e-11
1.64681e-11
1.64686e-11
1.64665e-11
1.64618e-11
1.64547e-11
1.64451e-11
1.64331e-11
1.64188e-11
1.64022e-11
1.63834e-11
1.63624e-11
1.63392e-11
1.6314e-11
1.62867e-11
1.62575e-11
1.62262e-11
1.61931e-11
1.6158e-11
1.61212e-11
1.60825e-11
1.6042e-11
1.59999e-11
1.5956e-11
1.59105e-11
1.58633e-11
1.58146e-11
1.57643e-11
1.57124e-11
1.56591e-11
1.56043e-11
1.55481e-11
1.54904e-11
1.54314e-11
1.5371e-11
1.53094e-11
1.52464e-11
1.51822e-11
1.51167e-11
1.50501e-11
1.49822e-11
1.49132e-11
1.48431e-11
1.47719e-11
1.46996e-11
1.46263e-11
1.4552e-11
1.44767e-11
1.44004e-11
1.43231e-11
1.4245e-11
1.41659e-11
1.4086e-11
1.40053e-11
1.39237e-11
1.38414e-11
1.37582e-11
1.36744e-11
1.35898e-11
1.35045e-11
1.34185e-11
1.33319e-11
1.32447e-11
1.31569e-11
1.30684e-11
1.29795e-11
1.289e-11
1.27999e-11
1.27094e-11
1.26184e-11
1.2527e-11
1.24351e-11
1.23429e-11
1.22502e-11
1.21572e-11
1.20639e-11
1.19702e-11
1.18763e-11
1.1782e-11
1.16875e-11
1.15928e-11
1.14978e-11
1.14027e-11
1.13074e-11
1.12119e-11
1.11163e-11
1.10205e-11
1.09247e-11
1.08287e-11
1.07327e-11
1.06367e-11
1.05406e-11
1.04446e-11
1.03485e-11
1.02524e-11
1.01564e-11
1.00605e-11
9.96458e-12
9.86879e-12
9.77311e-12
9.67755e-12
9.58213e-12
9.48686e-12
9.39176e-12
9.29685e-12
9.20213e-12
9.10762e-12
9.01335e-12
8.91931e-12
8.82553e-12
8.73202e-12
8.63879e-12
8.54585e-12
8.45322e-12
8.36091e-12
8.26894e-12
8.17731e-12
8.08603e-12
7.99512e-12
7.90459e-12
7.81445e-12
7.72471e-12
7.63538e-12
7.54648e-12
7.458e-12
7.36997e-12
7.28238e-12
7.19526e-12
7.1086e-12
7.02243e-12
6.93674e-12
6.85154e-12
6.76685e-12
6.68266e-12
6.599e-12
6.51586e-12
6.43325e-12
6.35119e-12
6.26966e-12
6.18869e-12
6.10828e-12
6.02844e-12
5.94916e-12
5.87046e-12
5.79234e-12
5.71481e-12
5.63786e-12
5.56151e-12
5.48576e-12
5.41062e-12
5.33608e-12
5.26215e-12
5.18884e-12
5.11615e-12
5.04407e-12
4.97262e-12
4.9018e-12
4.83161e-12
4.76205e-12
4.69312e-12
4.62482e-12
4.55717e-12
4.49015e-12
4.42377e-12
4.35803e-12
4.29294e-12
4.22849e-12
4.16468e-12
4.10151e-12
4.03899e-12
3.97712e-12
3.91588e-12
3.8553e-12
3.79535e-12
3.73605e-12
3.6774e-12
3.61938e-12
3.56201e-12
3.50527e-12
3.44918e-12
3.39372e-12
3.33889e-12
3.28471e-12
3.23115e-12
3.17823e-12
3.12593e-12
3.07426e-12
3.02322e-12
2.97279e-12
2.92299e-12
2.87381e-12
2.82524e-12
2.77728e-12
2.72993e-12
2.68318e-12
2.63704e-12
2.5915e-12
2.54656e-12
2.50221e-12
2.45845e-12
2.41528e-12
2.37269e-12
2.33068e-12
2.28925e-12
2.24839e-12
2.2081e-12
2.16837e-12
2.1292e-12
2.0906e-12
2.05254e-12
2.01503e-12
1.97807e-12
1.94165e-12
1.90577e-12
1.87041e-12
1.83559e-12
1.80129e-12
1.76751e-12
1.73425e-12
1.70149e-12
1.66925e-12
1.6375e-12
1.60625e-12
1.5755e-12
1.54523e-12
1.51545e-12
1.48615e-12
1.45732e-12
1.42896e-12
1.40107e-12
1.37364e-12
1.34667e-12
1.32014e-12
1.29407e-12
1.26844e-12
1.24325e-12
1.21849e-12
1.19416e-12
1.17026e-12
1.14677e-12
1.12371e-12
1.10105e-12
1.0788e-12
1.05696e-12
1.03551e-12
1.01445e-12
9.93786e-13
9.73505e-13
9.53604e-13
9.34079e-13
9.14926e-13
8.96141e-13
8.77719e-13
8.59656e-13
8.41947e-13
8.2459e-13
8.07579e-13
7.90911e-13
7.74581e-13
7.58586e-13
7.42921e-13
7.27583e-13
7.12568e-13
6.97871e-13
6.8349e-13
6.6942e-13
6.55658e-13
6.42199e-13
6.29041e-13
6.1618e-13
6.03613e-13
5.91335e-13
5.79343e-13
5.67634e-13
5.56206e-13
5.45053e-13
5.34174e-13
5.23565e-13
5.13223e-13
5.03145e-13
4.93328e-13
4.83769e-13
4.74465e-13
4.65414e-13
4.56612e-13
4.48056e-13
4.39745e-13
4.31676e-13
4.23845e-13
4.16252e-13
4.08892e-13
4.01764e-13
3.94866e-13
3.88195e-13
3.81749e-13
3.75527e-13
3.69525e-13
3.63742e-13
3.58176e-13
3.52826e-13
3.47689e-13
3.42764e-13
3.38049e-13
3.33542e-13
3.29243e-13
3.25149e-13
3.21259e-13
3.17571e-13
3.14086e-13
3.108e-13
3.07714e-13
3.04825e-13
3.02134e-13
2.99639e-13
2.97339e-13
2.95234e-13
2.93322e-13
2.91604e-13
2.90078e-13
2.88743e-13
2.87601e-13
2.86649e-13
2.85888e-13
2.85318e-13
2.84938e-13
2.84748e-13
2.54064e-13
7.61663e-13
1.26768e-12
1.7711e-12
2.27095e-12
2.7663e-12
3.25629e-12
3.74012e-12
4.21707e-12
4.68647e-12
5.14772e-12
5.60029e-12
6.04371e-12
6.47759e-12
6.90156e-12
7.31536e-12
7.71872e-12
8.11149e-12
8.49351e-12
8.86469e-12
9.22499e-12
9.57437e-12
9.91288e-12
1.02405e-11
1.05575e-11
1.08637e-11
1.11594e-11
1.14448e-11
1.17199e-11
1.1985e-11
1.22402e-11
1.24857e-11
1.27218e-11
1.29486e-11
1.31664e-11
1.33754e-11
1.35758e-11
1.37679e-11
1.39518e-11
1.41278e-11
1.42961e-11
1.44569e-11
1.46105e-11
1.4757e-11
1.48967e-11
1.50298e-11
1.51564e-11
1.52768e-11
1.53911e-11
1.54995e-11
1.56023e-11
1.56995e-11
1.57914e-11
1.58781e-11
1.59598e-11
1.60366e-11
1.61086e-11
1.61761e-11
1.62391e-11
1.62977e-11
1.63522e-11
1.64025e-11
1.64489e-11
1.64915e-11
1.65302e-11
1.65654e-11
1.6597e-11
1.66251e-11
1.66499e-11
1.66714e-11
1.66897e-11
1.67049e-11
1.67171e-11
1.67264e-11
1.67327e-11
1.67363e-11
1.67371e-11
1.67352e-11
1.67308e-11
1.67237e-11
1.67142e-11
1.67023e-11
1.66879e-11
1.66713e-11
1.66523e-11
1.66311e-11
1.66078e-11
1.65823e-11
1.65547e-11
1.65251e-11
1.64935e-11
1.64599e-11
1.64244e-11
1.63871e-11
1.63479e-11
1.63069e-11
1.62641e-11
1.62196e-11
1.61734e-11
1.61255e-11
1.6076e-11
1.6025e-11
1.59723e-11
1.59182e-11
1.58625e-11
1.58054e-11
1.57469e-11
1.56869e-11
1.56256e-11
1.5563e-11
1.5499e-11
1.54338e-11
1.53672e-11
1.52995e-11
1.52306e-11
1.51605e-11
1.50892e-11
1.50169e-11
1.49434e-11
1.48689e-11
1.47934e-11
1.47168e-11
1.46393e-11
1.45608e-11
1.44814e-11
1.4401e-11
1.43198e-11
1.42377e-11
1.41548e-11
1.40711e-11
1.39866e-11
1.39014e-11
1.38154e-11
1.37287e-11
1.36413e-11
1.35533e-11
1.34646e-11
1.33753e-11
1.32854e-11
1.3195e-11
1.3104e-11
1.30125e-11
1.29205e-11
1.2828e-11
1.2735e-11
1.26417e-11
1.25479e-11
1.24537e-11
1.23591e-11
1.22643e-11
1.2169e-11
1.20735e-11
1.19777e-11
1.18817e-11
1.17854e-11
1.16888e-11
1.15921e-11
1.14952e-11
1.13981e-11
1.13009e-11
1.12036e-11
1.11061e-11
1.10086e-11
1.0911e-11
1.08134e-11
1.07157e-11
1.06181e-11
1.05204e-11
1.04227e-11
1.03251e-11
1.02276e-11
1.01301e-11
1.00327e-11
9.93547e-12
9.83832e-12
9.74131e-12
9.64446e-12
9.54778e-12
9.45129e-12
9.355e-12
9.25893e-12
9.16309e-12
9.06749e-12
8.97215e-12
8.87708e-12
8.7823e-12
8.68782e-12
8.59366e-12
8.49982e-12
8.40631e-12
8.31316e-12
8.22036e-12
8.12795e-12
8.03591e-12
7.94427e-12
7.85304e-12
7.76223e-12
7.67185e-12
7.5819e-12
7.49241e-12
7.40337e-12
7.3148e-12
7.2267e-12
7.13909e-12
7.05198e-12
6.96537e-12
6.87927e-12
6.79369e-12
6.70863e-12
6.62411e-12
6.54013e-12
6.4567e-12
6.37383e-12
6.29151e-12
6.20976e-12
6.12859e-12
6.048e-12
5.96799e-12
5.88857e-12
5.80975e-12
5.73153e-12
5.65391e-12
5.5769e-12
5.50051e-12
5.42473e-12
5.34958e-12
5.27505e-12
5.20114e-12
5.12787e-12
5.05524e-12
4.98324e-12
4.91188e-12
4.84116e-12
4.77109e-12
4.70166e-12
4.63288e-12
4.56475e-12
4.49726e-12
4.43044e-12
4.36426e-12
4.29874e-12
4.23387e-12
4.16965e-12
4.10609e-12
4.04319e-12
3.98094e-12
3.91935e-12
3.85841e-12
3.79812e-12
3.73849e-12
3.67951e-12
3.62118e-12
3.56351e-12
3.50648e-12
3.4501e-12
3.39437e-12
3.33928e-12
3.28483e-12
3.23103e-12
3.17786e-12
3.12534e-12
3.07344e-12
3.02218e-12
2.97155e-12
2.92155e-12
2.87217e-12
2.82342e-12
2.77528e-12
2.72776e-12
2.68086e-12
2.63456e-12
2.58887e-12
2.54378e-12
2.4993e-12
2.45541e-12
2.41211e-12
2.3694e-12
2.32728e-12
2.28574e-12
2.24478e-12
2.20439e-12
2.16458e-12
2.12533e-12
2.08664e-12
2.04851e-12
2.01093e-12
1.97391e-12
1.93743e-12
1.90149e-12
1.86609e-12
1.83122e-12
1.79688e-12
1.76306e-12
1.72976e-12
1.69698e-12
1.66471e-12
1.63294e-12
1.60167e-12
1.5709e-12
1.54063e-12
1.51084e-12
1.48153e-12
1.4527e-12
1.42435e-12
1.39646e-12
1.36904e-12
1.34208e-12
1.31557e-12
1.28951e-12
1.2639e-12
1.23873e-12
1.214e-12
1.1897e-12
1.16583e-12
1.14238e-12
1.11934e-12
1.09673e-12
1.07452e-12
1.05271e-12
1.03131e-12
1.0103e-12
9.89678e-13
9.69447e-13
9.49598e-13
9.30126e-13
9.11029e-13
8.92301e-13
8.73938e-13
8.55935e-13
8.38289e-13
8.20996e-13
8.04051e-13
7.8745e-13
7.71189e-13
7.55264e-13
7.39671e-13
7.24406e-13
7.09465e-13
6.94845e-13
6.80541e-13
6.66551e-13
6.52869e-13
6.39492e-13
6.26417e-13
6.13641e-13
6.01159e-13
5.88968e-13
5.77065e-13
5.65446e-13
5.54109e-13
5.43049e-13
5.32264e-13
5.2175e-13
5.11504e-13
5.01524e-13
4.91806e-13
4.82348e-13
4.73146e-13
4.64198e-13
4.555e-13
4.47051e-13
4.38848e-13
4.30887e-13
4.23167e-13
4.15685e-13
4.08439e-13
4.01426e-13
3.94644e-13
3.88092e-13
3.81765e-13
3.75664e-13
3.69785e-13
3.64127e-13
3.58688e-13
3.53466e-13
3.48459e-13
3.43665e-13
3.39084e-13
3.34713e-13
3.30551e-13
3.26596e-13
3.22847e-13
3.19304e-13
3.15964e-13
3.12826e-13
3.0989e-13
3.07154e-13
3.04617e-13
3.02279e-13
3.00139e-13
2.98196e-13
2.96448e-13
2.94897e-13
2.93541e-13
2.92379e-13
2.91411e-13
2.90638e-13
2.90058e-13
2.89672e-13
2.89478e-13
2.55513e-13
7.66029e-13
1.27503e-12
1.78151e-12
2.28455e-12
2.78322e-12
3.27667e-12
3.76412e-12
4.24484e-12
4.71815e-12
5.18345e-12
5.6402e-12
6.08793e-12
6.52621e-12
6.95468e-12
7.37305e-12
7.78106e-12
8.17852e-12
8.56526e-12
8.9412e-12
9.30624e-12
9.66039e-12
1.00036e-11
1.0336e-11
1.06576e-11
1.09684e-11
1.12687e-11
1.15586e-11
1.18381e-11
1.21075e-11
1.23669e-11
1.26166e-11
1.28568e-11
1.30875e-11
1.33092e-11
1.35219e-11
1.3726e-11
1.39215e-11
1.41088e-11
1.42881e-11
1.44596e-11
1.46235e-11
1.478e-11
1.49294e-11
1.50718e-11
1.52075e-11
1.53366e-11
1.54594e-11
1.5576e-11
1.56867e-11
1.57916e-11
1.58908e-11
1.59846e-11
1.60731e-11
1.61565e-11
1.62349e-11
1.63085e-11
1.63774e-11
1.64418e-11
1.65017e-11
1.65574e-11
1.66089e-11
1.66564e-11
1.66999e-11
1.67396e-11
1.67756e-11
1.6808e-11
1.68369e-11