/*--------------------------------*- C++ -*----------------------------------*\
  =========                 |
  \\      /  F ield         | OpenFOAM: The Open Source CFD Toolbox
   \\    /   O peration     | Website:  https://openfoam.org
    \\  /    A nd           | Version:  10
     \\/     M anipulation  |
\*---------------------------------------------------------------------------*/
FoamFile
{
    format      ascii;
    class       volScalarField;
    location    "0.4";
    object      beta;
}
// * * * * * * * * * * * * * * * * * * * * * * * * * * * * * * * * * * * * * //

dimensions      [0 0 0 0 0 0 0];

internalField   uniform 0;

boundaryField
{
    frontAndBack
    {
        type            empty;
    }
    inlet
    {
        type            calculated;
        value           uniform 0;
    }
    outlet
    {
        type            calculated;
        value           uniform 0;
    }
    substrate
    {
        type            calculated;
        value           nonuniform List<scalar> 
400
(
0.00265327
0.00287575
0.00308653
0.00329102
0.00349175
0.00368999
0.00388634
0.00408105
0.00427413
0.00446549
0.00465495
0.00484227
0.0050272
0.00520948
0.00538885
0.00556504
0.00573783
0.00590699
0.00607233
0.00623367
0.00639087
0.0065438
0.00669236
0.00683647
0.00697609
0.00711117
0.00724172
0.00736772
0.00748922
0.00760623
0.00771883
0.00782706
0.00793101
0.00803075
0.00812639
0.00821801
0.00830573
0.00838964
0.00846986
0.00854651
0.0086197
0.00868955
0.00875617
0.00881968
0.00888021
0.00893785
0.00899273
0.00904495
0.00909463
0.00914188
0.00918679
0.00922947
0.00927001
0.00930852
0.00934508
0.00937979
0.00941273
0.00944398
0.00947362
0.00950173
0.00952838
0.00955365
0.0095776
0.0096003
0.0096218
0.00964218
0.00966148
0.00967976
0.00969707
0.00971346
0.00972898
0.00974367
0.00975758
0.00977074
0.0097832
0.00979499
0.00980615
0.0098167
0.00982669
0.00983614
0.00984508
0.00985353
0.00986153
0.00986909
0.00987625
0.00988301
0.00988941
0.00989546
0.00990118
0.00990659
0.00991171
0.00991655
0.00992112
0.00992544
0.00992953
0.0099334
0.00993705
0.0099405
0.00994377
0.00994686
0.00994977
0.00995253
0.00995514
0.0099576
0.00995993
0.00996213
0.00996421
0.00996618
0.00996804
0.0099698
0.00997146
0.00997303
0.00997451
0.00997591
0.00997724
0.00997849
0.00997967
0.00998079
0.00998185
0.00998285
0.00998379
0.00998468
0.00998553
0.00998632
0.00998708
0.00998779
0.00998846
0.0099891
0.0099897
0.00999026
0.0099908
0.00999131
0.00999179
0.00999224
0.00999267
0.00999307
0.00999345
0.00999381
0.00999415
0.00999448
0.00999478
0.00999507
0.00999534
0.0099956
0.00999584
0.00999607
0.00999629
0.00999649
0.00999669
0.00999687
0.00999704
0.0099972
0.00999736
0.0099975
0.00999764
0.00999777
0.0099979
0.00999801
0.00999812
0.00999823
0.00999832
0.00999842
0.0099985
0.00999859
0.00999866
0.00999874
0.00999881
0.00999887
0.00999894
0.00999899
0.00999905
0.0099991
0.00999915
0.0099992
0.00999924
0.00999929
0.00999933
0.00999936
0.0099994
0.00999943
0.00999946
0.00999949
0.00999952
0.00999955
0.00999957
0.0099996
0.00999962
0.00999964
0.00999966
0.00999968
0.0099997
0.00999971
0.00999973
0.00999974
0.00999976
0.00999977
0.00999978
0.0099998
0.00999981
0.00999982
0.00999983
0.00999984
0.00999985
0.00999986
0.00999986
0.00999987
0.00999988
0.00999989
0.00999989
0.0099999
0.0099999
0.00999991
0.00999991
0.00999992
0.00999992
0.00999993
0.00999993
0.00999994
0.00999994
0.00999994
0.00999995
0.00999995
0.00999995
0.00999995
0.00999996
0.00999996
0.00999996
0.00999996
0.00999997
0.00999997
0.00999997
0.00999997
0.00999997
0.00999997
0.00999998
0.00999998
0.00999998
0.00999998
0.00999998
0.00999998
0.00999998
0.00999998
0.00999998
0.00999999
0.00999999
0.00999999
0.00999999
0.00999999
0.00999999
0.00999999
0.00999999
0.00999999
0.00999999
0.00999999
0.00999999
0.00999999
0.00999999
0.00999999
0.00999999
0.00999999
0.00999999
0.01
0.01
0.01
0.01
0.01
0.01
0.01
0.01
0.01
0.01
0.01
0.01
0.01
0.01
0.01
0.01
0.01
0.01
0.01
0.01
0.01
0.01
0.01
0.01
0.01
0.01
0.01
0.01
0.01
0.01
0.01
0.01
0.01
0.01
0.01
0.01
0.01
0.01
0.01
0.01
0.01
0.01
0.01
0.01
0.01
0.01
0.01
0.01
0.01
0.01
0.01
0.01
0.01
0.01
0.01
0.01
0.01
0.01
0.01
0.01
0.01
0.01
0.01
0.01
0.01
0.01
0.01
0.01
0.01
0.01
0.01
0.01
0.01
0.01
0.01
0.01
0.01
0.01
0.01
0.01
0.01
0.01
0.01
0.01
0.01
0.01
0.01
0.01
0.01
0.01
0.01
0.01
0.01
0.01
0.01
0.01
0.01
0.01
0.01
0.01
0.01
0.01
0.01
0.01
0.01
0.01
0.01
0.01
0.01
0.01
0.01
0.01
0.01
0.01
0.01
0.01
0.01
0.01
0.01
0.01
0.01
0.01
0.01
0.01
0.01
0.01
0.01
0.01
0.01
0.01
0.01
0.01
0.01
0.01
0.01
0.01
0.01
0.01
0.01
)
;
    }
    Wall
    {
        type            calculated;
        value           nonuniform List<scalar> 
400
(
0.00265328
0.00287576
0.00308653
0.00329101
0.00349175
0.00368999
0.00388635
0.00408105
0.00427413
0.00446549
0.00465495
0.00484227
0.0050272
0.00520947
0.00538884
0.00556503
0.00573781
0.00590697
0.00607231
0.00623364
0.00639084
0.00654376
0.00669232
0.00683643
0.00697605
0.00711113
0.00724167
0.00736768
0.00748917
0.00760619
0.00771878
0.00782701
0.00793096
0.0080307
0.00812634
0.00821796
0.00830568
0.00838959
0.00846981
0.00854646
0.00861965
0.0086895
0.00875612
0.00881964
0.00888016
0.0089378
0.00899268
0.00904491
0.00909459
0.00914184
0.00918675
0.00922943
0.00926998
0.00930849
0.00934505
0.00937976
0.0094127
0.00944395
0.00947359
0.0095017
0.00952836
0.00955363
0.00957758
0.00960028
0.00962178
0.00964216
0.00966146
0.00967974
0.00969705
0.00971344
0.00972897
0.00974366
0.00975757
0.00977073
0.00978319
0.00979498
0.00980614
0.00981669
0.00982668
0.00983613
0.00984507
0.00985352
0.00986152
0.00986909
0.00987624
0.00988301
0.00988941
0.00989546
0.00990118
0.00990659
0.00991171
0.00991654
0.00992112
0.00992544
0.00992953
0.00993339
0.00993705
0.0099405
0.00994377
0.00994685
0.00994977
0.00995253
0.00995514
0.0099576
0.00995993
0.00996213
0.00996421
0.00996618
0.00996804
0.0099698
0.00997146
0.00997303
0.00997451
0.00997591
0.00997724
0.00997849
0.00997967
0.00998079
0.00998185
0.00998285
0.00998379
0.00998468
0.00998553
0.00998632
0.00998708
0.00998779
0.00998846
0.0099891
0.0099897
0.00999026
0.0099908
0.00999131
0.00999179
0.00999224
0.00999267
0.00999307
0.00999345
0.00999381
0.00999415
0.00999448
0.00999478
0.00999507
0.00999534
0.0099956
0.00999584
0.00999607
0.00999629
0.00999649
0.00999669
0.00999687
0.00999704
0.0099972
0.00999736
0.0099975
0.00999764
0.00999777
0.0099979
0.00999801
0.00999812
0.00999823
0.00999832
0.00999842
0.0099985
0.00999859
0.00999866
0.00999874
0.00999881
0.00999887
0.00999894
0.00999899
0.00999905
0.0099991
0.00999915
0.0099992
0.00999924
0.00999929
0.00999933
0.00999936
0.0099994
0.00999943
0.00999946
0.00999949
0.00999952
0.00999955
0.00999957
0.0099996
0.00999962
0.00999964
0.00999966
0.00999968
0.0099997
0.00999971
0.00999973
0.00999974
0.00999976
0.00999977
0.00999978
0.0099998
0.00999981
0.00999982
0.00999983
0.00999984
0.00999985
0.00999986
0.00999986
0.00999987
0.00999988
0.00999989
0.00999989
0.0099999
0.0099999
0.00999991
0.00999991
0.00999992
0.00999992
0.00999993
0.00999993
0.00999994
0.00999994
0.00999994
0.00999995
0.00999995
0.00999995
0.00999995
0.00999996
0.00999996
0.00999996
0.00999996
0.00999997
0.00999997
0.00999997
0.00999997
0.00999997
0.00999997
0.00999998
0.00999998
0.00999998
0.00999998
0.00999998
0.00999998
0.00999998
0.00999998
0.00999998
0.00999999
0.00999999
0.00999999
0.00999999
0.00999999
0.00999999
0.00999999
0.00999999
0.00999999
0.00999999
0.00999999
0.00999999
0.00999999
0.00999999
0.00999999
0.00999999
0.00999999
0.00999999
0.01
0.01
0.01
0.01
0.01
0.01
0.01
0.01
0.01
0.01
0.01
0.01
0.01
0.01
0.01
0.01
0.01
0.01
0.01
0.01
0.01
0.01
0.01
0.01
0.01
0.01
0.01
0.01
0.01
0.01
0.01
0.01
0.01
0.01
0.01
0.01
0.01
0.01
0.01
0.01
0.01
0.01
0.01
0.01
0.01
0.01
0.01
0.01
0.01
0.01
0.01
0.01
0.01
0.01
0.01
0.01
0.01
0.01
0.01
0.01
0.01
0.01
0.01
0.01
0.01
0.01
0.01
0.01
0.01
0.01
0.01
0.01
0.01
0.01
0.01
0.01
0.01
0.01
0.01
0.01
0.01
0.01
0.01
0.01
0.01
0.01
0.01
0.01
0.01
0.01
0.01
0.01
0.01
0.01
0.01
0.01
0.01
0.01
0.01
0.01
0.01
0.01
0.01
0.01
0.01
0.01
0.01
0.01
0.01
0.01
0.01
0.01
0.01
0.01
0.01
0.01
0.01
0.01
0.01
0.01
0.01
0.01
0.01
0.01
0.01
0.01
0.01
0.01
0.01
0.01
0.01
0.01
0.01
0.01
0.01
0.01
0.01
0.01
0.01
)
;
    }
}


// ************************************************************************* //
