/*--------------------------------*- C++ -*----------------------------------*\
  =========                 |
  \\      /  F ield         | OpenFOAM: The Open Source CFD Toolbox
   \\    /   O peration     | Website:  https://openfoam.org
    \\  /    A nd           | Version:  10
     \\/     M anipulation  |
\*---------------------------------------------------------------------------*/
FoamFile
{
    format      ascii;
    class       volScalarField;
    location    "0.4";
    object      N1;
}
// * * * * * * * * * * * * * * * * * * * * * * * * * * * * * * * * * * * * * //

dimensions      [0 0 0 0 0 0 0];

internalField   nonuniform List<scalar> 
8000
(
1.86242e-07
5.57933e-07
9.27527e-07
1.29394e-06
1.65625e-06
2.01363e-06
2.36533e-06
2.71073e-06
3.04924e-06
3.38037e-06
3.70368e-06
4.0188e-06
4.32543e-06
4.6233e-06
4.91222e-06
5.19201e-06
5.46258e-06
5.72384e-06
5.97576e-06
6.21834e-06
6.4516e-06
6.6756e-06
6.89041e-06
7.09613e-06
7.29287e-06
7.48076e-06
7.65994e-06
7.83058e-06
7.99282e-06
8.14684e-06
8.29282e-06
8.43094e-06
8.56137e-06
8.6843e-06
8.79992e-06
8.90841e-06
9.00996e-06
9.10474e-06
9.19294e-06
9.27474e-06
9.35032e-06
9.41983e-06
9.48347e-06
9.54138e-06
9.59374e-06
9.6407e-06
9.68242e-06
9.71905e-06
9.75073e-06
9.77762e-06
9.79984e-06
9.81754e-06
9.83086e-06
9.83991e-06
9.84482e-06
9.84573e-06
9.84274e-06
9.83598e-06
9.82555e-06
9.81157e-06
9.79415e-06
9.77339e-06
9.74939e-06
9.72226e-06
9.69209e-06
9.65897e-06
9.62301e-06
9.58429e-06
9.54291e-06
9.49894e-06
9.45248e-06
9.40361e-06
9.35241e-06
9.29896e-06
9.24335e-06
9.18565e-06
9.12594e-06
9.06429e-06
9.00077e-06
8.93547e-06
8.86845e-06
8.79977e-06
8.72952e-06
8.65776e-06
8.58455e-06
8.50996e-06
8.43406e-06
8.35691e-06
8.27857e-06
8.1991e-06
8.11858e-06
8.03704e-06
7.95456e-06
7.87119e-06
7.78699e-06
7.70202e-06
7.61633e-06
7.52997e-06
7.44301e-06
7.35548e-06
7.26745e-06
7.17896e-06
7.09006e-06
7.0008e-06
6.91124e-06
6.82141e-06
6.73137e-06
6.64116e-06
6.55082e-06
6.46039e-06
6.36992e-06
6.27946e-06
6.18903e-06
6.09869e-06
6.00846e-06
5.9184e-06
5.82852e-06
5.73888e-06
5.6495e-06
5.56042e-06
5.47167e-06
5.38328e-06
5.29529e-06
5.20773e-06
5.12062e-06
5.03399e-06
4.94787e-06
4.86229e-06
4.77727e-06
4.69284e-06
4.60902e-06
4.52583e-06
4.4433e-06
4.36144e-06
4.28028e-06
4.19983e-06
4.12012e-06
4.04116e-06
3.96297e-06
3.88556e-06
3.80895e-06
3.73315e-06
3.65818e-06
3.58404e-06
3.51075e-06
3.43832e-06
3.36677e-06
3.29609e-06
3.2263e-06
3.1574e-06
3.08941e-06
3.02233e-06
2.95616e-06
2.8909e-06
2.82658e-06
2.76317e-06
2.7007e-06
2.63916e-06
2.57856e-06
2.51888e-06
2.46015e-06
2.40234e-06
2.34548e-06
2.28954e-06
2.23454e-06
2.18047e-06
2.12732e-06
2.07509e-06
2.02379e-06
1.9734e-06
1.92392e-06
1.87535e-06
1.82768e-06
1.7809e-06
1.73502e-06
1.69001e-06
1.64588e-06
1.60263e-06
1.56023e-06
1.51868e-06
1.47799e-06
1.43813e-06
1.3991e-06
1.36089e-06
1.32349e-06
1.2869e-06
1.25109e-06
1.21608e-06
1.18183e-06
1.14836e-06
1.11563e-06
1.08365e-06
1.05241e-06
1.02189e-06
9.92082e-07
9.62979e-07
9.34569e-07
9.06841e-07
8.79785e-07
8.53389e-07
8.27644e-07
8.02538e-07
7.78062e-07
7.54203e-07
7.30951e-07
7.08295e-07
6.86226e-07
6.64731e-07
6.438e-07
6.23424e-07
6.0359e-07
5.84289e-07
5.65509e-07
5.47241e-07
5.29475e-07
5.12199e-07
4.95404e-07
4.7908e-07
4.63216e-07
4.47803e-07
4.3283e-07
4.18289e-07
4.04169e-07
3.90461e-07
3.77156e-07
3.64243e-07
3.51715e-07
3.39561e-07
3.27774e-07
3.16344e-07
3.05262e-07
2.9452e-07
2.8411e-07
2.74022e-07
2.6425e-07
2.54785e-07
2.45619e-07
2.36744e-07
2.28153e-07
2.19837e-07
2.11791e-07
2.04006e-07
1.96476e-07
1.89193e-07
1.82151e-07
1.75342e-07
1.68762e-07
1.62402e-07
1.56257e-07
1.5032e-07
1.44586e-07
1.39048e-07
1.33701e-07
1.2854e-07
1.23558e-07
1.1875e-07
1.14112e-07
1.09637e-07
1.05321e-07
1.01159e-07
9.71468e-08
9.32787e-08
8.95506e-08
8.59581e-08
8.24968e-08
7.91625e-08
7.59512e-08
7.28588e-08
6.98815e-08
6.70155e-08
6.42571e-08
6.16027e-08
5.90489e-08
5.65922e-08
5.42294e-08
5.19573e-08
4.97727e-08
4.76728e-08
4.56544e-08
4.37148e-08
4.18513e-08
4.00611e-08
3.83417e-08
3.66905e-08
3.51051e-08
3.35832e-08
3.21224e-08
3.07205e-08
2.93753e-08
2.80849e-08
2.68471e-08
2.56601e-08
2.45219e-08
2.34306e-08
2.23847e-08
2.13822e-08
2.04216e-08
1.95013e-08
1.86196e-08
1.77753e-08
1.69667e-08
1.61925e-08
1.54514e-08
1.47421e-08
1.40632e-08
1.34137e-08
1.27923e-08
1.21979e-08
1.16294e-08
1.10859e-08
1.05662e-08
1.00694e-08
9.59461e-09
9.14088e-09
8.70737e-09
8.29322e-09
7.89765e-09
7.51988e-09
7.15916e-09
6.81478e-09
6.48605e-09
6.1723e-09
5.87291e-09
5.58726e-09
5.31475e-09
5.05484e-09
4.80697e-09
4.57062e-09
4.34529e-09
4.1305e-09
3.9258e-09
3.73073e-09
3.54487e-09
3.36783e-09
3.19919e-09
3.0386e-09
2.88568e-09
2.74011e-09
2.60154e-09
2.46966e-09
2.34416e-09
2.22477e-09
2.11119e-09
2.00317e-09
1.90045e-09
1.80278e-09
1.70994e-09
1.62169e-09
1.53784e-09
1.45816e-09
1.38247e-09
1.31059e-09
1.24233e-09
1.17752e-09
1.116e-09
1.05762e-09
1.00223e-09
9.4969e-10
8.99861e-10
8.52616e-10
8.07833e-10
7.65396e-10
7.25194e-10
6.8712e-10
6.51074e-10
6.1696e-10
5.84687e-10
5.54168e-10
5.25321e-10
4.98066e-10
4.72331e-10
4.48044e-10
4.25138e-10
4.03551e-10
3.83222e-10
3.64094e-10
3.46114e-10
3.29232e-10
3.13399e-10
2.98571e-10
2.84705e-10
2.71762e-10
2.59705e-10
2.485e-10
2.38113e-10
2.28515e-10
2.19677e-10
2.11575e-10
2.04185e-10
1.97484e-10
1.91454e-10
1.86076e-10
1.81336e-10
1.77218e-10
1.7371e-10
1.70803e-10
1.68488e-10
1.66757e-10
1.65607e-10
1.65032e-10
1.88147e-07
5.63816e-07
9.37699e-07
1.30876e-06
1.67607e-06
2.03881e-06
2.39622e-06
2.74765e-06
3.0925e-06
3.43025e-06
3.76044e-06
4.08267e-06
4.39661e-06
4.70197e-06
4.99851e-06
5.28605e-06
5.56444e-06
5.83358e-06
6.09341e-06
6.3439e-06
6.58504e-06
6.81687e-06
7.03944e-06
7.25282e-06
7.45711e-06
7.65241e-06
7.83887e-06
8.0166e-06
8.18577e-06
8.34653e-06
8.49905e-06
8.64349e-06
8.78003e-06
8.90886e-06
9.03014e-06
9.14406e-06
9.25081e-06
9.35056e-06
9.44349e-06
9.52979e-06
9.60962e-06
9.68316e-06
9.75059e-06
9.81208e-06
9.86777e-06
9.91785e-06
9.96247e-06
1.00018e-05
1.00359e-05
1.00651e-05
1.00894e-05
1.01089e-05
1.01239e-05
1.01345e-05
1.01407e-05
1.01427e-05
1.01407e-05
1.01347e-05
1.01249e-05
1.01114e-05
1.00942e-05
1.00736e-05
1.00497e-05
1.00224e-05
9.99197e-06
9.95846e-06
9.92199e-06
9.88263e-06
9.84048e-06
9.79565e-06
9.74821e-06
9.69825e-06
9.64587e-06
9.59114e-06
9.53415e-06
9.47498e-06
9.41372e-06
9.35043e-06
9.2852e-06
9.21811e-06
9.14922e-06
9.07861e-06
9.00636e-06
8.93253e-06
8.8572e-06
8.78043e-06
8.70229e-06
8.62284e-06
8.54216e-06
8.46031e-06
8.37735e-06
8.29334e-06
8.20835e-06
8.12243e-06
8.03565e-06
7.94806e-06
7.85972e-06
7.77069e-06
7.68102e-06
7.59077e-06
7.49999e-06
7.40873e-06
7.31705e-06
7.22499e-06
7.13261e-06
7.03995e-06
6.94707e-06
6.85401e-06
6.76081e-06
6.66752e-06
6.57419e-06
6.48086e-06
6.38756e-06
6.29435e-06
6.20125e-06
6.10832e-06
6.01558e-06
5.92308e-06
5.83085e-06
5.73893e-06
5.64735e-06
5.55614e-06
5.46534e-06
5.37497e-06
5.28508e-06
5.19568e-06
5.10681e-06
5.01849e-06
4.93075e-06
4.84361e-06
4.7571e-06
4.67125e-06
4.58607e-06
4.50159e-06
4.41783e-06
4.33481e-06
4.25254e-06
4.17104e-06
4.09034e-06
4.01045e-06
3.93138e-06
3.85315e-06
3.77577e-06
3.69925e-06
3.62361e-06
3.54886e-06
3.475e-06
3.40205e-06
3.33002e-06
3.25891e-06
3.18874e-06
3.1195e-06
3.0512e-06
2.98385e-06
2.91746e-06
2.85202e-06
2.78754e-06
2.72402e-06
2.66147e-06
2.59988e-06
2.53925e-06
2.47959e-06
2.4209e-06
2.36316e-06
2.30639e-06
2.25058e-06
2.19572e-06
2.14182e-06
2.08887e-06
2.03686e-06
1.98579e-06
1.93565e-06
1.88645e-06
1.83817e-06
1.79081e-06
1.74436e-06
1.69881e-06
1.65416e-06
1.6104e-06
1.56752e-06
1.52552e-06
1.48437e-06
1.44409e-06
1.40465e-06
1.36605e-06
1.32828e-06
1.29133e-06
1.25518e-06
1.21984e-06
1.18528e-06
1.15151e-06
1.1185e-06
1.08625e-06
1.05475e-06
1.02399e-06
9.93947e-07
9.64623e-07
9.36004e-07
9.08077e-07
8.80833e-07
8.5426e-07
8.28347e-07
8.03083e-07
7.78457e-07
7.54457e-07
7.31073e-07
7.08294e-07
6.86108e-07
6.64504e-07
6.43472e-07
6.23001e-07
6.03079e-07
5.83695e-07
5.6484e-07
5.46502e-07
5.28671e-07
5.11336e-07
4.94487e-07
4.78113e-07
4.62204e-07
4.4675e-07
4.31741e-07
4.17167e-07
4.03018e-07
3.89285e-07
3.75957e-07
3.63026e-07
3.50481e-07
3.38315e-07
3.26517e-07
3.15079e-07
3.03991e-07
2.93246e-07
2.82835e-07
2.72748e-07
2.62979e-07
2.53518e-07
2.44357e-07
2.3549e-07
2.26907e-07
2.18602e-07
2.10567e-07
2.02794e-07
1.95277e-07
1.88009e-07
1.80981e-07
1.74189e-07
1.67624e-07
1.61282e-07
1.55154e-07
1.49235e-07
1.4352e-07
1.38001e-07
1.32673e-07
1.27531e-07
1.22569e-07
1.17781e-07
1.13163e-07
1.08708e-07
1.04413e-07
1.00271e-07
9.62784e-08
9.24304e-08
8.87224e-08
8.51498e-08
8.17083e-08
7.83937e-08
7.52019e-08
7.21289e-08
6.91707e-08
6.63236e-08
6.35838e-08
6.09478e-08
5.84122e-08
5.59734e-08
5.36282e-08
5.13734e-08
4.92059e-08
4.71226e-08
4.51207e-08
4.31972e-08
4.13494e-08
3.95747e-08
3.78704e-08
3.62341e-08
3.46632e-08
3.31554e-08
3.17084e-08
3.032e-08
2.89881e-08
2.77105e-08
2.64853e-08
2.53105e-08
2.41842e-08
2.31045e-08
2.20698e-08
2.10783e-08
2.01284e-08
1.92184e-08
1.83469e-08
1.75123e-08
1.67133e-08
1.59483e-08
1.52161e-08
1.45155e-08
1.3845e-08
1.32037e-08
1.25902e-08
1.20034e-08
1.14424e-08
1.0906e-08
1.03932e-08
9.90316e-09
9.43484e-09
8.98738e-09
8.55992e-09
8.15163e-09
7.76171e-09
7.38939e-09
7.03393e-09
6.69463e-09
6.3708e-09
6.06177e-09
5.76693e-09
5.48567e-09
5.21739e-09
4.96155e-09
4.7176e-09
4.48503e-09
4.26333e-09
4.05205e-09
3.8507e-09
3.65887e-09
3.47613e-09
3.30207e-09
3.13631e-09
2.97848e-09
2.82822e-09
2.6852e-09
2.54908e-09
2.41955e-09
2.29631e-09
2.17909e-09
2.06759e-09
1.96156e-09
1.86076e-09
1.76493e-09
1.67384e-09
1.58729e-09
1.50505e-09
1.42693e-09
1.35273e-09
1.28228e-09
1.21539e-09
1.15189e-09
1.09163e-09
1.03446e-09
9.80231e-10
9.28799e-10
8.80035e-10
8.33812e-10
7.9001e-10
7.48515e-10
7.09217e-10
6.72012e-10
6.36801e-10
6.0349e-10
5.71989e-10
5.42214e-10
5.14083e-10
4.8752e-10
4.62452e-10
4.3881e-10
4.16529e-10
3.95546e-10
3.75803e-10
3.57245e-10
3.39819e-10
3.23477e-10
3.08172e-10
2.93861e-10
2.80502e-10
2.68057e-10
2.56491e-10
2.4577e-10
2.35863e-10
2.26742e-10
2.18379e-10
2.10751e-10
2.03835e-10
1.97611e-10
1.9206e-10
1.87167e-10
1.82917e-10
1.79297e-10
1.76296e-10
1.73906e-10
1.7212e-10
1.70932e-10
1.70339e-10
1.90014e-07
5.69501e-07
9.47397e-07
1.32272e-06
1.69458e-06
2.06214e-06
2.42467e-06
2.78149e-06
3.13199e-06
3.47564e-06
3.81195e-06
4.1405e-06
4.46094e-06
4.77295e-06
5.07626e-06
5.37068e-06
5.65603e-06
5.93218e-06
6.19904e-06
6.45656e-06
6.70472e-06
6.94352e-06
7.173e-06
7.39321e-06
7.60422e-06
7.80615e-06
7.99908e-06
8.18316e-06
8.35851e-06
8.52529e-06
8.68365e-06
8.83375e-06
8.97577e-06
9.10986e-06
9.23622e-06
9.35501e-06
9.46642e-06
9.57062e-06
9.6678e-06
9.75813e-06
9.84179e-06
9.91895e-06
9.9898e-06
1.00545e-05
1.01132e-05
1.01661e-05
1.02133e-05
1.0255e-05
1.02914e-05
1.03226e-05
1.03488e-05
1.037e-05
1.03865e-05
1.03984e-05
1.04058e-05
1.04088e-05
1.04077e-05
1.04024e-05
1.03931e-05
1.03801e-05
1.03632e-05
1.03428e-05
1.03188e-05
1.02914e-05
1.02608e-05
1.02269e-05
1.019e-05
1.01501e-05
1.01073e-05
1.00617e-05
1.00133e-05
9.96242e-06
9.90898e-06
9.85311e-06
9.79489e-06
9.73442e-06
9.67176e-06
9.60702e-06
9.54025e-06
9.47156e-06
9.401e-06
9.32866e-06
9.25462e-06
9.17894e-06
9.1017e-06
9.02298e-06
8.94283e-06
8.86134e-06
8.77856e-06
8.69457e-06
8.60944e-06
8.52321e-06
8.43597e-06
8.34776e-06
8.25866e-06
8.16873e-06
8.07802e-06
7.98659e-06
7.89449e-06
7.8018e-06
7.70855e-06
7.61482e-06
7.52064e-06
7.42607e-06
7.33116e-06
7.23597e-06
7.14054e-06
7.04493e-06
6.94917e-06
6.85331e-06
6.75741e-06
6.6615e-06
6.56563e-06
6.46984e-06
6.37418e-06
6.27867e-06
6.18337e-06
6.08831e-06
5.99352e-06
5.89905e-06
5.80493e-06
5.71119e-06
5.61787e-06
5.525e-06
5.4326e-06
5.34072e-06
5.24937e-06
5.1586e-06
5.06842e-06
4.97885e-06
4.88994e-06
4.8017e-06
4.71415e-06
4.62731e-06
4.54122e-06
4.45588e-06
4.37132e-06
4.28755e-06
4.2046e-06
4.12248e-06
4.0412e-06
3.96079e-06
3.88125e-06
3.8026e-06
3.72484e-06
3.64801e-06
3.57209e-06
3.4971e-06
3.42306e-06
3.34997e-06
3.27783e-06
3.20666e-06
3.13646e-06
3.06723e-06
2.99898e-06
2.93171e-06
2.86543e-06
2.80014e-06
2.73584e-06
2.67253e-06
2.61021e-06
2.54888e-06
2.48855e-06
2.4292e-06
2.37084e-06
2.31347e-06
2.25708e-06
2.20168e-06
2.14724e-06
2.09378e-06
2.04128e-06
1.98975e-06
1.93917e-06
1.88954e-06
1.84086e-06
1.79311e-06
1.74629e-06
1.70039e-06
1.65541e-06
1.61133e-06
1.56815e-06
1.52586e-06
1.48445e-06
1.44391e-06
1.40423e-06
1.3654e-06
1.32742e-06
1.29026e-06
1.25393e-06
1.21841e-06
1.18369e-06
1.14976e-06
1.11661e-06
1.08423e-06
1.05261e-06
1.02173e-06
9.91584e-07
9.62164e-07
9.33457e-07
9.05452e-07
8.78136e-07
8.51499e-07
8.25529e-07
8.00214e-07
7.75544e-07
7.51507e-07
7.2809e-07
7.05284e-07
6.83077e-07
6.61457e-07
6.40413e-07
6.19934e-07
6.00009e-07
5.80627e-07
5.61777e-07
5.43447e-07
5.25628e-07
5.08307e-07
4.91476e-07
4.75122e-07
4.59236e-07
4.43808e-07
4.28827e-07
4.14282e-07
4.00165e-07
3.86465e-07
3.73172e-07
3.60277e-07
3.47771e-07
3.35643e-07
3.23885e-07
3.12488e-07
3.01442e-07
2.9074e-07
2.80371e-07
2.70329e-07
2.60603e-07
2.51187e-07
2.42072e-07
2.33249e-07
2.24712e-07
2.16452e-07
2.08462e-07
2.00735e-07
1.93263e-07
1.8604e-07
1.79057e-07
1.7231e-07
1.65789e-07
1.59491e-07
1.53407e-07
1.47531e-07
1.41858e-07
1.36382e-07
1.31096e-07
1.25995e-07
1.21073e-07
1.16326e-07
1.11747e-07
1.07331e-07
1.03074e-07
9.89694e-08
9.50139e-08
9.12022e-08
8.75297e-08
8.39921e-08
8.05848e-08
7.73038e-08
7.41449e-08
7.1104e-08
6.81773e-08
6.5361e-08
6.26514e-08
6.00448e-08
5.75379e-08
5.51271e-08
5.28093e-08
5.05812e-08
4.84397e-08
4.63818e-08
4.44046e-08
4.25052e-08
4.06808e-08
3.89289e-08
3.72468e-08
3.5632e-08
3.40821e-08
3.25947e-08
3.11675e-08
2.97983e-08
2.8485e-08
2.72256e-08
2.60179e-08
2.48601e-08
2.37503e-08
2.26867e-08
2.16675e-08
2.0691e-08
1.97556e-08
1.88597e-08
1.80018e-08
1.71804e-08
1.63941e-08
1.56414e-08
1.49212e-08
1.4232e-08
1.35727e-08
1.29421e-08
1.23389e-08
1.17622e-08
1.12108e-08
1.06837e-08
1.018e-08
9.69855e-09
9.23859e-09
8.79918e-09
8.37948e-09
7.97866e-09
7.59593e-09
7.23054e-09
6.88175e-09
6.54886e-09
6.23121e-09
5.92813e-09
5.639e-09
5.36323e-09
5.10023e-09
4.84946e-09
4.61039e-09
4.3825e-09
4.1653e-09
3.95834e-09
3.76114e-09
3.57329e-09
3.39437e-09
3.22398e-09
3.06173e-09
2.90728e-09
2.76025e-09
2.62033e-09
2.48718e-09
2.3605e-09
2.23999e-09
2.12538e-09
2.01639e-09
1.91277e-09
1.81426e-09
1.72063e-09
1.63166e-09
1.54712e-09
1.46682e-09
1.39054e-09
1.31812e-09
1.24936e-09
1.18409e-09
1.12215e-09
1.06338e-09
1.00763e-09
9.5476e-10
9.04633e-10
8.57118e-10
8.12092e-10
7.69437e-10
7.2904e-10
6.90795e-10
6.546e-10
6.20358e-10
5.87977e-10
5.5737e-10
5.28453e-10
5.01147e-10
4.75378e-10
4.51075e-10
4.28171e-10
4.06602e-10
3.86307e-10
3.6723e-10
3.49318e-10
3.32519e-10
3.16786e-10
3.02074e-10
2.88342e-10
2.7555e-10
2.6366e-10
2.5264e-10
2.42456e-10
2.3308e-10
2.24483e-10
2.16642e-10
2.09533e-10
2.03134e-10
1.97429e-10
1.92399e-10
1.88029e-10
1.84308e-10
1.81224e-10
1.78767e-10
1.76931e-10
1.7571e-10
1.751e-10
1.91761e-07
5.74792e-07
9.56358e-07
1.33553e-06
1.71145e-06
2.08331e-06
2.45036e-06
2.81192e-06
3.16739e-06
3.51621e-06
3.85788e-06
4.19197e-06
4.5181e-06
4.83592e-06
5.14517e-06
5.44561e-06
5.73704e-06
6.01933e-06
6.29235e-06
6.55603e-06
6.81033e-06
7.05525e-06
7.29078e-06
7.51698e-06
7.7339e-06
7.94163e-06
8.14026e-06
8.32991e-06
8.5107e-06
8.68277e-06
8.84627e-06
9.00135e-06
9.14818e-06
9.28692e-06
9.41774e-06
9.54083e-06
9.65635e-06
9.76448e-06
9.8654e-06
9.95929e-06
1.00463e-05
1.01267e-05
1.02005e-05
1.02681e-05
1.03294e-05
1.03848e-05
1.04343e-05
1.04782e-05
1.05166e-05
1.05496e-05
1.05774e-05
1.06001e-05
1.0618e-05
1.0631e-05
1.06395e-05
1.06434e-05
1.0643e-05
1.06384e-05
1.06297e-05
1.0617e-05
1.06004e-05
1.05801e-05
1.05561e-05
1.05287e-05
1.04978e-05
1.04637e-05
1.04264e-05
1.03859e-05
1.03425e-05
1.02963e-05
1.02472e-05
1.01954e-05
1.0141e-05
1.00842e-05
1.00249e-05
9.96325e-06
9.89937e-06
9.83334e-06
9.76523e-06
9.69512e-06
9.62309e-06
9.54923e-06
9.47361e-06
9.39631e-06
9.31739e-06
9.23695e-06
9.15504e-06
9.07173e-06
8.98711e-06
8.90124e-06
8.81418e-06
8.726e-06
8.63677e-06
8.54655e-06
8.45541e-06
8.36341e-06
8.2706e-06
8.17706e-06
8.08283e-06
7.98798e-06
7.89256e-06
7.79664e-06
7.70025e-06
7.60347e-06
7.50634e-06
7.40891e-06
7.31124e-06
7.21336e-06
7.11535e-06
7.01723e-06
6.91906e-06
6.82088e-06
6.72274e-06
6.62468e-06
6.52675e-06
6.42897e-06
6.33141e-06
6.23409e-06
6.13705e-06
6.04033e-06
5.94396e-06
5.84799e-06
5.75244e-06
5.65736e-06
5.56276e-06
5.46868e-06
5.37516e-06
5.28221e-06
5.18988e-06
5.09818e-06
5.00714e-06
4.91679e-06
4.82714e-06
4.73823e-06
4.65008e-06
4.5627e-06
4.47611e-06
4.39034e-06
4.3054e-06
4.22132e-06
4.1381e-06
4.05576e-06
3.97431e-06
3.89378e-06
3.81416e-06
3.73548e-06
3.65775e-06
3.58097e-06
3.50515e-06
3.43031e-06
3.35644e-06
3.28356e-06
3.21168e-06
3.14079e-06
3.0709e-06
3.00202e-06
2.93416e-06
2.8673e-06
2.80145e-06
2.73663e-06
2.67281e-06
2.61002e-06
2.54824e-06
2.48747e-06
2.42771e-06
2.36896e-06
2.31122e-06
2.25449e-06
2.19875e-06
2.144e-06
2.09025e-06
2.03748e-06
1.98569e-06
1.93487e-06
1.88501e-06
1.83612e-06
1.78818e-06
1.74118e-06
1.69512e-06
1.64998e-06
1.60577e-06
1.56246e-06
1.52006e-06
1.47854e-06
1.43791e-06
1.39816e-06
1.35926e-06
1.32121e-06
1.28401e-06
1.24764e-06
1.21209e-06
1.17734e-06
1.1434e-06
1.11024e-06
1.07785e-06
1.04624e-06
1.01537e-06
9.85244e-07
9.55849e-07
9.27172e-07
8.99201e-07
8.71925e-07
8.45332e-07
8.1941e-07
7.94148e-07
7.69534e-07
7.45556e-07
7.22203e-07
6.99463e-07
6.77324e-07
6.55776e-07
6.34805e-07
6.14402e-07
5.94555e-07
5.75253e-07
5.56483e-07
5.38236e-07
5.20501e-07
5.03265e-07
4.86519e-07
4.70253e-07
4.54454e-07
4.39113e-07
4.2422e-07
4.09764e-07
3.95735e-07
3.82124e-07
3.6892e-07
3.56113e-07
3.43694e-07
3.31654e-07
3.19984e-07
3.08673e-07
2.97714e-07
2.87097e-07
2.76813e-07
2.66855e-07
2.57212e-07
2.47878e-07
2.38844e-07
2.30102e-07
2.21644e-07
2.13463e-07
2.0555e-07
1.97899e-07
1.90502e-07
1.83353e-07
1.76443e-07
1.69766e-07
1.63316e-07
1.57086e-07
1.5107e-07
1.45261e-07
1.39653e-07
1.34241e-07
1.29017e-07
1.23978e-07
1.19116e-07
1.14427e-07
1.09906e-07
1.05546e-07
1.01343e-07
9.72931e-08
9.33899e-08
8.96294e-08
8.60068e-08
8.25179e-08
7.91581e-08
7.59234e-08
7.28096e-08
6.98127e-08
6.69288e-08
6.41542e-08
6.14851e-08
5.8918e-08
5.64495e-08
5.4076e-08
5.17945e-08
4.96016e-08
4.74944e-08
4.54697e-08
4.35247e-08
4.16567e-08
3.98627e-08
3.81403e-08
3.64867e-08
3.48996e-08
3.33765e-08
3.19151e-08
3.05131e-08
2.91683e-08
2.78786e-08
2.6642e-08
2.54564e-08
2.432e-08
2.32309e-08
2.21872e-08
2.11873e-08
2.02295e-08
1.93121e-08
1.84336e-08
1.75925e-08
1.67873e-08
1.60166e-08
1.52791e-08
1.45734e-08
1.38983e-08
1.32525e-08
1.26349e-08
1.20443e-08
1.14797e-08
1.094e-08
1.04241e-08
9.93119e-09
9.46019e-09
9.01024e-09
8.58047e-09
8.17004e-09
7.77813e-09
7.40398e-09
7.04682e-09
6.70595e-09
6.38067e-09
6.07032e-09
5.77426e-09
5.49187e-09
5.22257e-09
4.96578e-09
4.72098e-09
4.48762e-09
4.26522e-09
4.05328e-09
3.85136e-09
3.659e-09
3.47579e-09
3.30131e-09
3.13517e-09
2.97701e-09
2.82646e-09
2.68318e-09
2.54684e-09
2.41712e-09
2.29372e-09
2.17636e-09
2.06476e-09
1.95865e-09
1.85778e-09
1.7619e-09
1.67079e-09
1.58423e-09
1.502e-09
1.4239e-09
1.34974e-09
1.27932e-09
1.21249e-09
1.14906e-09
1.08888e-09
1.0318e-09
9.77661e-10
9.26331e-10
8.77677e-10
8.31571e-10
7.87893e-10
7.46527e-10
7.07365e-10
6.70302e-10
6.35238e-10
6.02081e-10
5.70739e-10
5.41128e-10
5.13168e-10
4.86781e-10
4.61895e-10
4.38441e-10
4.16354e-10
3.95573e-10
3.76039e-10
3.57697e-10
3.40495e-10
3.24385e-10
3.0932e-10
2.95258e-10
2.82159e-10
2.69984e-10
2.58699e-10
2.48271e-10
2.3867e-10
2.29868e-10
2.21838e-10
2.14558e-10
2.08007e-10
2.02164e-10
1.97014e-10
1.9254e-10
1.88729e-10
1.85571e-10
1.83055e-10
1.81175e-10
1.79925e-10
1.793e-10
1.93331e-07
5.79532e-07
9.64357e-07
1.34692e-06
1.72639e-06
2.10197e-06
2.47293e-06
2.83859e-06
3.19833e-06
3.5516e-06
3.89788e-06
4.23672e-06
4.56772e-06
4.89054e-06
5.20487e-06
5.51047e-06
5.80712e-06
6.09466e-06
6.37296e-06
6.64193e-06
6.90151e-06
7.15166e-06
7.3924e-06
7.62374e-06
7.84574e-06
8.05846e-06
8.26198e-06
8.45642e-06
8.64189e-06
8.81851e-06
8.98643e-06
9.1458e-06
9.29678e-06
9.43952e-06
9.5742e-06
9.70099e-06
9.82005e-06
9.93157e-06
1.00357e-05
1.01327e-05
1.02227e-05
1.03058e-05
1.03822e-05
1.04522e-05
1.05159e-05
1.05734e-05
1.06249e-05
1.06707e-05
1.07107e-05
1.07453e-05
1.07745e-05
1.07986e-05
1.08176e-05
1.08317e-05
1.0841e-05
1.08458e-05
1.08461e-05
1.0842e-05
1.08337e-05
1.08213e-05
1.0805e-05
1.07848e-05
1.07609e-05
1.07334e-05
1.07024e-05
1.0668e-05
1.06303e-05
1.05895e-05
1.05456e-05
1.04987e-05
1.0449e-05
1.03965e-05
1.03413e-05
1.02836e-05
1.02233e-05
1.01607e-05
1.00958e-05
1.00287e-05
9.95938e-06
9.88805e-06
9.81477e-06
9.73959e-06
9.66261e-06
9.5839e-06
9.50355e-06
9.42161e-06
9.33818e-06
9.25332e-06
9.1671e-06
9.0796e-06
8.99089e-06
8.90102e-06
8.81008e-06
8.71813e-06
8.62522e-06
8.53144e-06
8.43683e-06
8.34146e-06
8.24539e-06
8.14868e-06
8.05139e-06
7.95357e-06
7.85529e-06
7.75659e-06
7.65754e-06
7.55818e-06
7.45857e-06
7.35875e-06
7.25879e-06
7.15872e-06
7.05859e-06
6.95845e-06
6.85835e-06
6.75833e-06
6.65844e-06
6.55871e-06
6.45919e-06
6.35992e-06
6.26093e-06
6.16227e-06
6.06397e-06
5.96607e-06
5.86861e-06
5.77161e-06
5.67511e-06
5.57914e-06
5.48373e-06
5.38892e-06
5.29472e-06
5.20118e-06
5.1083e-06
5.01613e-06
4.92468e-06
4.83398e-06
4.74404e-06
4.6549e-06
4.56657e-06
4.47907e-06
4.39242e-06
4.30664e-06
4.22173e-06
4.13773e-06
4.05464e-06
3.97248e-06
3.89126e-06
3.81099e-06
3.73169e-06
3.65336e-06
3.57601e-06
3.49965e-06
3.4243e-06
3.34994e-06
3.27661e-06
3.20429e-06
3.13299e-06
3.06272e-06
2.99348e-06
2.92527e-06
2.8581e-06
2.79196e-06
2.72686e-06
2.66279e-06
2.59976e-06
2.53776e-06
2.4768e-06
2.41686e-06
2.35795e-06
2.30007e-06
2.2432e-06
2.18735e-06
2.13251e-06
2.07868e-06
2.02584e-06
1.97399e-06
1.92313e-06
1.87325e-06
1.82434e-06
1.77639e-06
1.72939e-06
1.68335e-06
1.63824e-06
1.59406e-06
1.55079e-06
1.50844e-06
1.46699e-06
1.42643e-06
1.38675e-06
1.34793e-06
1.30998e-06
1.27287e-06
1.2366e-06
1.20115e-06
1.16652e-06
1.13269e-06
1.09965e-06
1.06739e-06
1.0359e-06
1.00517e-06
9.75177e-07
9.4592e-07
9.17384e-07
8.89556e-07
8.62425e-07
8.35979e-07
8.10206e-07
7.85095e-07
7.60632e-07
7.36807e-07
7.13607e-07
6.9102e-07
6.69036e-07
6.47642e-07
6.26826e-07
6.06578e-07
5.86885e-07
5.67736e-07
5.4912e-07
5.31026e-07
5.13442e-07
4.96357e-07
4.79762e-07
4.63644e-07
4.47993e-07
4.32798e-07
4.1805e-07
4.03738e-07
3.89851e-07
3.76379e-07
3.63314e-07
3.50644e-07
3.38361e-07
3.26454e-07
3.14915e-07
3.03734e-07
2.92902e-07
2.82411e-07
2.72251e-07
2.62414e-07
2.52891e-07
2.43674e-07
2.34755e-07
2.26126e-07
2.17779e-07
2.09707e-07
2.01901e-07
1.94355e-07
1.8706e-07
1.80011e-07
1.73199e-07
1.66619e-07
1.60263e-07
1.54125e-07
1.48198e-07
1.42477e-07
1.36955e-07
1.31626e-07
1.26485e-07
1.21525e-07
1.16741e-07
1.12128e-07
1.0768e-07
1.03393e-07
9.92604e-08
9.52783e-08
9.14417e-08
8.77459e-08
8.41864e-08
8.07588e-08
7.74586e-08
7.42819e-08
7.12244e-08
6.82822e-08
6.54514e-08
6.27284e-08
6.01094e-08
5.75909e-08
5.51695e-08
5.28418e-08
5.06046e-08
4.84547e-08
4.63891e-08
4.44048e-08
4.2499e-08
4.06688e-08
3.89115e-08
3.72245e-08
3.56053e-08
3.40514e-08
3.25604e-08
3.11301e-08
2.97581e-08
2.84424e-08
2.71807e-08
2.59712e-08
2.48118e-08
2.37006e-08
2.26358e-08
2.16157e-08
2.06385e-08
1.97026e-08
1.88063e-08
1.79482e-08
1.71268e-08
1.63405e-08
1.5588e-08
1.48681e-08
1.41793e-08
1.35205e-08
1.28904e-08
1.22879e-08
1.17118e-08
1.11612e-08
1.06349e-08
1.0132e-08
9.65148e-09
9.19243e-09
8.75397e-09
8.33524e-09
7.9354e-09
7.55368e-09
7.18931e-09
6.84154e-09
6.50969e-09
6.19306e-09
5.89101e-09
5.60292e-09
5.32817e-09
5.06619e-09
4.81643e-09
4.57836e-09
4.35146e-09
4.13524e-09
3.92923e-09
3.73299e-09
3.54607e-09
3.36806e-09
3.19857e-09
3.03721e-09
2.88361e-09
2.73743e-09
2.59833e-09
2.46599e-09
2.3401e-09
2.22037e-09
2.10651e-09
1.99825e-09
1.89534e-09
1.79753e-09
1.70458e-09
1.61626e-09
1.53237e-09
1.45269e-09
1.37703e-09
1.30519e-09
1.23701e-09
1.1723e-09
1.1109e-09
1.05266e-09
9.97429e-10
9.45061e-10
8.95423e-10
8.48385e-10
8.03824e-10
7.61622e-10
7.21667e-10
6.83855e-10
6.48082e-10
6.14254e-10
5.82279e-10
5.52069e-10
5.23544e-10
4.96623e-10
4.71234e-10
4.47306e-10
4.24773e-10
4.03571e-10
3.83642e-10
3.64929e-10
3.47379e-10
3.30943e-10
3.15574e-10
3.01228e-10
2.87864e-10
2.75443e-10
2.6393e-10
2.53291e-10
2.43496e-10
2.34515e-10
2.26324e-10
2.18897e-10
2.12212e-10
2.06252e-10
2.00997e-10
1.96433e-10
1.92545e-10
1.89323e-10
1.86756e-10
1.84838e-10
1.83562e-10
1.82926e-10
1.94685e-07
5.83614e-07
9.7123e-07
1.35668e-06
1.73916e-06
2.11788e-06
2.49213e-06
2.86122e-06
3.22454e-06
3.58152e-06
3.93164e-06
4.27444e-06
4.60951e-06
4.93648e-06
5.25506e-06
5.56495e-06
5.86596e-06
6.15788e-06
6.44059e-06
6.71396e-06
6.97794e-06
7.23247e-06
7.47755e-06
7.71318e-06
7.93942e-06
8.1563e-06
8.36391e-06
8.56235e-06
8.75173e-06
8.93216e-06
9.10379e-06
9.26675e-06
9.42119e-06
9.56729e-06
9.70519e-06
9.83508e-06
9.95711e-06
1.00715e-05
1.01783e-05
1.02779e-05
1.03703e-05
1.04557e-05
1.05344e-05
1.06064e-05
1.0672e-05
1.07313e-05
1.07845e-05
1.08318e-05
1.08733e-05
1.09092e-05
1.09397e-05
1.09648e-05
1.09848e-05
1.09998e-05
1.10099e-05
1.10153e-05
1.10161e-05
1.10125e-05
1.10046e-05
1.09925e-05
1.09764e-05
1.09563e-05
1.09324e-05
1.09049e-05
1.08737e-05
1.08391e-05
1.08012e-05
1.076e-05
1.07157e-05
1.06683e-05
1.0618e-05
1.05649e-05
1.05091e-05
1.04507e-05
1.03897e-05
1.03262e-05
1.02604e-05
1.01923e-05
1.01221e-05
1.00498e-05
9.97541e-06
9.89913e-06
9.82101e-06
9.74113e-06
9.65957e-06
9.57639e-06
9.49168e-06
9.40552e-06
9.31797e-06
9.2291e-06
9.139e-06
9.04773e-06
8.95535e-06
8.86194e-06
8.76756e-06
8.67228e-06
8.57616e-06
8.47926e-06
8.38164e-06
8.28338e-06
8.18452e-06
8.08512e-06
7.98524e-06
7.88495e-06
7.78428e-06
7.6833e-06
7.58207e-06
7.48062e-06
7.37902e-06
7.27731e-06
7.17555e-06
7.07377e-06
6.97203e-06
6.87037e-06
6.76883e-06
6.66746e-06
6.5663e-06
6.46539e-06
6.36478e-06
6.26449e-06
6.16457e-06
6.06506e-06
5.96598e-06
5.86738e-06
5.76929e-06
5.67173e-06
5.57475e-06
5.47836e-06
5.38261e-06
5.28752e-06
5.19311e-06
5.09941e-06
5.00644e-06
4.91424e-06
4.82281e-06
4.73219e-06
4.6424e-06
4.55345e-06
4.46536e-06
4.37815e-06
4.29185e-06
4.20645e-06
4.12198e-06
4.03846e-06
3.95589e-06
3.87429e-06
3.79367e-06
3.71404e-06
3.63541e-06
3.55778e-06
3.48117e-06
3.40559e-06
3.33103e-06
3.25751e-06
3.18503e-06
3.1136e-06
3.04321e-06
2.97386e-06
2.90558e-06
2.83834e-06
2.77216e-06
2.70703e-06
2.64295e-06
2.57992e-06
2.51795e-06
2.45701e-06
2.39713e-06
2.33828e-06
2.28047e-06
2.22369e-06
2.16794e-06
2.11321e-06
2.05949e-06
2.00679e-06
1.95508e-06
1.90437e-06
1.85465e-06
1.8059e-06
1.75813e-06
1.71131e-06
1.66546e-06
1.62054e-06
1.57656e-06
1.5335e-06
1.49136e-06
1.45013e-06
1.40979e-06
1.37033e-06
1.33174e-06
1.29402e-06
1.25714e-06
1.22111e-06
1.1859e-06
1.15151e-06
1.11792e-06
1.08513e-06
1.05311e-06
1.02187e-06
9.9138e-07
9.61636e-07
9.32626e-07
9.04336e-07
8.76754e-07
8.49869e-07
8.23668e-07
7.98139e-07
7.7327e-07
7.49048e-07
7.25463e-07
7.02502e-07
6.80152e-07
6.58402e-07
6.37241e-07
6.16656e-07
5.96636e-07
5.77169e-07
5.58243e-07
5.39848e-07
5.21972e-07
5.04604e-07
4.87733e-07
4.71347e-07
4.55436e-07
4.39989e-07
4.24996e-07
4.10445e-07
3.96328e-07
3.82633e-07
3.6935e-07
3.5647e-07
3.43983e-07
3.31878e-07
3.20147e-07
3.08781e-07
2.97769e-07
2.87103e-07
2.76774e-07
2.66773e-07
2.57092e-07
2.47723e-07
2.38656e-07
2.29883e-07
2.21398e-07
2.13191e-07
2.05256e-07
1.97584e-07
1.90168e-07
1.83001e-07
1.76077e-07
1.69387e-07
1.62926e-07
1.56686e-07
1.50661e-07
1.44844e-07
1.3923e-07
1.33813e-07
1.28586e-07
1.23544e-07
1.18681e-07
1.13991e-07
1.09469e-07
1.05111e-07
1.0091e-07
9.68613e-08
9.2961e-08
8.92038e-08
8.55851e-08
8.21005e-08
7.87456e-08
7.5516e-08
7.24077e-08
6.94166e-08
6.65389e-08
6.37706e-08
6.11081e-08
5.85477e-08
5.60861e-08
5.37197e-08
5.14453e-08
4.92598e-08
4.71598e-08
4.51426e-08
4.32051e-08
4.13444e-08
3.95579e-08
3.78429e-08
3.61968e-08
3.46171e-08
3.31014e-08
3.16473e-08
3.02525e-08
2.89149e-08
2.76323e-08
2.64027e-08
2.5224e-08
2.40944e-08
2.30119e-08
2.19748e-08
2.09814e-08
2.00299e-08
1.91188e-08
1.82464e-08
1.74113e-08
1.6612e-08
1.5847e-08
1.51151e-08
1.44149e-08
1.37451e-08
1.31045e-08
1.2492e-08
1.19064e-08
1.13466e-08
1.08116e-08
1.03003e-08
9.81183e-09
9.34515e-09
8.89941e-09
8.47372e-09
8.06724e-09
7.67918e-09
7.30875e-09
6.95521e-09
6.61784e-09
6.29595e-09
5.98889e-09
5.696e-09
5.41669e-09
5.15036e-09
4.89645e-09
4.65442e-09
4.42375e-09
4.20394e-09
3.99451e-09
3.795e-09
3.60498e-09
3.42402e-09
3.25171e-09
3.08766e-09
2.93152e-09
2.78291e-09
2.6415e-09
2.50696e-09
2.37898e-09
2.25726e-09
2.1415e-09
2.03145e-09
1.92683e-09
1.82739e-09
1.7329e-09
1.64311e-09
1.55783e-09
1.47682e-09
1.3999e-09
1.32688e-09
1.25756e-09
1.19177e-09
1.12936e-09
1.07015e-09
1.014e-09
9.60762e-10
9.10299e-10
8.6248e-10
8.17178e-10
7.74275e-10
7.33657e-10
6.95216e-10
6.58849e-10
6.24459e-10
5.91952e-10
5.61241e-10
5.32241e-10
5.04874e-10
4.79063e-10
4.54737e-10
4.3183e-10
4.10276e-10
3.90015e-10
3.70992e-10
3.5315e-10
3.36441e-10
3.20817e-10
3.06233e-10
2.92646e-10
2.80019e-10
2.68315e-10
2.57499e-10
2.47541e-10
2.38411e-10
2.30084e-10
2.22533e-10
2.15738e-10
2.09678e-10
2.04336e-10
1.99696e-10
1.95744e-10
1.92468e-10
1.89859e-10
1.87909e-10
1.86612e-10
1.85965e-10
1.95795e-07
5.86961e-07
9.76858e-07
1.36466e-06
1.74957e-06
2.13084e-06
2.50773e-06
2.87958e-06
3.24577e-06
3.60573e-06
3.95893e-06
4.3049e-06
4.64323e-06
4.97353e-06
5.29549e-06
5.60883e-06
5.91332e-06
6.20875e-06
6.49498e-06
6.77188e-06
7.03938e-06
7.29741e-06
7.54597e-06
7.78504e-06
8.01467e-06
8.23489e-06
8.44579e-06
8.64744e-06
8.83995e-06
9.02343e-06
9.19803e-06
9.36387e-06
9.5211e-06
9.66988e-06
9.81038e-06
9.94275e-06
1.00672e-05
1.01838e-05
1.02929e-05
1.03945e-05
1.04889e-05
1.05762e-05
1.06566e-05
1.07303e-05
1.07974e-05
1.08582e-05
1.09128e-05
1.09613e-05
1.1004e-05
1.10409e-05
1.10723e-05
1.10983e-05
1.11191e-05
1.11348e-05
1.11456e-05
1.11515e-05
1.11528e-05
1.11496e-05
1.1142e-05
1.11301e-05
1.11141e-05
1.10941e-05
1.10703e-05
1.10427e-05
1.10114e-05