/*--------------------------------*- C++ -*----------------------------------*\
  =========                 |
  \\      /  F ield         | OpenFOAM: The Open Source CFD Toolbox
   \\    /   O peration     | Website:  https://openfoam.org
    \\  /    A nd           | Version:  10
     \\/     M anipulation  |
\*---------------------------------------------------------------------------*/
FoamFile
{
    format      ascii;
    class       volScalarField;
    location    "0.5";
    object      s;
}
// * * * * * * * * * * * * * * * * * * * * * * * * * * * * * * * * * * * * * //

dimensions      [0 0 1 0 0 0 0];

internalField   nonuniform List<scalar> 
400
(
5.36357e-09
-1.94265e-09
1.60919e-07
8.3995e-07
8.34776e-07
2.19049e-07
3.20957e-08
-2.03555e-08
-2.24155e-07
-1.01913e-06
-1.65219e-06
-5.81906e-08
2.22571e-06
1.20476e-06
-1.71143e-06
-9.34034e-07
7.91528e-07
-1.46276e-07
2.2248e-09
1.41344e-10
5.90463e-08
-1.03272e-07
-2.10526e-05
-5.44949e-05
-3.11621e-05
-3.4892e-06
-1.49734e-06
-1.07376e-06
-8.62307e-06
-2.22405e-05
-2.38401e-05
-7.02768e-06
1.4475e-05
2.15107e-05
1.02536e-05
-1.16976e-06
7.54074e-07
-8.40163e-07
6.37829e-08
-2.71312e-10
-4.35749e-06
2.24863e-05
0.000399366
0.000601933
0.000179877
-1.57752e-06
7.92437e-05
7.2712e-05
-8.45848e-06
-9.14231e-05
-0.000106586
-1.97623e-05
9.50123e-05
0.000127349
6.99934e-05
4.82201e-06
-6.81146e-06
1.55914e-05
-1.01358e-06
4.69585e-09
4.61697e-05
-0.000188928
-0.00164853
-0.00156228
-4.50637e-05
0.000425331
0.000304919
0.0002289
1.9735e-06
-0.000225839
-0.000200583
-7.51727e-05
-0.000122163
-0.000281791
-0.000327321
-0.000200875
-2.28242e-05
5.80985e-05
-2.32116e-06
7.07798e-08
-0.00012328
-0.000216972
-0.000170945
-0.000155448
8.62251e-05
0.000257461
0.000570809
0.000398946
-0.000134799
-0.000433394
-0.000714837
-0.00145605
-0.00230525
-0.00265626
-0.00235087
-0.00158968
-0.000700957
-8.78137e-05
2.32798e-05
-3.40973e-07
-0.000105949
0.00122857
0.00347675
0.00150056
-0.00059865
-1.78157e-05
0.000715435
0.00024698
-0.000482338
-0.00110877
-0.00195685
-0.00259867
-0.00235862
-0.0019025
-0.00198216
-0.00234177
-0.00211904
-0.0010227
-3.71424e-05
-7.88882e-07
0.000476834
0.00274818
0.00448504
0.000337064
-0.00171148
2.3206e-06
0.000569271
-0.000233211
-0.000500952
0.00130366
0.00675586
0.0158475
0.0242795
0.0267316
0.0216273
0.0118913
0.00273639
-0.00155111
-0.000808525
3.06383e-05
0.00106525
0.0019612
0.000909282
-0.00280058
-0.00231086
4.5111e-05
8.01864e-05
0.000566227
0.00697229
0.0251032
0.0564302
0.0920788
0.115799
0.117686
0.0980453
0.0653124
0.0312533
0.00672622
-0.00187195
0.00013036
0.000580892
-0.00207835
-0.00543649
-0.00551984
-0.00223927
-0.000315205
0.000699221
0.00981263
0.0397834
0.0979718
0.174959
0.244522
0.281029
0.275524
0.233024
0.168077
0.0981013
0.0384461
0.00288423
-0.000358801
-0.00170116
-0.00824936
-0.0112419
-0.00636482
-0.00207876
-0.000526395
0.00704526
0.0386855
0.1114
0.22182
0.340535
0.430775
0.47106
0.456554
0.393955
0.300371
0.197296
0.101294
0.0255146
-0.00336443
-0.00564976
-0.0141836
-0.0139271
-0.00542433
-0.00221191
0.00158312
0.0240339
0.0883505
0.203041
0.344074
0.471396
0.559614
0.602546
0.593764
0.531181
0.426313
0.304177
0.185464
0.074373
-0.00603876
-0.0103026
-0.0174451
-0.0125561
-0.00358096
-0.00209389
0.00803334
0.048776
0.136336
0.259104
0.380078
0.474152
0.545578
0.602997
0.629911
0.603353
0.516343
0.393749
0.269795
0.145132
0.0108357
-0.0142025
-0.0163685
-0.00765296
-0.00163611
-0.000898132
0.0170097
0.0665456
0.145707
0.226026
0.279924
0.316732
0.368507
0.449427
0.537293
0.585713
0.553947
0.452692
0.336268
0.222152
0.0717652
-0.0157661
-0.0103761
-0.000468855
0.000131661
0.00118034
0.0222582
0.0611467
0.100006
0.111363
0.0931205
0.0821908
0.114745
0.198719
0.335526
0.474094
0.531642
0.477611
0.377774
0.287046
0.169115
-0.0135085
0.000305893
0.00773278
0.001404
0.00201434
0.0188355
0.0360775
0.0363592
0.00786416
-0.0345277
-0.0565444
-0.0494506
-0.0156037
0.105466
0.29723
0.451446
0.468689
0.395693
0.328481
0.261269
-0.00657685
0.0141781
0.0153448
0.00113429
-0.000250002
0.00987542
0.011835
-0.000333557
-0.0223469
-0.0354386
-0.00826275
-0.0391487
-0.0790602
-0.0388465
0.125492
0.334165
0.427976
0.393612
0.34607
0.317961
0.00579559
0.031747
0.0242381
0.00193829
-0.001665
0.00761292
0.00991155
0.0050438
-0.00131328
-0.00261851
-0.000816772
-0.0190945
-0.0492968
-0.0482982
0.0445986
0.227693
0.364286
0.373983
0.345308
0.339873
0.0215212
0.0472777
0.0299783
-0.00377842
-0.0201295
-0.0236433
-0.0247982
-0.0270634
-0.0306662
-0.0351867
-0.0423946
-0.0454193
-0.03522
0.00214817
0.0801002
0.192603
0.299974
0.339535
0.331354
0.339654
0.0389662
0.0840621
0.083711
0.0692141
0.0574593
0.0514985
0.0504356
0.0530674
0.0587731
0.0674952
0.0801381
0.0971084
0.119428
0.148361
0.18462
0.226732
0.26812
0.297739
0.308225
0.328023
0.0521724
0.072751
0.0892472
0.101729
0.112205
0.122035
0.131927
0.142177
0.152889
0.164094
0.175776
0.187861
0.200343
0.213226
0.226509
0.240116
0.253977
0.267781
0.283371
0.313523
)
;

boundaryField
{
    movingWall
    {
        type            zeroGradient;
    }
    fixedWalls
    {
        type            zeroGradient;
    }
    frontAndBack
    {
        type            empty;
    }
}


// ************************************************************************* //
