/*--------------------------------*- C++ -*----------------------------------*\
  =========                 |
  \\      /  F ield         | OpenFOAM: The Open Source CFD Toolbox
   \\    /   O peration     | Website:  https://openfoam.org
    \\  /    A nd           | Version:  10
     \\/     M anipulation  |
\*---------------------------------------------------------------------------*/
FoamFile
{
    format      ascii;
    class       volScalarField;
    location    "0.72";
    object      Exp1;
}
// * * * * * * * * * * * * * * * * * * * * * * * * * * * * * * * * * * * * * //

dimensions      [0 0 0 0 0 0 0];

internalField   uniform 0;

boundaryField
{
    frontAndBack
    {
        type            empty;
    }
    inlet
    {
        type            calculated;
        value           uniform 0;
    }
    outlet
    {
        type            calculated;
        value           uniform 0;
    }
    substrate
    {
        type            calculated;
        value           nonuniform List<scalar> 
400
(
4.60755e-13
1.37984e-12
2.29328e-12
3.19858e-12
4.0936e-12
4.97646e-12
5.84551e-12
6.6993e-12
7.53657e-12
8.35625e-12
9.1574e-12
9.93925e-12
1.07012e-11
1.14427e-11
1.21634e-11
1.2863e-11
1.35414e-11
1.41985e-11
1.48344e-11
1.5449e-11
1.60426e-11
1.66155e-11
1.71677e-11
1.76998e-11
1.8212e-11
1.87046e-11
1.91782e-11
1.96331e-11
2.00699e-11
2.04888e-11
2.08904e-11
2.12753e-11
2.16437e-11
2.19963e-11
2.23334e-11
2.26556e-11
2.29633e-11
2.32569e-11
2.35368e-11
2.38036e-11
2.40577e-11
2.42993e-11
2.4529e-11
2.47471e-11
2.4954e-11
2.515e-11
2.53355e-11
2.55109e-11
2.56764e-11
2.58324e-11
2.59791e-11
2.61169e-11
2.6246e-11
2.63667e-11
2.64792e-11
2.65839e-11
2.66808e-11
2.67704e-11
2.68527e-11
2.6928e-11
2.69964e-11
2.70583e-11
2.71137e-11
2.71628e-11
2.72059e-11
2.7243e-11
2.72743e-11
2.73001e-11
2.73203e-11
2.73352e-11
2.73449e-11
2.73495e-11
2.73491e-11
2.73439e-11
2.7334e-11
2.73195e-11
2.73005e-11
2.72771e-11
2.72493e-11
2.72174e-11
2.71814e-11
2.71414e-11
2.70974e-11
2.70496e-11
2.6998e-11
2.69428e-11
2.6884e-11
2.68216e-11
2.67559e-11
2.66867e-11
2.66142e-11
2.65386e-11
2.64597e-11
2.63778e-11
2.62929e-11
2.6205e-11
2.61142e-11
2.60206e-11
2.59242e-11
2.58251e-11
2.57233e-11
2.5619e-11
2.55122e-11
2.54029e-11
2.52911e-11
2.5177e-11
2.50606e-11
2.4942e-11
2.48212e-11
2.46982e-11
2.45732e-11
2.44461e-11
2.43171e-11
2.41861e-11
2.40533e-11
2.39186e-11
2.37822e-11
2.3644e-11
2.35042e-11
2.33627e-11
2.32197e-11
2.30752e-11
2.29292e-11
2.27817e-11
2.26329e-11
2.24828e-11
2.23313e-11
2.21787e-11
2.20248e-11
2.18699e-11
2.17138e-11
2.15566e-11
2.13985e-11
2.12394e-11
2.10794e-11
2.09185e-11
2.07568e-11
2.05943e-11
2.0431e-11
2.02671e-11
2.01025e-11
1.99373e-11
1.97715e-11
1.96052e-11
1.94383e-11
1.92711e-11
1.91034e-11
1.89354e-11
1.8767e-11
1.85983e-11
1.84294e-11
1.82602e-11
1.80909e-11
1.79214e-11
1.77519e-11
1.75822e-11
1.74125e-11
1.72429e-11
1.70732e-11
1.69036e-11
1.67341e-11
1.65648e-11
1.63956e-11
1.62267e-11
1.60579e-11
1.58894e-11
1.57213e-11
1.55534e-11
1.53859e-11
1.52188e-11
1.50521e-11
1.48858e-11
1.472e-11
1.45547e-11
1.43899e-11
1.42256e-11
1.4062e-11
1.38989e-11
1.37365e-11
1.35747e-11
1.34135e-11
1.32531e-11
1.30934e-11
1.29344e-11
1.27762e-11
1.26187e-11
1.24621e-11
1.23062e-11
1.21513e-11
1.19971e-11
1.18439e-11
1.16915e-11
1.15401e-11
1.13895e-11
1.12399e-11
1.10913e-11
1.09437e-11
1.0797e-11
1.06513e-11
1.05067e-11
1.03631e-11
1.02205e-11
1.0079e-11
9.93852e-12
9.79914e-12
9.66084e-12
9.52364e-12
9.38755e-12
9.25257e-12
9.11872e-12
8.98599e-12
8.85441e-12
8.72397e-12
8.59469e-12
8.46657e-12
8.33961e-12
8.21383e-12
8.08922e-12
7.96579e-12
7.84355e-12
7.72251e-12
7.60265e-12
7.48399e-12
7.36653e-12
7.25027e-12
7.13522e-12
7.02137e-12
6.90872e-12
6.79729e-12
6.68706e-12
6.57804e-12
6.47023e-12
6.36362e-12
6.25822e-12
6.15402e-12
6.05103e-12
5.94924e-12
5.84865e-12
5.74926e-12
5.65106e-12
5.55405e-12
5.45823e-12
5.3636e-12
5.27014e-12
5.17787e-12
5.08676e-12
4.99683e-12
4.90805e-12
4.82044e-12
4.73398e-12
4.64866e-12
4.56449e-12
4.48145e-12
4.39954e-12
4.31876e-12
4.23909e-12
4.16054e-12
4.08308e-12
4.00673e-12
3.93146e-12
3.85728e-12
3.78417e-12
3.71213e-12
3.64114e-12
3.57121e-12
3.50233e-12
3.43447e-12
3.36765e-12
3.30184e-12
3.23705e-12
3.17326e-12
3.11046e-12
3.04864e-12
2.9878e-12
2.92793e-12
2.86902e-12
2.81105e-12
2.75402e-12
2.69793e-12
2.64276e-12
2.58849e-12
2.53514e-12
2.48267e-12
2.43109e-12
2.38039e-12
2.33055e-12
2.28156e-12
2.23342e-12
2.18612e-12
2.13965e-12
2.094e-12
2.04915e-12
2.0051e-12
1.96184e-12
1.91937e-12
1.87766e-12
1.83671e-12
1.79652e-12
1.75707e-12
1.71835e-12
1.68035e-12
1.64307e-12
1.60649e-12
1.57061e-12
1.53542e-12
1.5009e-12
1.46705e-12
1.43386e-12
1.40132e-12
1.36942e-12
1.33815e-12
1.30751e-12
1.27748e-12
1.24806e-12
1.21923e-12
1.19099e-12
1.16333e-12
1.13624e-12
1.10972e-12
1.08375e-12
1.05833e-12
1.03344e-12
1.00909e-12
9.85255e-13
9.61937e-13
9.39125e-13
9.16811e-13
8.94989e-13
8.73649e-13
8.52786e-13
8.32391e-13
8.12457e-13
7.92977e-13
7.73943e-13
7.5535e-13
7.37189e-13
7.19454e-13
7.02138e-13
6.85235e-13
6.68737e-13
6.52639e-13
6.36934e-13
6.21616e-13
6.06679e-13
5.92116e-13
5.77922e-13
5.64091e-13
5.50617e-13
5.37494e-13
5.24717e-13
5.12281e-13
5.0018e-13
4.88408e-13
4.76962e-13
4.65835e-13
4.55023e-13
4.44521e-13
4.34324e-13
4.24428e-13
4.14828e-13
4.0552e-13
3.96499e-13
3.87762e-13
3.79305e-13
3.71122e-13
3.63212e-13
3.55568e-13
3.4819e-13
3.41071e-13
3.3421e-13
3.27603e-13
3.21246e-13
3.15137e-13
3.09273e-13
3.0365e-13
2.98267e-13
2.93119e-13
2.88205e-13
2.83523e-13
2.79069e-13
2.74842e-13
2.70839e-13
2.67059e-13
2.635e-13
2.60159e-13
2.57035e-13
2.54127e-13
2.51433e-13
2.48951e-13
2.46681e-13
2.4462e-13
2.42769e-13
2.41126e-13
2.3969e-13
2.38461e-13
2.37437e-13
2.36619e-13
2.36006e-13
2.35597e-13
2.35393e-13
)
;
    }
    Wall
    {
        type            calculated;
        value           nonuniform List<scalar> 
400
(
4.60756e-13
1.37984e-12
2.29328e-12
3.19859e-12
4.09361e-12
4.97647e-12
5.84551e-12
6.69931e-12
7.53658e-12
8.35625e-12
9.1574e-12
9.93925e-12
1.07012e-11
1.14427e-11
1.21634e-11
1.2863e-11
1.35414e-11
1.41985e-11
1.48344e-11
1.5449e-11
1.60426e-11
1.66155e-11
1.71677e-11
1.76998e-11
1.8212e-11
1.87046e-11
1.91782e-11
1.96331e-11
2.00698e-11
2.04888e-11
2.08904e-11
2.12752e-11
2.16437e-11
2.19963e-11
2.23334e-11
2.26556e-11
2.29632e-11
2.32568e-11
2.35368e-11
2.38036e-11
2.40576e-11
2.42993e-11
2.4529e-11
2.47471e-11
2.49539e-11
2.515e-11
2.53355e-11
2.55108e-11
2.56763e-11
2.58323e-11
2.5979e-11
2.61168e-11
2.62459e-11
2.63666e-11
2.64792e-11
2.65838e-11
2.66808e-11
2.67703e-11
2.68526e-11
2.69279e-11
2.69964e-11
2.70582e-11
2.71136e-11
2.71628e-11
2.72058e-11
2.72429e-11
2.72743e-11
2.73e-11
2.73202e-11
2.73351e-11
2.73448e-11
2.73494e-11
2.7349e-11
2.73439e-11
2.73339e-11
2.73194e-11
2.73004e-11
2.7277e-11
2.72493e-11
2.72174e-11
2.71813e-11
2.71413e-11
2.70973e-11
2.70495e-11
2.6998e-11
2.69427e-11
2.68839e-11
2.68216e-11
2.67558e-11
2.66866e-11
2.66142e-11
2.65385e-11
2.64597e-11
2.63777e-11
2.62928e-11
2.62049e-11
2.61141e-11
2.60205e-11
2.59241e-11
2.5825e-11
2.57233e-11
2.56189e-11
2.55121e-11
2.54028e-11
2.5291e-11
2.5177e-11
2.50606e-11
2.49419e-11
2.48211e-11
2.46981e-11
2.45731e-11
2.4446e-11
2.4317e-11
2.4186e-11
2.40532e-11
2.39185e-11
2.37821e-11
2.36439e-11
2.35041e-11
2.33626e-11
2.32196e-11
2.30751e-11
2.29291e-11
2.27816e-11
2.26328e-11
2.24827e-11
2.23313e-11
2.21786e-11
2.20248e-11
2.18698e-11
2.17137e-11
2.15566e-11
2.13984e-11
2.12393e-11
2.10793e-11
2.09184e-11
2.07567e-11
2.05942e-11
2.0431e-11
2.0267e-11
2.01024e-11
1.99372e-11
1.97714e-11
1.96051e-11
1.94383e-11
1.9271e-11
1.91033e-11
1.89353e-11
1.87669e-11
1.85982e-11
1.84293e-11
1.82602e-11
1.80908e-11
1.79214e-11
1.77518e-11
1.75822e-11
1.74125e-11
1.72428e-11
1.70731e-11
1.69036e-11
1.67341e-11
1.65647e-11
1.63956e-11
1.62266e-11
1.60579e-11
1.58894e-11
1.57212e-11
1.55533e-11
1.53858e-11
1.52187e-11
1.5052e-11
1.48857e-11
1.47199e-11
1.45546e-11
1.43898e-11
1.42256e-11
1.40619e-11
1.38989e-11
1.37364e-11
1.35746e-11
1.34135e-11
1.3253e-11
1.30933e-11
1.29343e-11
1.27761e-11
1.26187e-11
1.2462e-11
1.23062e-11
1.21512e-11
1.19971e-11
1.18438e-11
1.16915e-11
1.154e-11
1.13895e-11
1.12399e-11
1.10913e-11
1.09436e-11
1.0797e-11
1.06513e-11
1.05067e-11
1.0363e-11
1.02205e-11
1.00789e-11
9.93849e-12
9.79911e-12
9.66081e-12
9.52361e-12
9.38752e-12
9.25254e-12
9.11868e-12
8.98596e-12
8.85437e-12
8.72394e-12
8.59466e-12
8.46653e-12
8.33958e-12
8.2138e-12
8.08919e-12
7.96576e-12
7.84353e-12
7.72248e-12
7.60262e-12
7.48396e-12
7.3665e-12
7.25025e-12
7.13519e-12
7.02134e-12
6.9087e-12
6.79726e-12
6.68703e-12
6.57801e-12
6.4702e-12
6.3636e-12
6.2582e-12
6.154e-12
6.05101e-12
5.94922e-12
5.84863e-12
5.74924e-12
5.65104e-12
5.55403e-12
5.45821e-12
5.36358e-12
5.27013e-12
5.17785e-12
5.08674e-12
4.99681e-12
4.90804e-12
4.82042e-12
4.73396e-12
4.64864e-12
4.56447e-12
4.48143e-12
4.39953e-12
4.31874e-12
4.23908e-12
4.16052e-12
4.08307e-12
4.00671e-12
3.93145e-12
3.85726e-12
3.78415e-12
3.71211e-12
3.64113e-12
3.5712e-12
3.50231e-12
3.43446e-12
3.36764e-12
3.30183e-12
3.23704e-12
3.17324e-12
3.11044e-12
3.04863e-12
2.98779e-12
2.92792e-12
2.869e-12
2.81104e-12
2.75401e-12
2.69792e-12
2.64275e-12
2.58848e-12
2.53513e-12
2.48266e-12
2.43108e-12
2.38038e-12
2.33054e-12
2.28155e-12
2.23342e-12
2.18611e-12
2.13964e-12
2.09399e-12
2.04914e-12
2.00509e-12
1.96184e-12
1.91936e-12
1.87765e-12
1.83671e-12
1.79651e-12
1.75706e-12
1.71834e-12
1.68034e-12
1.64306e-12
1.60649e-12
1.57061e-12
1.53541e-12
1.50089e-12
1.46704e-12
1.43385e-12
1.40131e-12
1.36941e-12
1.33815e-12
1.3075e-12
1.27747e-12
1.24805e-12
1.21922e-12
1.19099e-12
1.16333e-12
1.13624e-12
1.10972e-12
1.08375e-12
1.05832e-12
1.03344e-12
1.00908e-12
9.85252e-13
9.61933e-13
9.39121e-13
9.16808e-13
8.94985e-13
8.73646e-13
8.52783e-13
8.32388e-13
8.12454e-13
7.92974e-13
7.73941e-13
7.55347e-13
7.37186e-13
7.19451e-13
7.02135e-13
6.85232e-13
6.68735e-13
6.52637e-13
6.36932e-13
6.21614e-13
6.06677e-13
5.92114e-13
5.7792e-13
5.64089e-13
5.50615e-13
5.37492e-13
5.24715e-13
5.12279e-13
5.00178e-13
4.88406e-13
4.7696e-13
4.65833e-13
4.55021e-13
4.44519e-13
4.34322e-13
4.24426e-13
4.14826e-13
4.05518e-13
3.96498e-13
3.87761e-13
3.79303e-13
3.71121e-13
3.6321e-13
3.55567e-13
3.48188e-13
3.4107e-13
3.34209e-13
3.27602e-13
3.21245e-13
3.15136e-13
3.09272e-13
3.03649e-13
2.98266e-13
2.93118e-13
2.88204e-13
2.83522e-13
2.79068e-13
2.74841e-13
2.70839e-13
2.67059e-13
2.63499e-13
2.60158e-13
2.57035e-13
2.54126e-13
2.51432e-13
2.4895e-13
2.4668e-13
2.4462e-13
2.42768e-13
2.41125e-13
2.39689e-13
2.3846e-13
2.37436e-13
2.36618e-13
2.36005e-13
2.35596e-13
2.35392e-13
)
;
    }
}


// ************************************************************************* //
