/*--------------------------------*- C++ -*----------------------------------*\
  =========                 |
  \\      /  F ield         | OpenFOAM: The Open Source CFD Toolbox
   \\    /   O peration     | Website:  https://openfoam.org
    \\  /    A nd           | Version:  10
     \\/     M anipulation  |
\*---------------------------------------------------------------------------*/
FoamFile
{
    format      ascii;
    class       volScalarField;
    location    "7.5";
    object      p;
}
// * * * * * * * * * * * * * * * * * * * * * * * * * * * * * * * * * * * * * //

dimensions      [1 -1 -2 0 0 0 0];

internalField   nonuniform List<scalar> 
5250
(
1.00001
1.00003
1.0001
1.00025
1.00067
1.00152
1.00411
1.00925
1.025
1.05782
1.15248
1.38623
2.06919
4.06539
9.59012
11.3394
11.1686
11.0829
11.167
11.3855
11.6046
11.7429
11.8496
11.9337
11.9983
1.00001
1.00003
1.00009
1.00026
1.00061
1.00161
1.0038
1.00966
1.02364
1.05881
1.14805
1.38429
2.05168
4.02402
9.49274
11.3408
11.1658
11.0738
11.1584
11.3774
11.596
11.7345
11.8427
11.9281
11.9941
1.00001
1.00003
1.0001
1.00024
1.00064
1.00147
1.00391
1.00908
1.02353
1.05656
1.14521
1.37187
2.02246
3.93059
9.27546
11.3439
11.1557
11.0452
11.128
11.3441
11.5597
11.6959
11.8033
11.8879
11.9537
1.00001
1.00003
1.00009
1.00025
1.00056
1.00153
1.00347
1.00929
1.02147
1.0561
1.13635
1.3593
1.97201
3.79204
8.93294
11.3545
11.1419
10.9978
11.0761
11.2855
11.4961
11.6277
11.7317
11.8139
11.8801
1.00001
1.00003
1.00009
1.00021
1.00058
1.00132
1.00358
1.00806
1.02175
1.05024
1.13236
1.33263
1.91419
3.60261
8.4621
11.3785
11.1263
10.9332
11.0052
11.2042
11.4078
11.5325
11.6308
11.7093
11.7769
1.00001
1.00003
1.00008
1.00021
1.0005
1.0013
1.00315
1.00776
1.01949
1.04748
1.12061
1.30823
1.83486
3.37386
7.85428
11.4171
11.1102
10.8512
10.9145
11.0986
11.292
11.4058
11.4938
11.5648
11.6327
1
1.00002
1.00008
1.00018
1.00049
1.00111
1.00299
1.00682
1.01805
1.04243
1.10983
1.27584
1.74707
3.10598
7.11339
11.4598
11.0943
10.7534
10.8046
10.9664
11.1447
11.2411
11.3108
11.3647
11.4272
1
1.00002
1.00007
1.00016
1.00044
1.00098
1.00267
1.006
1.01615
1.03725
1.09773
1.24143
1.65138
2.81643
6.26774
11.4576
11.0673
10.6454
10.6789
10.8064
10.9625
11.032
11.0702
11.0881
11.1249
1
1.00002
1.00006
1.00014
1.00038
1.00087
1.00234
1.00526
1.01418
1.03234
1.08564
1.20812
1.55838
2.53548
5.4107
11.327
10.9844
10.5286
10.5355
10.615
10.7389
10.768
10.7551
10.6996
10.6478
1
1.00002
1.00005
1.00014
1.00031
1.00084
1.00188
1.00509
1.01154
1.03059
1.07219
1.18794
1.48417
2.34264
4.86038
10.8296
10.7392
10.424
10.3568
10.3973
10.4662
10.4465
10.3555
10.1401
9.81851
1
1.00002
1.00004
1.00011
1.00028
1.00071
1.00171
1.0044
1.01025
1.02687
1.06355
1.16501
1.42272
2.16687
4.33546
9.911
10.4659
10.3066
10.16
10.1631
10.1561
10.0771
9.83633
9.27161
7.82377
1
1.00001
1.00004
1.0001
1.00026
1.00059
1.00155
1.00367
1.00926
1.02273
1.05628
1.14157
1.36589
1.99582
3.83398
8.82763
10.3084
10.1964
9.98146
9.92406
9.853
9.68255
9.30323
8.54123
7.05814
1
1.00001
1.00003
1.00008
1.00021
1.00051
1.00133
1.00305
1.00815
1.01855
1.04941
1.11754
1.31034
1.82646
3.34126
7.58946
10.2091
10.0961
9.83062
9.68711
9.56104
9.31074
8.84064
8.0738
6.91721
1
1.00001
1.00003
1.00007
1.00017
1.00045
1.00102
1.00274
1.0062
1.01651
1.03836
1.0999
1.24776
1.66666
2.85007
6.24498
10.1183
10.0056
9.70279
9.46208
9.27654
8.98601
8.50636
7.80834
6.90123
1
1.00001
1.00002
1.00005
1.00015
1.00033
1.00089
1.00202
1.00534
1.01236
1.03185
1.0765
1.19631
1.50616
2.38291
4.83605
9.85787
9.83924
9.60619
9.26436
9.02206
8.71598
8.26028
7.63859
6.8809
1
1.00001
1.00002
1.00005
1.00011
1.00029
1.00066
1.00177
1.00402
1.0106
1.02465
1.06353
1.15525
1.40701
2.09689
4.08604
9.02243
9.5763
9.42058
9.08696
8.80251
8.48974
8.06417
7.5082
6.85065
1
1
1.00001
1.00004
1.00009
1.00023
1.00053
1.00141
1.00319
1.00856
1.01936
1.05172
1.12216
1.32338
1.85639
3.40352
7.52178
9.29718
9.20937
8.95554
8.62295
8.29891
7.90029
7.39921
6.81802
1
1
1.00001
1.00003
1.00007
1.00017
1.00044
1.00102
1.0027
1.00613
1.01635
1.03748
1.09887
1.24181
1.65038
2.78261
5.93825
9.10175
9.07163
8.87744
8.48906
8.14141
7.76152
7.30609
6.78634
1
1
1.00001
1.00002
1.00005
1.00013
1.00034
1.00077
1.00203
1.00459
1.01221
1.02777
1.07322
1.1752
1.46281
2.22921
4.32853
8.66573
8.95928
8.79366
8.41527
8.02082
7.64516
7.22571
6.75599
1
1
1.00001
1.00002
1.00004
1.0001
1.00024
1.00063
1.00142
1.00378
1.00849
1.02276
1.05218
1.13683
1.34012
1.92034
3.52129
7.56509
8.72976
8.6252
8.33562
7.92131
7.54512
7.15358
6.72565
1
1
1
1.00001
1.00003
1.00007
1.00019
1.00044
1.00112
1.00268
1.00659
1.01643
1.03962
1.10014
1.2511
1.66438
2.81339
5.90717
8.474
8.44749
8.26141
7.86378
7.46585
7.08896
6.6953
1
1
1
1.00001
1.00002
1.00006
1.00013
1.00034
1.00076
1.002
1.00458
1.01184
1.02779
1.07046
1.17236
1.44677
2.17556
4.10293
7.98051
8.33812
8.19299
7.84292
7.4127
7.03698
6.66854
1
1
1
1.00001
1.00002
1.00004
1.00009
1.00024
1.00055
1.00145
1.00326
1.0087
1.01955
1.05198
1.12182
1.32036
1.83285
3.26507
6.81246
8.118
8.04671
7.80708
7.38241
6.99961
6.64649
1
1
1
1
1.00001
1.00003
1.00007
1.00016
1.00042
1.00095
1.00252
1.00565
1.0151
1.03424
1.09022
1.21745
1.5779
2.53904
5.09147
7.76084
7.85982
7.72714
7.39158
6.99136
6.63635
1
1
1
1
1.00001
1.00002
1.00005
1.00011
1.00028
1.00068
1.00165
1.00411
1.00969
1.02462
1.05843
1.14804
1.37226
1.97547
3.54847
6.99934
7.71751
7.63154
7.38549
7.0006
6.63932
1
1
1
1
1.00001
1.00001
1.00003
1.00008
1.0002
1.00046
1.00114
1.00279
1.00666
1.01684
1.03976
1.10117
1.24954
1.65404
2.73142
5.46878
7.45233
7.47203
7.3543
7.04615
6.65485
1
1
1
1
1
1.00001
1.00002
1.00005
1.00013
1.0003
1.00078
1.00176
1.00459
1.01055
1.02685
1.06392
1.1608
1.40338
2.04422
3.64748
6.88621
7.37958
7.29945
7.07618
6.69508
1
1
1
1
1
1.00001
1.00001
1.00004
1.00008
1.00021
1.0005
1.00121
1.00302
1.00705
1.01809
1.04206
1.10802
1.26412
1.69252
2.81298
5.60469
7.16289
7.1739
7.0636
6.7856
1
1
1
1
1
1
1.00001
1.00002
1.00005
1.00014
1.00031
1.00082
1.00185
1.00481
1.01104
1.02816
1.06684
1.16858
1.42255
2.09305
3.76086
6.65138
7.08036
7.01843
6.8323
1
1
1
1
1
1
1.00001
1.00002
1.00004
1.00009
1.00021
1.00051
1.00128
1.00293
1.00764
1.01719
1.04527
1.10497
1.27249
1.68867
2.79955
5.46538
6.85944
6.90885
6.81797
1
1
1
1
1
1
1
1.00001
1.00002
1.00006
1.00013
1.00033
1.00076
1.00198
1.00445
1.01168
1.02631
1.06873
1.16164
1.41807
2.05768
3.64777
6.33582
6.80984
6.77123
1
1
1
1
1
1
1
1.00001
1.00002
1.00003
1.00009
1.0002
1.00051
1.00118
1.00294
1.00713
1.017
1.04254
1.10192
1.25763
1.65345
2.68127
5.14216
6.57205
6.68849
1
1
1
1
1
1
1
1
1.00001
1.00002
1.00005
1.00012
1.00032
1.00071
1.00186
1.00413
1.01089
1.02425
1.0637
1.14757
1.38058
1.94544
3.31895
6.01278
6.60347
1
1
1
1
1
1
1
1
1.00001
1.00001
1.00003
1.00008
1.0002
1.00044
1.00116
1.00256
1.00679
1.01508
1.03965
1.09127
1.23533
1.58506
2.50566
4.72924
6.33896
1
1
1
1
1
1
1
1
1
1.00001
1.00002
1.00005
1.00011
1.00029
1.00064
1.00169
1.00375
1.00986
1.02211
1.05721
1.13376
1.34105
1.84747
3.08729
5.68525
1
1
1
1
1
1
1
1
1
1.00001
1.00001
1.00003
1.00007
1.00017
1.00043
1.00096
1.00252
1.0056
1.01473
1.03304
1.08598
1.20275
1.52376
2.31671
4.26557
1
1
1
1
1
1
1
1
1
1
1.00001
1.00002
1.00004
1.00011
1.00025
1.00065
1.00147
1.00377
1.00867
1.02177
1.05182
1.12846
1.31804
1.81019
3.04656
1
1
1
1
1
1
1
1
1
1
1.00001
1.00001
1.00003
1.00007
1.00018
1.00042
1.00103
1.00251
1.00597
1.01501
1.03523
1.08953
1.21768
1.56455
2.47418
1
1
1
1
1
1
1
1
1
1
1
1.00001
1.00002
1.00005
1.00014
1.00032
1.00084
1.00191
1.00512
1.0115
1.03101
1.07172
1.18929
1.48313
2.33231
1
1
1
1
1
1
1
1
1
1
1
1.00001
1.00002
1.00005
1.00012
1.00028
1.00075
1.0017
1.00461
1.01053
1.02814
1.06688
1.17546
1.45547
2.2672
1
1
1
1
1
1
1
1
1
1
1
1.00001
1.00002
1.00004
1.00011
1.00028
1.00065
1.00174
1.00399
1.01086
1.02506
1.067
1.16427
1.44288
2.22631
1
1
1
1
1
1
1
1
1
1
1
1.00001
1.00002
1.00004
1.00011
1.00026
1.00067
1.00157
1.00422
1.0097
1.02627
1.06221
1.16449
1.42882
2.20385
1
1
1
1
1
1
1
1
1
1
1
1.00001
1.00002
1.00004
1.0001
1.00027
1.00061
1.00167
1.00378
1.01036
1.02393
1.06428
1.15722
1.42565
2.18256
1
1
1
1
1
1
1
1
1
1
1
1.00001
1.00002
1.00004
1.0001
1.00026
1.0006
1.00163
1.00374
1.01012
1.02373
1.06282
1.15552
1.41877
2.16694
1
1
1
1
1
1
1
1
1
1
1
1.00001
1.00002
1.00004
1.0001
1.00024
1.00063
1.00149
1.00389
1.00952
1.02409
1.06077
1.15532
1.41142
2.15564
1
1
1
1
1
1
1
1
1
1
1
1.00001
1.00001
1.00004
1.00009
1.00025
1.00057
1.00157
1.00359
1.00987
1.02277
1.06184
1.15093
1.41076
2.14542
1
1
1
1
1
1
1
1
1
1
1
1.00001
1.00001
1.00004
1.00009
1.00024
1.00057
1.00153
1.00361
1.00952
1.02316
1.05999
1.15145
1.40697
2.14131
1
1
1
1
1
1
1
1
1
1
1
1.00001
1.00001
1.00004
1.00009
1.00024
1.00055
1.00152
1.00351
1.00959
1.02256
1.06026
1.1498
1.40658
2.13928
1
1
1
1
1
1
1
1
1
1
1
1.00001
1.00001
1.00004
1.00009
1.00022
1.00059
1.00139
1.00379
1.00878
1.02402
1.05742
1.153
1.40269
2.14141
1
1
1
1
1
1
1
1
1
1
1
1.00001
1.00001
1.00004
1.00009
1.00023
1.00056
1.00147
1.00351
1.00945
1.02242
1.06002
1.14945
1.40582
2.14066
3.72525
3.03828
3.99524
4.18041
3.89919
3.79572
3.74814
3.68592
3.59115
3.49485
3.41188
3.33333
3.24893
3.16545
3.08745
3.01266
2.94047
2.90399
2.88933
2.88591
2.90269
2.95917
3.05542
3.18268
3.32784
3.47884
3.62833
3.77193
3.90845
4.03487
4.15096
4.25641
4.35274
4.44044
4.51976
4.59289
4.65921
4.71785
4.76858
4.81205
4.8488
4.87939
4.90703
4.92914
4.94321
4.95158
4.95483
4.95421
4.95064
4.94208
4.92803
4.91124
4.89185
4.86988
4.8455
4.81891
4.79028
4.75983
4.72771
4.6941
4.65909
4.62286
4.58547
4.54707
4.50769
4.46747
4.42642
4.38466
4.3422
4.29911
4.25544
4.21122
4.16651
4.12135
4.07576
4.02982
3.98353
3.93697
3.89018
3.84322
3.79614
3.74901
3.70188
3.65483
3.6079
3.56117
3.51468
3.46852
3.42274
3.37743
3.33269
3.28863
3.24542
3.20327
3.16248
3.12355
3.08714
3.05445
3.02707
3.00832
4.60597
4.0103
4.19726
4.10595
3.88331
3.80741
3.79978
3.72149
3.59312
3.48047
3.39632
3.32753
3.24559
3.16109
3.08198
3.01081
2.94715
2.904
2.88456
2.87926
2.89316
2.94757
3.04204
3.16977
3.31642
3.46866
3.619
3.7625
3.89897
4.02527
4.14103
4.24582
4.34129
4.42857
4.50758
4.58197
4.64957
4.70857
4.75958
4.80359
4.84078
4.87227
4.89949
4.92132
4.93622
4.94509
4.94872
4.94835
4.94565
4.93834
4.92383
4.90673
4.88742
4.86588
4.84182
4.81552
4.78704
4.7568
4.72479
4.69134
4.65642
4.62031
4.58299
4.54467
4.50535
4.46519
4.42419
4.38248
4.34006
4.29702
4.25338
4.20922
4.16454
4.11942
4.07387
4.02795
3.9817
3.93518
3.88842
3.84149
3.79444
3.74734
3.70025
3.65324
3.60636
3.55967
3.51322
3.46711
3.42135
3.37608
3.33133
3.28727
3.24404
3.20181
3.16088
3.12178
3.0852
3.0522
3.02427
3.00484
5.41749
4.62705
4.38098
4.14127
3.92388
3.82064
3.76164
3.68082
3.57674
3.47514
3.40023
3.33633
3.24423
3.15325
3.06813
2.99541
2.93896
2.89979
2.87864
2.87132
2.88292
2.93052
3.01972
3.14678
3.29586
3.44861
3.59891
3.74095
3.88057
4.0078
4.12478
4.23098
4.32797
4.41666
4.49733
4.57168
4.63873
4.69808
4.74963
4.79428
4.83212
4.86415
4.89105
4.91274
4.92805
4.93747
4.94139
4.94113
4.93904
4.93295
4.91986
4.90182
4.88214
4.8608
4.83706
4.81105
4.78281
4.75272
4.72086
4.6875
4.6527
4.61666
4.57942
4.54115
4.50189
4.46175
4.4208
4.3791
4.33671
4.2937
4.25009
4.20595
4.16131
4.11622
4.0707
4.02481
3.97859
3.93209
3.88536
3.83846
3.79145
3.74441
3.69737
3.65042
3.60359
3.55698
3.51059
3.46454
3.41884
3.37363
3.3289
3.2848
3.24155
3.19935
3.15841
3.11912
3.08215
3.04854
3.01972
2.99917
5.78749
4.96409
4.5132
4.22192
4.00544
3.85662
3.76671
3.67549
3.57165
3.46913
3.38863
3.31587
3.23083
3.14255
3.06047
2.99034
2.9373
2.9007
2.8755
2.85582
2.86466
2.91496
3.00129
3.12671
3.27269
3.42454
3.57513
3.71923
3.85707
3.98496
4.10239
4.20931
4.30681
4.3961
4.47756
4.55206
4.61944
4.67935
4.73163
4.77694
4.81559
4.84825
4.87539
4.89715
4.91303
4.92314
4.92773
4.92761
4.92616
4.92152
4.91086
4.89259
4.87257
4.8512
4.82787
4.80234
4.77461
4.7449
4.7134
4.6803
4.64575
4.60989
4.57284
4.5347
4.49557
4.45554
4.41468
4.37307
4.33077
4.28783
4.2443
4.20023
4.15567
4.11063
4.06518
4.01934
3.97318
3.92672
3.88005
3.83321
3.78627
3.7393
3.69236
3.64552
3.59883
3.55235
3.50611
3.46019
3.41458
3.36949
3.32493
3.28105
3.2378
3.19547
3.15433
3.11473
3.07726
3.04288
3.01296
2.99096
5.97763
5.20501
4.6845
4.34175
4.10052
3.92475
3.79508
3.69063
3.58295
3.47896
3.39295
3.3117
3.22541
3.13953
3.06012
2.99295
2.94119
2.90414
2.88042
2.87478
2.88589
2.92681
3.01076
3.12397
3.25764
3.39852
3.5436
3.68555
3.82211
3.95052
4.06936
4.17833
4.27792
4.36889
4.45194
4.52745
4.59561
4.65624
4.70938
4.75542
4.79489
4.82824
4.85589
4.87803
4.89456
4.90545
4.91086
4.91094
4.90995
4.90647
4.89812
4.88127
4.86111
4.83949
4.81633
4.79124
4.76406
4.73485
4.70379
4.67104
4.6368
4.60119
4.56436
4.52641
4.48745
4.44756
4.40683
4.36533
4.32314
4.2803
4.23687
4.19289
4.1484
4.10345
4.05805
4.01229
3.96617
3.91979
3.87318
3.82644
3.77958
3.73276
3.68592
3.63929
3.59274
3.54643
3.50034
3.4547
3.40938
3.3645
3.32004
3.27622
3.233
3.19065
3.14933
3.10947
3.07148
3.03634
3.0053
2.98164
6.09481
5.39818
4.86466
4.48398
4.20923
4.00795
3.85367
3.72865
3.61369
3.50617
3.40902
3.3206
3.23339
3.14976
3.07559
3.01581
2.9727
2.94547
2.93418
2.937
2.95158
2.98956
3.06258
3.15088
3.25512
3.3693
3.49608
3.63132
3.76892
3.90118
4.0246
4.13753
4.24005
4.33304
4.41749
4.49409
4.56324
4.62495
4.67922
4.72636
4.76678
4.80101
4.82942
4.8523
4.86968
4.88157
4.88804
4.88894
4.88822
4.88559
4.87907
4.86544
4.84582
4.82419
4.80115
4.77644
4.74984
4.72126
4.69079
4.65856
4.62475
4.58951
4.55299
4.51531
4.47658
4.4369
4.39635
4.35503
4.31298
4.27029
4.22698
4.18312
4.13873
4.09386
4.04855
4.00285
3.95681
3.9105
3.86398
3.81734
3.77063
3.72401
3.67724
3.63088
3.58465
3.53875
3.49301
3.44764
3.40253
3.35785
3.31353
3.2698
3.22664
3.18429
3.14286
3.10273
3.06429
3.02841
2.99634
2.9711
6.17089
5.54878
5.02993
4.62997
4.32825
4.10147
3.92446
3.78375
3.66041
3.54709
3.44241
3.34557
3.25757
3.17859
3.1136
3.06679
3.04069
3.03337
3.03781
3.05513
3.09287
3.13536
3.17675
3.2238
3.28224
3.35597
3.4333
3.54815
3.68323
3.82301
3.9579
4.08057
4.18983
4.28687
4.37356
4.45148
4.52192
4.58502
4.64092
4.6897
4.73166
4.76726
4.79687
4.82086
4.83939
4.85255
4.86038
4.86262
4.86215
4.86024
4.85537
4.84494
4.82704
4.80611
4.78335
4.75896
4.73285
4.7049
4.67509
4.64349
4.61023
4.57546
4.53935
4.50201
4.46358
4.42417
4.38386
4.34274
4.30089
4.25836
4.21521
4.17147
4.1272
4.08242
4.03719
3.99157
3.9456
3.8994
3.85299
3.8065
3.75995
3.7136
3.66753
3.62148
3.57558
3.52998
3.4845
3.43936
3.39443
3.34994
3.30579
3.2622
3.21914
3.17683
3.13536
3.09506
3.05627
3.01977
2.98684
2.96019
6.22014
5.66288
5.17088
4.76771
4.44903
4.20074
4.00459
3.84758
3.71366
3.59386
3.48498
3.38676
3.30056
3.22849
3.17719
3.15094
3.15176
3.16154
3.19259
3.25934
3.31688
3.34153
3.34906
3.34971
3.352
3.36444
3.40053
3.47067
3.56687
3.70312
3.85163
3.99282
4.11784
4.22557
4.31873
4.39994
4.4725
4.5371
4.59472
4.6453
4.68915
4.72667
4.75799
4.78355
4.80359
4.8183
4.82774
4.83179
4.83158
4.83037
4.82695
4.81935
4.80411
4.78458
4.7625
4.73856
4.71291
4.68553
4.65636
4.62543
4.5928
4.5586
4.52296
4.48605
4.44798
4.40889
4.36886
4.328
4.28637
4.24404
4.20105
4.15747
4.11331
4.06864
4.02349
3.97796
3.93209
3.88603
3.83979
3.79365
3.74758
3.70164
3.65581
3.61016
3.56458
3.51925
3.47404
3.42915
3.38449
3.34023
3.29633
3.25294
3.21007
3.16787
3.12647
3.08609
3.0471
3.01012
2.97655
2.94875
6.25145
5.74854
5.28737
4.89158
4.56541
4.30238
4.0907
3.91872
3.7744
3.64792
3.53608
3.43785
3.35587
3.29617
3.26949
3.27242
3.28915
3.3361
3.4383
3.55436
3.59676
3.59267
3.57383
3.52641
3.44984
3.41003
3.41509
3.44025
3.4974
3.58681
3.71422
3.86445
4.00831
4.13529
4.2437
4.33534
4.4137
4.48152
4.54103
4.59326
4.63886
4.67857
4.71194
4.73957
4.7616
4.77826
4.78965
4.79585
4.79656
4.7959
4.79362
4.78816
4.77678
4.75912
4.73828
4.71516
4.69012
4.66333
4.6348
4.60455
4.5726
4.53905
4.504
4.46761
4.42999
4.39128
4.3516
4.31104
4.26967
4.22756
4.18477
4.14133
4.09729
4.05272
4.00764
3.9622
3.91646
3.87066
3.82488
3.77923
3.7336
3.68807
3.64254
3.59719
3.5519
3.50687
3.46197
3.41739
3.37304
3.3291
3.28548
3.24236
3.19972
3.15772
3.11644
3.0761
3.03701
2.99974
2.96572
2.93697
6.27033
5.81287
5.38286
5.00061
4.67441
4.40304
4.17974
3.99574
3.84194
3.70996
3.59642
3.50153
3.42932
3.39568
3.39919
3.4187
3.47388
3.59738
3.79344
3.90775
3.90666
3.88769
3.83191
3.71274
3.57992
3.48921
3.45398
3.45876
3.48089
3.53374
3.61144
3.72112
3.8603
4.00046
4.12987
4.24167
4.33521
4.41279
4.4779
4.53343
4.58137
4.62295
4.65848
4.68845
4.71292
4.73206
4.74588
4.7545
4.75765
4.75734
4.75595
4.7523
4.74442
4.72957
4.71063
4.68879
4.66467
4.63862
4.61076
4.58118
4.54992
4.51704
4.48263
4.44682
4.40972
4.37147
4.33218
4.29196
4.25088
4.20902
4.16642
4.12315
4.07922
4.03476
3.98969
3.94452
3.89921
3.85392
3.8086
3.76335
3.71806
3.67287
3.62766
3.58264
3.53766
3.49297
3.4484
3.40418
3.36018
3.31658
3.2733
3.23051
3.18816
3.14644
3.10537
3.06519
3.02617
2.98879
2.95454
2.92515
6.28087
5.86234
5.46133
5.09563
4.77458
4.50025
4.26957
4.07686
3.91558
3.78008
3.66784
3.58124
3.53329
3.53584
3.55462
3.61067
3.73811
3.99392
4.21037
4.26377
4.24846
4.19512
4.07403
3.89057
3.72933
3.61049
3.5369
3.50875
3.51204
3.52858
3.57086
3.63445
3.72192
3.84026
3.97496
4.10582
4.22157
4.31865
4.39811
4.46292
4.51638
4.56116
4.59909
4.63121
4.65804
4.67966
4.6962
4.70762
4.71386
4.71471
4.71406
4.71187
4.70665
4.69582
4.67901
4.65886
4.63607
4.61103
4.58398
4.55512
4.52454
4.49234
4.45859
4.4234
4.38687
4.34913
4.31028
4.27044
4.22969
4.18809
4.1457
4.10257
4.05875
4.0144
3.96984
3.92505
3.88019
3.83533
3.79038
3.74546
3.70049
3.65563
3.61078
3.56611
3.52153
3.47721
3.43305
3.38921
3.34561
3.3024
3.25952
3.2171
3.17515
3.13376
3.09304
3.05312
3.01432
2.97702
2.94278
2.9131
6.28747
5.90144
5.52688
5.17867
4.86614
4.59308
4.35908
4.16128
3.99583
3.86005
3.75541
3.68658
3.6871
3.70291
3.75649
3.88489
4.15132
4.47171
4.62304
4.61586
4.57659
4.47676
4.27594
4.06968
3.89649
3.76238
3.66527
3.60273
3.56943
3.56981
3.57765
3.60278
3.65391
3.71995
3.81325
3.93772
4.06472
4.18277
4.28476
4.36865
4.43582
4.48929
4.53239
4.56773
4.597
4.6211
4.64013
4.65455
4.66381
4.66803
4.66787
4.66678
4.66369
4.65682
4.64306
4.62515
4.60409
4.5804
4.5544
4.52641
4.49659
4.46511
4.43205
4.39753
4.36162
4.32446
4.28612
4.24673
4.20634
4.16503
4.12284
4.07985
4.03624
3.99231
3.94819
3.90394
3.85953
3.81506
3.77047
3.72592
3.68132
3.63684
3.59239
3.54814
3.50398
3.46008
3.41635
3.37294
3.32978
3.287
3.24456
3.20259
3.16106
3.12011
3.0798
3.04028
3.00184
2.96482
2.93079
2.9011
6.29181
5.93352
5.5829
5.25212
4.95005
4.68164
4.44814
4.24926
4.08438
3.95541
3.86712
3.84921
3.86343
3.91444
4.0399
4.30533
4.69326
4.94459
4.97129
4.94637
4.86592
4.69109
4.45839
4.2502
4.07683
3.93589
3.8232
3.73641
3.67314
3.63401
3.6172
3.62004
3.63403
3.66664
3.71333
3.78681
3.89176
4.01109
4.12928
4.2358
4.32516
4.39653
4.45221
4.49555
4.52968
4.55694
4.57873
4.5957
4.60794
4.61557
4.61787
4.61746
4.61582
4.61166
4.60279
4.58755
4.56846
4.54637
4.52169
4.49478
4.46586
4.43518
4.40285
4.36903
4.33379
4.29724
4.25947
4.22055
4.18056
4.13954
4.09755
4.05486
4.01173
3.96834
3.92469
3.88088
3.83687
3.79279
3.7486
3.70444
3.66025
3.6162
3.57219
3.52837
3.48467
3.44123
3.39798
3.35505
3.31238
3.2701
3.22817
3.18671
3.14571
3.10529
3.06551
3.02653
2.98864
2.95214
2.91857
2.88927
6.29648
5.96084
5.63202
5.31866
5.02858
4.76731
4.53814
4.34317
4.18634
4.07354
4.03405
4.0455
4.09102
4.20899
4.4632
4.89474
5.22518
5.31962
5.30144
5.23633
5.08728
4.85304
4.62829
4.43292
4.26561
4.12188
3.99843
3.89351
3.8068
3.73844
3.68952
3.6577
3.65187
3.65692
3.67371
3.70751
3.75914
3.84258
3.95019
4.06467
4.17288
4.26716
4.34432
4.40453
4.4503
4.4849
4.51127
4.53146
4.54647
4.55709
4.56291
4.56386
4.56325
4.56112
4.55599
4.54532
4.5287
4.50853
4.48546
4.45988
4.43208
4.40234
4.37085
4.3378
4.30329
4.26742
4.23025
4.19186
4.15229
4.11153
4.06995
4.02784
3.98528
3.94241
3.89923
3.85586
3.81228
3.76865
3.7249
3.6812
3.63748
3.59389
3.55036
3.50703
3.46384
3.42091
3.37819
3.33578
3.29366
3.25194
3.21058
3.1697
3.12931
3.08952
3.05041
3.01213
2.97497
2.93926
2.90643
2.87797
6.30501
5.98685
5.67756
5.38112
5.104
4.85246
4.63176
4.44849
4.3101
4.24362
4.2513
4.29046
4.39874
4.63685
5.08821
5.48078
5.63678
5.62715
5.58016
5.46377
5.23593
5.00608
4.80036
4.61932
4.45824
4.31283
4.18118
4.06271
3.95807
3.86789
3.79346
3.7347
3.69449
3.67011
3.67081
3.67774
3.69552
3.73254
3.79326
3.88663
3.9911
4.09772
4.19624
4.27989
4.34629
4.39653
4.43345
4.46025
4.47963
4.49331
4.50207
4.5065
4.50643
4.50558
4.5029
4.49673
4.48418
4.46644
4.44535
4.42142
4.39499
4.3664
4.33591
4.30374
4.27002
4.23488
4.19836
4.16052
4.12134
4.08115
4.04019
3.9987
3.95672
3.91439
3.8717
3.82882
3.78572
3.74257
3.69931
3.65611
3.6129
3.56982
3.52683
3.48404
3.4414
3.39904
3.3569
3.31509
3.27358
3.23248
3.19178
3.15158
3.11191
3.07289
3.03461
2.99724
2.96107
2.92652
2.89479
2.8678
6.32129
6.01633
5.72348
5.44271
5.17945
4.94124
4.73562
4.5753
4.47855
4.482
4.51448
4.61374
4.83823
5.28816
5.71876
5.93176
5.92897
5.89408
5.79766
5.60084
5.37118
5.16269
4.97729
4.80846
4.6515
4.50386
4.36532
4.23637
4.11821
4.01175
3.91807
3.83787
3.77214
3.7216
3.68784
3.67358
3.67538
3.68303
3.70384
3.74713
3.81741
3.91083
4.01337
4.11377
4.20339
4.27713
4.3337
4.37482
4.40363
4.42333
4.43593
4.44363
4.44608
4.44577
4.44442
4.44094
4.43339
4.41911
4.40061
4.37878
4.3541
4.32697
4.29771
4.26658
4.23376
4.1994
4.16356
4.12625
4.08767
4.04821
4.008
3.9672
3.92584
3.8841
3.84198
3.79966
3.75711
3.71451
3.67179
3.62915
3.5865
3.544
3.5016
3.45941
3.41739
3.37565
3.33416
3.29302
3.25221
3.21182
3.17188
3.13247
3.09366
3.05557
3.01833
2.98216
2.94732
2.91443
2.88428
2.85966
6.35422
6.05353
5.77263
5.50619
5.25853
5.03868
4.86059
4.73994
4.7324
4.7598
4.85283
5.07081
5.51161
5.96185
6.20576
6.225
6.19567
6.10726
5.92271
5.70609
5.50584
5.32488
5.15683
4.9962
4.84082
4.69051
4.5463
4.40947
4.28124
4.16269
4.05465
3.95787
3.87303
3.80098
3.74253
3.69943
3.67224
3.66601
3.66687
3.67483
3.69875
3.74926
3.82768
3.92148
4.02108
4.11546
4.19668
4.26098
4.30831
4.34095
4.36205
4.37473
4.38102
4.38192
4.38137
4.37951
4.37507
4.36579
4.3504
4.33122
4.30885
4.28367
4.25598
4.22611
4.19433
4.16083
4.12567
4.08904
4.05128
4.01266
3.97325
3.9332
3.89255
3.85149
3.81001
3.76833
3.72639
3.68441
3.64232
3.6003
3.55829
3.51643
3.47468
3.43316
3.39184
3.3508
3.31004
3.26964
3.22962
3.19005
3.15099
3.11253
3.07476
3.03784
3.00193
2.96734
2.93433
2.90381
2.87596
2.85503
6.41133
6.10001
5.82616
5.57425
5.34659
5.15651
5.02231
4.99631
5.0223
5.11324
5.32955
5.76863
6.22896
6.48671
6.51852
6.49043
6.40354
6.22198
6.01166
5.8226
5.6521
5.49118
5.3338
5.17754
5.02248
4.87
4.72167
4.57914
4.44351
4.31598
4.19712
4.08778
3.98839
3.89966
3.82219
3.75693
3.70544
3.66804
3.65164
3.64181
3.64328
3.6537
3.68222
3.74158
3.82466
3.92004
4.01633
4.10434
4.17734
4.23248
4.27069
4.29497
4.30843
4.3143
4.31423
4.31337
4.31086
4.30527
4.29393
4.27795
4.25844
4.23573
4.2101
4.18186
4.15137
4.11886
4.08452
4.04878
4.01197
3.97426
3.93571
3.8965
3.85666
3.81637
3.77565
3.7347
3.69348
3.6522
3.61081
3.56949
3.5282
3.48706
3.44606
3.40528
3.36473
3.32448
3.28455
3.245
3.20589
3.16728
3.12927
3.09195
3.05548
3.02005
2.9859
2.95346
2.92301
2.8959
2.87153
2.85568
6.47396
6.15578
5.88616
5.65123
5.45461
5.31239
5.2751
5.29997
5.39112
5.6109
6.05797
6.52603
6.78864
6.82127
6.79167
6.70034
6.51158
6.30503
6.12004
5.95686
5.80471
5.65473
5.50305
5.3493
5.1946
5.04092
4.88997
4.7435
4.60256
4.46834
4.34135
4.22246
4.11192
4.01043
3.9184
3.83639
3.76541
3.70642
3.661
3.63254
3.61577
3.60673
3.60983
3.62429
3.65866
3.72773
3.81273
3.90793
4.00036
4.08117
4.1453
4.19127
4.22066
4.23702
4.24315
4.24298
4.24175
4.23848
4.23146
4.21875
4.20221
4.1823
4.15918
4.13308
4.10432
4.07313
4.03995
4.00537
3.96961
3.93289
3.89531
3.85703
3.8181
3.77869
3.73882
3.6987
3.65829
3.61782
3.57723
3.53671
3.49623
3.4559
3.41573
3.3758
3.33614
3.29678
3.2578
3.21923
3.18118
3.1437
3.10696
3.07106
3.03625
3.00279
2.97103
2.94161
2.91484
2.89271
2.87287
2.86156
6.58331
6.23728
5.96124
5.74891
5.60081
5.56091
5.58628
5.68218
5.9135
6.38285
6.8602
7.11991
7.14258
7.10853
7.00617
6.79845
6.58837
6.4056
6.2472
6.10153
5.95902
5.81407
5.66502
5.51249
5.35804
5.20362
5.05099
4.90173
4.75698
4.61778
4.48462
4.35841
4.23928
4.12793
4.02465
3.92994
3.84411
3.76809
3.70285
3.64998
3.61085
3.58816
3.56766
3.56155
3.56691
3.58614
3.62895
3.70439
3.79143
3.8844
3.97203
4.04576
4.10129
4.13843
4.15946
4.16798
4.16781
4.16636
4.16245
4.15415
4.14046
4.12307
4.10248
4.07886
4.0523
4.02302
3.9916
3.95849
3.924
3.88842
3.85191
3.81467
3.77674
3.73832
3.69941
3.66023
3.62075
3.58119
3.54151
3.5019
3.46232
3.42292
3.3837
3.34472
3.30606
3.26773
3.22985
3.19244
3.15567
3.11957
3.08442
3.05036
3.01774
2.98697
2.95858
2.93342
2.91237
2.89553
2.88082
2.87665
6.63119
6.33749
6.06599
5.88921
5.8475
5.87618
5.98241
6.23555
6.7457
7.2365
7.49202
7.49171
7.44871
7.32729
7.09057
6.87054
6.68566
6.52946
6.38873
6.25248
6.11348
5.96967
5.82098
5.66844
5.51383
5.3588
5.20505
5.05381
4.90633
4.76324
4.62555
4.49346
4.36775
4.24866
4.13648
4.03166
3.93458
3.84557
3.76539
3.69479
3.63517
3.58715
3.55491
3.52926
3.51043
3.51113
3.51946
3.54321
3.59366
3.67135
3.76059
3.85133
3.93356
3.9998
4.04657
4.07458
4.08759
4.08801
4.08669
4.08265
4.07387
4.05886
4.04028
4.01892
3.99482
3.96797
3.93883
3.90767
3.87483
3.84067
3.80541
3.76933
3.7325
3.69516
3.65732
3.6192
3.58077
3.54225
3.5036
3.46502
3.42649
3.38814
3.35
3.31213
3.27463
3.23749
3.20092
3.16488
3.12967
3.09532
3.06222
3.03059
3.00099
2.97406
2.95043
2.93199
2.91662
2.90633
2.90202
2.90364
6.62704
6.46305
6.21933
6.14107
6.17289
6.29301
6.57747
7.14691
7.6617
7.90053
7.89074
7.82273
7.65685
7.39797
7.15996
6.96687
6.80884
6.66996
6.53747
6.40371
6.26482
6.12023
5.97079
5.81777
5.66279
5.50729
5.35266
5.2
5.05031
4.90435
4.76292
4.62629
4.49535
4.36991
4.25083
4.13805
4.03208
3.93299
3.84136
3.75756
3.68243
3.61688
3.56181
3.52079
3.48834
3.4635
3.44844
3.45106
3.46326
3.49291
3.55314
3.63221
3.72215
3.80978
3.88534
3.94288
3.9804
3.99972
4.00378
4.00265
3.99876
3.98997
3.97376
3.95417
3.93196
3.90763
3.88104
3.85228
3.82158
3.78926
3.75558
3.72089
3.68532
3.64919
3.61253
3.57558
3.53832
3.50098
3.46351
3.4261
3.38877
3.35162
3.31471
3.27813
3.24196
3.20627
3.17122
3.13693
3.10365
3.0716
3.04122
3.01303
2.98771
2.96639
2.95015
2.93783
2.93081
2.93188
2.93662
2.94994
6.61348
6.57242
6.48117
6.51013
6.63889
6.95399
7.58546
8.13498
8.35755
8.33523
8.23455
8.00961
7.71997
7.46273
7.25687
7.09205
6.95115
6.81958
6.68832
6.55299
6.41201
6.26573
6.1151
5.96141
5.80595
5.65
5.49457
5.34074
5.18921
5.04092
4.89628
4.75611
4.6206
4.49035
4.36551
4.24641
4.13323
4.02619
3.92558
3.83167
3.7449
3.66591
3.59531
3.53461
3.48434
3.44796
3.41405
3.38914
3.38193
3.38634
3.40211
3.43758
3.50631
3.58708
3.67494
3.75794
3.82636
3.87507
3.90332
3.9141
3.91343
3.91016
3.90218
3.88599
3.86581
3.84307
3.81837
3.79185
3.76354
3.7335
3.70186
3.66894
3.63496
3.60025
3.56496
3.52932
3.49339
3.45735
3.42123
3.38518
3.34922
3.31348
3.278
3.24294
3.20834
3.17441
3.14125
3.10916
3.07841
3.04947
3.02289
2.99964
2.98067
2.96762
2.95697
2.95663
2.9594
2.96864
2.99002
3.03632
6.62647
6.70161
6.80042
7.01789
7.4692
8.13372
8.66881
8.85637
8.81934
8.67936
8.38448
8.05985
7.78121
7.5608
7.38603
7.23902
7.10465
6.97274
6.8381
6.69883
6.55446
6.40607
6.25404
6.09956
5.94352
5.78706
5.63084
5.47597
5.32285
5.1726
5.02536
4.88216
4.74297
4.60863
4.47901
4.35469
4.23562
4.12216
4.01434
3.91246
3.8167
3.72749
3.64522
3.57055
3.50451
3.4473
3.40329
3.36386
3.33266
3.30979
3.3105
3.31735
3.33716
3.37966
3.45087
3.53392
3.61997
3.69745
3.75792
3.79697
3.81738
3.81849
3.8165
3.81048
3.79706
3.77611
3.75245
3.7274
3.70107
3.67325
3.64389
3.6131
3.58111
3.54816
3.51452
3.48041
3.44601
3.41146
3.37688
3.34236
3.30799
3.27387
3.2401
3.20683
3.17417
3.14239
3.11168
3.08245
3.05519
3.03054
3.00962
2.99364
2.98323
2.97738
2.97873
2.98449
3.00015
3.03364
3.08154
3.17772
6.5944
6.96869
7.38086
8.03754
8.81045
9.31825
9.4174
9.35385
9.15817
8.77064
8.41265
8.11455
7.88017
7.69487
7.5397
7.39916
7.26303
7.12577
6.9851
6.84061
6.69286
6.54165
6.388
6.23255
6.07587
5.91875
5.76179
5.60583
5.45139
5.29928
5.1499
5.00398
4.86178
4.72381
4.5903
4.46149
4.33765
4.21876
4.10504
3.99659
3.89369
3.79647
3.70525
3.62027
3.54219
3.47148
3.40927
3.35737
3.31382
3.27431
3.24543
3.22986
3.23206
3.24207
3.26701
3.31834
3.39165
3.47553
3.55825
3.62868
3.68019
3.71025
3.72019
3.71902
3.71454
3.70419
3.68386
3.66092
3.63582
3.60942
3.58189
3.55325
3.5235
3.49269
3.46108
3.42883
3.39625
3.36344
3.33064
3.29788
3.26537
3.23315
3.20142
3.17031
3.14008
3.11104
3.08358
3.05829
3.03599
3.01749
3.00576
2.99731
2.99728
3.00028
3.01018
3.03311
3.07924
3.15415
3.22662
3.35375
6.4151
7.50941
8.54824
9.56129
10.0958
10.0826
9.95751
9.64962
9.19049
8.78411
8.46015
8.21268
8.01894
7.85646
7.70862
7.56556
7.42227
7.27686
7.12893
6.9787
6.82667
6.67269
6.51725
6.36051
6.20287
6.04486
5.88703
5.72997
5.57429
5.42056
5.26929
5.12097
4.97607
4.83496
4.69798
4.56537
4.43744
4.31412
4.19557
4.08185
3.97306
3.86938
3.77091
3.67798
3.59077
3.50974
3.43541
3.3686
3.31039
3.26232
3.21703
3.18007
3.15301
3.14768
3.15128
3.16428
3.19408
3.25401
3.32918
3.41232
3.49032
3.55325
3.5943
3.61758
3.61739
3.61482
3.60768
3.59203
3.56895
3.54337
3.51697
3.49004
3.46236
3.43384
3.40456
3.37461
3.34422
3.31353
3.2828
3.25213
3.22176
3.19179
3.1625
3.13411
3.10699
3.08164
3.05864
3.03907
3.02376
3.01571
3.01223
3.01377
3.02055
3.03759
3.07284
3.13314
3.21215
3.31688
3.40836
3.53694
5.8765
8.60349
10.3664
10.9328
10.8812
10.6472
10.1462
9.62702
9.17838
8.82074
8.55588
8.35597
8.18919
8.03541
7.88457
7.7329
7.57965
7.42511
7.26969
7.1136
6.95705
6.79976
6.64194
6.48344
6.32443
6.16526
6.00634
5.84813
5.69115
5.53597
5.38302
5.23275
5.08563
4.94191
4.80199
4.66598
4.53406
4.40655
4.28367
4.16547
4.05184
3.943
3.83883
3.73965
3.64545
3.55655
3.47324
3.3959
3.32544
3.2618
3.20796
3.15879
3.11505
3.0824
3.06132
3.06203
3.06788
3.0849
3.12166
3.18793