/*--------------------------------*- C++ -*----------------------------------*\
  =========                 |
  \\      /  F ield         | OpenFOAM: The Open Source CFD Toolbox
   \\    /   O peration     | Website:  https://openfoam.org
    \\  /    A nd           | Version:  10
     \\/     M anipulation  |
\*---------------------------------------------------------------------------*/
FoamFile
{
    format      ascii;
    class       surfaceScalarField;
    location    "7.5";
    object      phi;
}
// * * * * * * * * * * * * * * * * * * * * * * * * * * * * * * * * * * * * * //

dimensions      [1 0 -1 0 0 0 0];

internalField   nonuniform List<scalar> 
10325
(
0.00840003
1.82031e-10
0.00840004
-4.29926e-12
0.00839998
3.18623e-09
0.00840012
1.35373e-10
0.00839966
2.34808e-08
0.00840089
1.08734e-08
0.00839743
1.27207e-07
0.00840555
1.33882e-07
0.00838727
6.53741e-07
0.008417
1.17534e-06
0.00837077
3.41265e-06
0.00840349
9.40943e-06
0.00833732
3.00866e-05
0.00822905
0.000118786
0.00761245
0.000593421
0.00698519
0.000629906
0.00637312
0.000613528
0.00573542
0.000637621
0.0050658
0.000669527
0.00435462
0.000711099
0.0035909
0.000763989
0.0027726
0.000818267
0.00190425
0.000868663
0.000983048
0.000921237
0.000982791
0.00840003
1.21498e-10
0.00840001
1.36656e-09
0.00840009
2.73029e-09
0.00839988
1.27612e-08
0.00840034
2.16011e-08
0.00839929
7.18106e-08
0.00840116
1.7032e-07
0.00839703
3.85965e-07
0.00840322
1.20505e-06
0.00838966
2.25422e-06
0.00840477
7.53115e-06
0.0083695
1.80939e-05
0.00835503
6.30824e-05
0.00821889
0.000238545
0.00760526
0.00118936
0.00697114
0.00126754
0.00636652
0.00121972
0.00573595
0.00126809
0.00506982
0.00133555
0.00435218
0.00142866
0.00358009
0.00153637
0.0027539
0.00164445
0.00187464
0.00174825
0.000949187
0.00184674
0.00193173
0.00840002
3.66645e-10
0.00840006
1.01273e-09
0.00839995
7.09444e-09
0.00840021
1.08094e-08
0.0083996
4.9578e-08
0.00840097
8.61523e-08
0.0083978
2.77794e-07
0.00840422
6.10232e-07
0.00839023
1.55053e-06
0.00841212
4.07835e-06
0.00837406
9.86368e-06
0.00840209
2.94145e-05
0.00833833
9.25366e-05
0.00823023
0.00035648
0.00762756
0.00176727
0.0069892
0.00190899
0.0063902
0.0018204
0.00576772
0.00189047
0.00510825
0.00199493
0.00439208
0.00214482
0.00361868
0.0023101
0.00278622
0.00247692
0.0018971
0.00263771
0.000957878
0.00278598
0.00288935
0.00840003
1.92421e-10
0.0084
2.70321e-09
0.00840012
5.14491e-09
0.00839982
2.60861e-08
0.00840052
3.98961e-08
0.0083989
1.6122e-07
0.00840258
2.7717e-07
0.00839424
9.33913e-07
0.00841043
1.87816e-06
0.00837962
5.426e-06
0.00841757
1.32884e-05
0.00835981
3.85884e-05
0.00836599
0.000122407
0.00823446
0.00046248
0.00768161
0.0023021
0.00704171
0.00255363
0.00644934
0.00241482
0.00583724
0.00250247
0.00518581
0.00264633
0.00447846
0.00285214
0.00370582
0.00308318
0.00287018
0.00331268
0.00196525
0.00354317
0.000999137
0.00375228
0.00388833
0.00840003
4.81302e-10
0.00840004
2.26878e-09
0.00839998
9.79794e-09
0.00840013
2.22043e-08
0.00839968
7.07708e-08
0.00840085
1.55744e-07
0.00839768
4.2084e-07
0.00840506
1.02184e-06
0.0083885
2.50228e-06
0.00841604
6.54737e-06
0.00837144
1.64291e-05
0.00840505
4.72527e-05
0.00834189
0.000148885
0.0082617
0.000553629
0.00778533
0.00275186
0.00713999
0.00320399
0.00654863
0.00300829
0.00594567
0.00310538
0.00530864
0.00328323
0.00461193
0.00354912
0.0038474
0.003848
0.00300581
0.00415456
0.0020818
0.00446768
0.00106968
0.00476455
0.004958
0.00840003
4.51664e-10
0.00840002
2.98981e-09
0.00840007
9.53093e-09
0.00839992
2.88937e-08
0.0084002
7.25547e-08
0.00839963
1.82693e-07
0.00840024
4.90808e-07
0.00839898
1.07849e-06
0.00839973
3.15126e-06
0.00839555
6.87733e-06
0.00839973
2.00464e-05
0.00837901
5.28717e-05
0.00836817
0.000170533
0.00829162
0.000618575
0.00797262
0.0030471
0.00731643
0.00386634
0.00671022
0.00361702
0.00611053
0.00370515
0.00548541
0.00390841
0.00480407
0.0042307
0.00404706
0.00460579
0.00320327
0.00499854
0.00225289
0.00541876
0.00118121
0.00583674
0.00613929
0.00840002
4.88268e-10
0.00840005
3.03921e-09
0.00839996
1.05302e-08
0.00840018
2.9997e-08
0.00839967
7.82512e-08
0.00840087
2.0422e-07
0.00839815
4.92203e-07
0.00840425
1.28766e-06
0.00839089
3.07218e-06
0.00841407
8.09927e-06
0.00837623
2.04365e-05
0.00841361
5.78163e-05
0.00836615
0.000178268
0.00835663
0.000641869
0.00829601
0.00307894
0.00762012
0.00454764
0.00696902
0.00427104
0.00636056
0.00431399
0.00574607
0.00452311
0.00507518
0.00490186
0.00432793
0.00535382
0.00348145
0.0058455
0.00250664
0.00639438
0.00135562
0.0069881
0.00749519
0.00840002
4.46765e-10
0.00840005
3.01976e-09
0.00839997
1.00484e-08
0.00840018
2.93847e-08
0.00839968
7.53998e-08
0.00840094
1.95132e-07
0.00839809
4.82567e-07
0.00840493
1.23027e-06
0.00839058
3.0109e-06
0.00841827
7.80967e-06
0.00837549
1.97973e-05
0.00842892
5.50156e-05
0.00839236
0.000167177
0.00846564
0.000588027
0.0088438
0.00267092
0.00813149
0.00526357
0.00736711
0.00503789
0.00673531
0.0049467
0.00611797
0.00514119
0.00545254
0.00556781
0.00471187
0.00609543
0.00386551
0.00669237
0.00287405
0.00738675
0.00164379
0.00821899
0.00913931
0.00840003
4.81402e-10
0.00840004
2.27283e-09
0.0084
1.00406e-08
0.00840011
2.21637e-08
0.0083998
7.44301e-08
0.00840068
1.53124e-07
0.00839853
4.57961e-07
0.00840432
9.8386e-07
0.00839223
2.72158e-06
0.0084191
6.31605e-06
0.00837962
1.67997e-05
0.00844305
4.36406e-05
0.00843076
0.00013045
0.00860748
0.000434199
0.00939198
0.00186547
0.00878303
0.0058677
0.00784392
0.00597532
0.00723837
0.00555264
0.00657497
0.00580514
0.00593264
0.0062104
0.00521022
0.00681862
0.00440702
0.00749616
0.00345694
0.00833749
0.00214294
0.00953381
0.0112827
0.00840003
4.05997e-10
0.00840001
2.37247e-09
0.00840008
8.36745e-09
0.00839992
2.33592e-08
0.00840033
6.14984e-08
0.00839943
1.52219e-07
0.00840163
3.95694e-07
0.00839702
9.10443e-07
0.00840782
2.4752e-06
0.00838753
5.51926e-06
0.0084238
1.53439e-05
0.00838236
3.81645e-05
0.00844119
0.000113736
0.008478
0.000370798
0.00880163
0.00153838
0.0086787
0.00597487
0.00824633
0.0063998
0.00761113
0.00618918
0.0070223
0.00639409
0.00644357
0.006789
0.00581923
0.00744349
0.00513524
0.00818052
0.00425683
0.00921641
0.00300076
0.0107906
0.014284
0.00840003
3.33448e-10
0.00840003
2.40833e-09
0.00840002
7.43161e-09
0.00840004
2.35026e-08
0.00840003
5.54341e-08
0.00839996
1.5417e-07
0.00840025
3.48611e-07
0.00839897
9.39186e-07
0.00840235
2.16568e-06
0.00839492
5.69804e-06
0.00840801
1.38731e-05
0.00839514
3.73436e-05
0.00841269
0.00010532
0.00842791
0.000344373
0.00861675
0.00134668
0.00857619
0.00599848
0.00828724
0.00668647
0.00782235
0.00665433
0.00740181
0.00681423
0.00694728
0.00724297
0.00651915
0.00787167
0.00602245
0.00867746
0.00555994
0.00967932
0.00548061
0.0108704
0.011368
0.00839709
0.00840003
3.11459e-10
0.00840004
2.3762e-09
0.00840001
7.25464e-09
0.00840009
2.30977e-08
0.0083999
5.3977e-08
0.00840035
1.53602e-07
0.00839942
3.34204e-07
0.00840108
9.6552e-07
0.00839784
2.02591e-06
0.00840337
5.96261e-06
0.00839326
1.31206e-05
0.0084096
3.76893e-05
0.00839036
0.000101295
0.00842071
0.000329858
0.00852059
0.00123254
0.00866562
0.00583643
0.0083357
0.00701662
0.00796748
0.00702292
0.00766277
0.00711863
0.00734278
0.00756227
0.00704267
0.00817131
0.00678746
0.0089326
0.00668299
0.00978399
0.00704794
0.0105061
0.0104717
0.00794432
0.00840003
3.93452e-10
0.00840003
1.97991e-09
0.00840003
8.16539e-09
0.00840003
1.93511e-08
0.00839998
6.01364e-08
0.00840015
1.31126e-07
0.0083995
3.79328e-07
0.00840143
8.27562e-07
0.00839622
2.30607e-06
0.00840786
5.2467e-06
0.00838664
1.41919e-05
0.00841676
3.52636e-05
0.00838762
0.000100704
0.00842748
0.000311476
0.00850432
0.00113674
0.00897842
0.00534551
0.0086257
0.00737087
0.00826002
0.00738972
0.00796503
0.00741309
0.00774105
0.00778589
0.00754761
0.00836448
0.00747115
0.00900894
0.00763166
0.00962383
0.00807941
0.0100583
0.00994487
0.00860665
0.00840003
2.94252e-10
0.00840002
2.14099e-09
0.00840005
6.50208e-09
0.00839998
2.09679e-08
0.00840018
4.90769e-08
0.00839971
1.36908e-07
0.00840093
3.19572e-07
0.00839828
8.29208e-07
0.00840492
2.03877e-06
0.00839136
5.0355e-06
0.00841871
1.30543e-05
0.00837925
3.29805e-05
0.00843756
9.16707e-05
0.00842387
0.000278636
0.00859949
0.000980392
0.00964938
0.00426915
0.00918068
0.00783926
0.00868973
0.00788066
0.00837051
0.00773302
0.00817121
0.0079849
0.00807674
0.008459
0.0081094
0.00897604
0.00831363
0.00941978
0.00870036
0.00967167
0.0095078
0.00913716
0.00840003
2.81989e-10
0.00840004
1.5785e-09
0.00840001
6.04237e-09
0.00840008
1.54432e-08
0.00839994
4.46257e-08
0.00840033
1.04147e-07
0.00839958
2.73811e-07
0.0084016
6.58786e-07
0.00839792
1.6223e-06
0.0084076
4.11011e-06
0.00839347
9.8456e-06
0.0084294
2.58059e-05
0.00841348
6.6714e-05
0.0085355
0.000194721
0.00885074
0.000640219
0.0105097
0.00260476
0.00993059
0.00840974
0.00949014
0.00831698
0.00893973
0.0082841
0.00867111
0.00825364
0.00858568
0.00854445
0.00863913
0.00892247
0.00883624
0.00922283
0.00915866
0.00934941
0.00915339
0.00951288
0.00840003
2.31657e-10
0.00840003
1.399e-09
0.00840005
4.90728e-09
0.0084
1.36174e-08
0.00840014
3.62405e-08
0.00839985
8.88464e-08
0.0084006
2.29629e-07
0.00839915
5.39152e-07
0.0084031
1.41253e-06
0.00839568
3.24655e-06
0.00841334
8.6147e-06
0.00839049
2.03934e-05
0.00844017
5.52507e-05
0.00843767
0.000153024
0.0086146
0.000494051
0.00927956
0.00191508
0.0100784
0.00759676
0.00977089
0.00862162
0.00937317
0.00868044
0.00911962
0.00850763
0.00903745
0.00862669
0.00908625
0.00887339
0.00925353
0.00905557
0.00951754
0.0090855
0.00887338
0.00979769
0.00840003
1.67607e-10
0.00840003
1.29382e-09
0.00840003
3.85863e-09
0.00840003
1.26556e-08
0.00840006
2.8857e-08
0.00839996
8.36568e-08
0.0084003
1.81261e-07
0.00839941
5.12997e-07
0.00840222
1.11337e-06
0.00839595
3.10821e-06
0.00841235
6.9446e-06
0.00838528
1.90467e-05
0.00843608
4.63789e-05
0.00840718
0.000133149
0.00853072
0.000409369
0.0089117
0.0015042
0.010007
0.00648749
0.00991122
0.0087168
0.00970346
0.00888766
0.0094824
0.00872925
0.00941011
0.00869954
0.00945912
0.0088242
0.00959424
0.00892031
0.00979928
0.00888049
0.00865458
0.0100181
0.00840003
1.67032e-10
0.00840003
1.03118e-09
0.00840003
3.58814e-09
0.00840003
1.00406e-08
0.00840002
2.66363e-08
0.00840008
6.64989e-08
0.00839991
1.69029e-07
0.00840058
4.1179e-07
0.00839892
1.03782e-06
0.00840406
2.52048e-06
0.00839379
6.39421e-06
0.00841852
1.58208e-05
0.00838948
4.11875e-05
0.00844969
0.000111015
0.00848667
0.000337117
0.00882976
0.00117462
0.0104732
0.00481827
0.0103142
0.00887298
0.0101207
0.00908003
0.00984767
0.00900216
0.00975676
0.00879283
0.0097886
0.00879278
0.00989254
0.00881616
0.0100428
0.00872999
0.00849273
0.0102051
0.00840003
1.42075e-10
0.00840003
7.50923e-10
0.00840003
2.95645e-09
0.00840003
7.35843e-09
0.00840003
2.17804e-08
0.00840009
4.88261e-08
0.00839995
1.36214e-07
0.00840057
3.00221e-07
0.00839929
8.20972e-07
0.00840386
1.83246e-06
0.00839608
4.91955e-06
0.0084204
1.13376e-05
0.00839621
3.02343e-05
0.00847695
7.61919e-05
0.00854548
0.000221948
0.00903348
0.000712037
0.0110668
0.00276448
0.0110067
0.00892492
0.0107488
0.00933642
0.0104163
0.00933391
0.0101776
0.00903283
0.010124
0.0088467
0.0101765
0.00876391
0.0102729
0.00863279
0.00838481
0.0103811
0.00840003
9.30531e-11
0.00840003
6.73454e-10
0.00840003
2.09236e-09
0.00840003
6.55378e-09
0.00840005
1.56112e-08
0.00840001
4.2695e-08
0.00840018
9.88256e-08
0.00839981
2.57725e-07
0.00840118
6.0524e-07
0.00839839
1.53208e-06
0.00840726
3.71253e-06
0.00839292
9.20923e-06
0.00843017
2.31266e-05
0.00840251
5.92348e-05
0.0085073
0.000164339
0.00866189
0.00051453
0.00952341
0.00191769
0.0110211
0.00740202
0.0109878
0.00936755
0.0107788
0.00954167
0.0105361
0.00927617
0.0104396
0.00894376
0.0104434
0.00876043
0.010493
0.00858328
0.00832456
0.0105527
0.00840003
8.4283e-11
0.00840003
4.86347e-10
0.00840003
1.81005e-09
0.00840004
4.75996e-09
0.00840001
1.33296e-08
0.0084001
3.21575e-08
0.00839996
8.24264e-08
0.00840032
2.0151e-07
0.00839988
4.92079e-07
0.00840085
1.25091e-06
0.00840059
2.94285e-06
0.00840267
7.75777e-06
0.00840547
1.83221e-05
0.00842011
4.93272e-05
0.00844225
0.000129976
0.00856951
0.000397327
0.00908435
0.00139168
0.0110842
0.0053804
0.011225
0.00922516
0.0111452
0.00962034
0.0109162
0.00950493
0.0107501
0.00911136
0.010699
0.00881244
0.0107067
0.00857572
0.00830136
0.0107301
0.00840003
6.03625e-11
0.00840003
3.80618e-10
0.00840003
1.3013e-09
0.00840003
3.72045e-09
0.00840005
9.66954e-09
0.0084
2.42552e-08
0.00840016
6.08109e-08
0.00839991
1.46636e-07
0.00840074
3.69968e-07
0.00839957
8.74661e-07
0.00840382
2.22589e-06
0.00839845
5.24858e-06
0.00841892
1.3502e-05
0.00840783
3.27558e-05
0.00848832
8.73315e-05
0.00859901
0.000244601
0.00922184
0.000790434
0.0116505
0.00293537
0.011811
0.00905328
0.0116838
0.00974553
0.011383
0.00980475
0.011113
0.00938259
0.0109799
0.00894604
0.0109324
0.00862347
0.00831827
0.0109152
0.00840003
4.07766e-11
0.00840003
2.95755e-10
0.00840003
9.22476e-10
0.00840003
2.89056e-09
0.00840004
6.85358e-09
0.00840003
1.90257e-08
0.00840009
4.27427e-08
0.00839996
1.15687e-07
0.00840053
2.59343e-07
0.00839945
6.87704e-07
0.00840344
1.57427e-06
0.00839673
4.08045e-06
0.00841878
9.62019e-06
0.00839168
2.48164e-05
0.00846949
6.20003e-05
0.00847794
0.000172303
0.0087926
0.000527908
0.00975354
0.00193442
0.0117228
0.007068
0.0118539
0.00961255
0.0117446
0.00991284
0.0114262
0.00970158
0.01127
0.009103
0.011172
0.00872167
0.00837368
0.0111165
0.00840003
3.55933e-11
0.00840003
2.04322e-10
0.00840003
7.4883e-10
0.00840003
1.99918e-09
0.00840003
5.52297e-09
0.00840004
1.31802e-08
0.00840002
3.4708e-08
0.00840016
8.04306e-08
0.00839989
2.10197e-07
0.00840097
4.84021e-07
0.00839896
1.26584e-06
0.00840602
2.93103e-06
0.0083948
7.64286e-06
0.00842869
1.81476e-05
0.00839651
4.77621e-05
0.00850196
0.000124314
0.0086032
0.000369616
0.00930157
0.00126084
0.011736
0.00459914
0.0120448
0.00929936
0.0120746
0.00988447
0.0119184
0.0098592
0.0115741
0.00944815
0.0114261
0.00887018
0.00846935
0.01133
0.00840003
2.32358e-11
0.00840003
1.53825e-10
0.00840003
5.15873e-10
0.00840003
1.49605e-09
0.00840003
3.82433e-09
0.00840005
9.77834e-09
0.00840003
2.38961e-08
0.00840011
5.95756e-08
0.00840006
1.43646e-07
0.0084003
3.57528e-07
0.00840061
8.56166e-07
0.00840095
2.13948e-06
0.00840452
5.1424e-06
0.0084068
1.29007e-05
0.00842576
3.18338e-05
0.00846608
8.25493e-05
0.0086027
0.000228374
0.00914506
0.000717549
0.0111663
0.00256933
0.0123763
0.00807403
0.0123741
0.00988548
0.0121918
0.0100411
0.0118692
0.00977185
0.0117084
0.00903138
0.00860675
0.0115706
0.00840003
1.69819e-11
0.00840003
1.08934e-10
0.00840003
3.7341e-10
0.00840003
1.065e-09
0.00840003
2.76097e-09
0.00840004
7.03601e-09
0.00840002
1.7125e-08
0.0084001
4.30135e-08
0.00840003
1.02781e-07
0.00840028
2.59369e-07
0.00840032
6.13938e-07
0.00840079
1.55374e-06
0.00840286
3.69305e-06
0.00840362
9.37878e-06
0.00841738
2.27675e-05
0.00843446
5.88797e-05
0.00850909
0.000155921
0.00875181
0.000470046
0.00967395
0.00164183
0.012131
0.00559244
0.0124659
0.00954489
0.0125374
0.00996917
0.0124147
0.00989467
0.0120199
0.00942617
0.00880875
0.0118184
0.00840003
1.23542e-11
0.00840003
7.14433e-11
0.00840003
2.66011e-10
0.00840003
6.9967e-10
0.00840003
1.95204e-09
0.00840004
4.64703e-09
0.00840002
1.19913e-08
0.00840009
2.85025e-08
0.0084
7.09828e-08
0.00840039
1.71799e-07
0.00839992
4.16222e-07
0.00840198
1.03247e-06
0.00839986
2.44413e-06
0.00841013
6.19371e-06
0.00840385
1.4623e-05
0.00844952
3.78662e-05
0.00847227
9.48887e-05
0.00871164
0.000268693
0.0094764
0.00084849
0.0121435
0.00291951
0.0129254
0.00874768
0.0128678
0.0100244
0.0126687
0.0100923
0.0123399
0.00975508
0.00903833
0.0121095
0.00840003
8.25709e-12
0.00840003
5.11832e-11
0.00840003
1.7805e-10
0.00840003
4.98533e-10
0.00840003
1.31792e-09
0.00840003
3.25137e-09
0.00840004
8.24183e-09
0.00840003
1.95712e-08
0.0084001
4.94736e-08
0.00840007
1.16127e-07
0.00840027
2.95092e-07
0.0084006
6.88303e-07
0.00840067
1.7497e-06
0.00840463
4.12102e-06
0.00840297
1.04526e-05
0.00842681
2.52577e-05
0.00843854
6.51676e-05
0.00855207
0.000172505
0.00885581
0.000523513
0.00995287
0.00182399
0.0126113
0.00605937
0.0129264
0.00970367
0.0130626
0.00995364
0.01286
0.00995635
0.00941921
0.0124792
0.00840003
5.2224e-12
0.00840003
3.47447e-11
0.00840003
1.15521e-10
0.00840003
3.3972e-10
0.00840003
8.51197e-10
0.00840003
2.22455e-09
0.00840004
5.26201e-09
0.00840003
1.34645e-08
0.0084001
3.14497e-08
0.0084
7.98209e-08
0.00840043
1.86272e-07
0.00839993
4.71021e-07
0.00840222
1.1089e-06
0.00839994
2.76982e-06
0.00841142
6.63927e-06
0.00840418
1.6555e-05
0.00845576
4.09215e-05
0.00847835
0.000106367
0.00874736
0.000296735
0.00958267
0.000951376
0.0124042
0.00321366
0.0132819
0.00881404
0.0132515
0.00998259
0.0131405
0.0100663
0.00976093
0.0127995
0.00840003
3.62809e-12
0.00840003
2.32198e-11
0.00840003
7.82639e-11
0.00840003
2.26131e-10
0.00840003
5.79795e-10
0.00840003
1.46426e-09
0.00840004
3.63685e-09
0.00840003
8.73439e-09
0.00840006
2.19567e-08
0.00840006
5.12855e-08
0.00840013
1.31484e-07
0.00840033
3.00802e-07
0.00840028
7.80805e-07
0.00840252
1.78145e-06
0.00840048
4.63451e-06
0.00841613
1.06727e-05
0.00840854
2.79149e-05
0.008478
6.76463e-05
0.00854921
0.000186185
0.00898173
0.000551185
0.0102484
0.00191369
0.0129456
0.00609564
0.0133014
0.00962316
0.0134517
0.00991552
0.00993365
0.013279
0.00840003
2.267e-12
0.00840003
1.51356e-11
0.00840003
5.04939e-11
0.00840003
1.47919e-10
0.00840003
3.72513e-10
0.00840003
9.67375e-10
0.00840003
2.29557e-09
0.00840004
5.85168e-09
0.00840004
1.36244e-08
0.00840005
3.46537e-08
0.00840013
8.05e-08
0.0084001
2.03738e-07
0.00840077
4.76844e-07
0.00840018
1.19389e-06
0.00840506
2.83454e-06
0.00840078
7.02723e-06
0.00842864
1.70859e-05
0.00842182
4.2709e-05
0.00853968
0.000109674
0.00873676
0.000306695
0.00969263
0.000977566
0.0125373
0.00320998
0.0135628
0.00858793
0.0135542
0.00992401
0.00993684
0.0135509
0.00840003
1.57246e-12
0.00840003
9.4343e-12
0.00840003
3.41359e-11
0.00840003
9.19544e-11
0.00840003
2.51101e-10
0.00840003
6.04278e-10
0.00840003
1.54342e-09
0.00840004
3.68195e-09
0.00840003
9.09348e-09
0.00840007
2.20769e-08
0.00840003
5.31711e-08
0.00840026
1.31754e-07
0.00840009
3.11e-07
0.00840107
7.83873e-07
0.00840117
1.82622e-06
0.00840403
4.6734e-06
0.00840958
1.08677e-05
0.00842384
2.81905e-05
0.00846145
6.84108e-05
0.00858777
0.000186739
0.00900376
0.000548959
0.0103369
0.00187393
0.0131483
0.00574752
0.0136416
0.00942435
0.00984103
0.0137335
0.00840003
9.64323e-13
0.00840003
6.12398e-12
0.00840003
2.10444e-11
0.00840003
5.97476e-11
0.00840003
1.54899e-10
0.00840003
3.88651e-10
0.00840003
9.57473e-10
0.00840003
2.33054e-09
0.00840004
5.7052e-09
0.00840005
1.37028e-08
0.00840005
3.35652e-08
0.00840015
8.03397e-08
0.00840007
1.97057e-07
0.00840095
4.70056e-07
0.00840004
1.15329e-06
0.00840603
2.76347e-06
0.00840045
6.77115e-06
0.00843406
1.63943e-05
0.00841926
4.09466e-05
0.00856315
0.000103818
0.00875316
0.000287003
0.00976342
0.000898989
0.0126133
0.00285418
0.0138602
0.00816873
0.00991926
0.0137771
0.00840003
6.29412e-13
0.00840003
3.85062e-12
0.00840003
1.34581e-11
0.00840003
3.75593e-11
0.00840003
9.87466e-11
0.00840003
2.43242e-10
0.00840003
6.14609e-10
0.00840003
1.44555e-09
0.00840003
3.68021e-09
0.00840004
8.44205e-09
0.00840004
2.17155e-08
0.00840011
4.94994e-08
0.00840005
1.27136e-07
0.00840061
2.91224e-07
0.00839997
7.41577e-07
0.0084037
1.71971e-06
0.00839989
4.33694e-06
0.00842047
1.02669e-05
0.00840604
2.57505e-05
0.00849479
6.38553e-05
0.00854284
0.000169059
0.00901269
0.000493858
0.0101599
0.0016533
0.0132412
0.00506985
0.00916117
0.0139858
0.00840003
3.71688e-13
0.00840003
2.38033e-12
0.00840003
8.2156e-12
0.00840003
2.3257e-11
0.00840003
6.0158e-11
0.00840003
1.52535e-10
0.00840003
3.6632e-10
0.00840003
9.2079e-10
0.00840003
2.14412e-09
0.00840003
5.44689e-09
0.00840005
1.24872e-08
0.00840004
3.19079e-08
0.00840018
7.28015e-08
0.00840004
1.85841e-07
0.008401
4.26794e-07
0.00840006
1.07847e-06
0.00840568
2.50883e-06
0.00840118
6.2795e-06
0.00843
1.49409e-05
0.00842219
3.74605e-05
0.00854636
9.38795e-05
0.00872474
0.000256822
0.00962234
0.000786327
0.0121477
0.0025175
0.00727639
0.0140065
0.00840003
2.34569e-13
0.00840003
1.44571e-12
0.00840003
5.031e-12
0.00840003
1.40987e-11
0.00840003
3.69635e-11
0.00840003
9.09332e-11
0.00840003
2.28152e-10
0.00840003
5.38276e-10
0.00840003
1.35367e-09
0.00840003
3.13031e-09
0.00840004
7.94025e-09
0.00840006
1.81607e-08
0.00840005
4.62135e-08
0.00840022
1.06014e-07
0.00840008
2.67288e-07
0.00840136
6.20944e-07
0.00840013
1.54129e-06
0.00840823
3.65642e-06
0.0084016
8.9547e-06
0.00844336
2.17889e-05
0.00843538
5.41578e-05
0.00861238
0.000140567
0.00892326
0.000404109
0.0101398
0.00132468
0.00404538
0.0133098
0.00840003
1.25045e-13
0.00840003
8.75054e-13
0.00840003
2.81425e-12
0.00840003
8.50152e-12
0.00840003
2.0653e-11
0.00840003
5.48444e-11
0.00840003
1.25642e-10
0.00840003
3.25848e-10
0.00840003
7.36245e-10
0.00840003
1.88446e-09
0.00840004
4.28327e-09
0.00840003
1.07988e-08
0.00840009
2.49698e-08
0.00840004
6.14501e-08
0.00840039
1.45579e-07
0.00840013
3.48777e-07
0.00840195
8.49756e-07
0.00840107
1.97752e-06
0.00840988
4.96116e-06
0.00840947
1.13998e-05
0.00845149
2.92633e-05
0.00848929
7.05972e-05
0.00872538
0.000194045
0.00942614
0.000588354
0.00193752
0.011497
0.00840003
7.76925e-14
0.00840003
4.44447e-13
0.00840003
1.66488e-12
0.00840003
4.31728e-12
0.00840003
1.20832e-11
0.00840003
2.77799e-11
0.00840003
7.24209e-11
0.00840003
1.63727e-10
0.00840003
4.12368e-10
0.00840003
9.47949e-10
0.00840003
2.30404e-09
0.00840005
5.45178e-09
0.00840003
1.27396e-08
0.00840011
3.12226e-08
0.00840007
6.9985e-08
0.00840041
1.76584e-07
0.00840056
3.82655e-07
0.0084015
9.90733e-07
0.00840452
2.08799e-06
0.00840724
5.48896e-06
0.00842792
1.16933e-05
0.0084568
3.08699e-05
0.00857274
7.37622e-05
0.00892352
0.0002143
0.000694832
0.0101238
0.00840003
3.55404e-14
0.00840003
2.45107e-13
0.00840003
7.90624e-13
0.00840003
2.38457e-12
0.00840003
5.69637e-12
0.00840003
1.51486e-11
0.00840003
3.3927e-11
0.00840003
8.71404e-11
0.00840003
1.93165e-10
0.00840003
4.84267e-10
0.00840003
1.08663e-09
0.00840003
2.64167e-09
0.00840004
6.08231e-09
0.00840006
1.41955e-08
0.00840003
3.37388e-08
0.00840028
7.58575e-08
0.00839987
1.84036e-07
0.00840189
3.99604e-07
0.0083985
9.91007e-07
0.00841144
2.08867e-06
0.00839419
5.29091e-06
0.00844699
1.1398e-05
0.00843113
2.91986e-05
0.00859825
7.38893e-05
0.000220075
0.00899817
0.00840003
1.82683e-14
0.00840003
1.23524e-13
0.00840003
3.95504e-13
0.00840003
1.18122e-12
0.00840003
2.89325e-12
0.00840003
7.1987e-12
0.00840003
1.76989e-11
0.00840003
3.92981e-11
0.00840003
1.02582e-10
0.00840003
2.07711e-10
0.00840003
5.81062e-10
0.00840004
1.08199e-09
0.00840002
3.25904e-09
0.00840007
5.58787e-09
0.00839995
1.79917e-08
0.0084003
2.92101e-08
0.00839955
9.81142e-08
0.00840155
1.53853e-07
0.00839737
5.25046e-07
0.00840759
8.53752e-07
0.00838815
2.70138e-06
0.0084234
5.07615e-06
0.00838223
1.44005e-05
0.00844454
3.50062e-05
9.94983e-05
0.00849971
0.00840003
1.30392e-14
0.00840003
4.82562e-14
0.00840003
2.53734e-13
0.00840003
4.70881e-13
0.00840003
1.76111e-12
0.00840003
3.15538e-12
0.00840003
9.97791e-12
0.00840003
1.91784e-11
0.00840003
5.22765e-11
0.00840003
1.14804e-10
0.00840003
2.68053e-10
0.00840003
6.84124e-10
0.00840003
1.29852e-09
0.00840003
4.19879e-09
0.00840004
6.06478e-09
0.00839994
2.52129e-08
0.00840023
2.70044e-08
0.00839908
1.49941e-07
0.0084018
1.12192e-07
0.00839441
8.57479e-07
0.00840715
6.31487e-07
0.00838255
4.13464e-06
0.00840281
5.9978e-06
0.00836978
2.15899e-05
5.64987e-05
0.00842477
0.00840003
4.83492e-15
0.00840003
4.12545e-14
0.00840003
1.04673e-13
0.00840003
4.03378e-13
0.00840003
7.9529e-13
0.00840003
2.35988e-12
0.00840003
5.30176e-12
0.00840003
1.21366e-11
0.00840003
3.36927e-11
0.00840003
6.10194e-11
0.00840003
2.04404e-10
0.00840003
3.03267e-10
0.00840003
1.22623e-09
0.00840002
1.49797e-09
0.00840001
7.28201e-09
0.00840003
7.01934e-09
0.00839975
4.23838e-08
0.00840039
3.16998e-08
0.00839767
2.44097e-07
0.00840285
1.67837e-07
0.0083888
1.28226e-06
0.00840409
1.39928e-06
0.00837207
6.17137e-06
0.00836899
1.34551e-05
4.34556e-05
0.00836436
0.00840003
4.35039e-15
0.00840003
2.19226e-14
0.00840003
8.95647e-14
0.00840003
2.02912e-13
0.00840003
6.65568e-13
0.00840003
1.30086e-12
0.00840003
3.96363e-12
0.00840003
8.34123e-12
0.00840003
2.21932e-11
0.00840003
5.0418e-11
0.00840003
1.23836e-10
0.00840003
3.08585e-10
0.00840004
6.89757e-10
0.0084
1.79874e-09
0.00840009
3.93036e-09
0.00839979
1.03797e-08
0.0084005
2.21295e-08
0.00839853
5.89963e-08
0.00840282
1.21229e-07
0.00839167
3.4189e-07
0.00841171
6.8658e-07
0.00836852
1.96822e-06
0.00840831
4.41812e-06
0.00833288
1.29483e-05
3.90337e-05
0.00835154
0.00840003
1.80449e-15
0.00840003
2.73541e-14
0.00840003
4.92794e-14
0.00840003
2.76959e-13
0.00840003
3.46832e-13
0.00840003
1.96117e-12
0.00840003
1.83999e-12
0.00840003
1.26101e-11
0.00840003
9.36048e-12
0.00840003
7.67105e-11
0.00840003
5.46348e-11
0.00840002
4.38956e-10
0.00840004
3.76901e-10
0.00839999
2.41375e-09
0.0084001
2.81099e-09
0.00839979
1.27135e-08
0.00840044
1.93907e-08
0.00839865
6.36903e-08
0.00840227
1.38088e-07
0.00839246
3.09511e-07
0.00840828
9.04748e-07
0.0083722
1.56791e-06
0.0084006
4.92414e-06
0.00833273
1.13728e-05
3.6504e-05
0.00833825
0.00840003
3.31202e-15
0.00840003
1.79689e-14
0.00840003
6.75475e-14
0.00840003
1.69864e-13
0.00840003
5.35541e-13
0.00840003
1.00897e-12
0.00840003
3.83482e-12
0.00840003
5.75181e-12
0.00840003
2.52151e-11
0.00840003
3.15363e-11
0.00840003
1.62537e-10
0.00840003
1.62651e-10
0.00840002
9.97769e-10
0.00840005
9.21526e-10
0.00839995
5.6956e-09
0.00840014
5.793e-09
0.00839962
3.14307e-08
0.00840039
3.75816e-08
0.00839812
1.63502e-07
0.00840044
2.53048e-07
0.00839133
7.8513e-07
0.00839817
1.57765e-06
0.00836391
4.13122e-06
0.00835896
1.03213e-05
3.11854e-05
0.00832638
0.00840003
4.89276e-15
0.00840003
6.4053e-15
0.00840003
8.46023e-14
0.00840003
6.85874e-14
0.00840003
6.15946e-13
0.00840003
6.18967e-13
0.00840003
3.7458e-12
0.00840003
4.69375e-12
0.00840003
2.16583e-11
0.00840003
3.57028e-11
0.00840003
1.14581e-10
0.00840003
2.65363e-10
0.00840003
5.90088e-10
0.00840001
1.81871e-09
0.00840005
2.88591e-09
0.00839985
1.19032e-08
0.00840026
1.42488e-08
0.00839875
7.35516e-08
0.00840178
6.64356e-08
0.00839259
4.35221e-07
0.00840754
2.71998e-07
0.00837097
2.1059e-06
0.00839585
2.45877e-06
0.00832775
9.40455e-06
2.3756e-05
0.00833431
0.00840003
1.3765e-15
0.00840003
1.70882e-14
0.00840003
3.49978e-14
0.00840003
1.6093e-13
0.00840003
2.9738e-13
0.00840003
1.00834e-12
0.00840003
2.12781e-12
0.00840003
6.29172e-12
0.00840003
1.42911e-11
0.00840003
3.68078e-11
0.00840003
9.29068e-11
0.00840002
2.19391e-10
0.00840004
5.808e-10
0.00839999
1.24702e-09
0.00840008
3.56535e-09
0.00839983
6.80517e-09
0.00840027
2.17724e-08
0.00839894
3.50712e-08
0.00840109
1.20447e-07
0.00839408
1.67831e-07
0.00840318
6.27431e-07
0.00837516
9.11063e-07
0.00838988
2.83882e-06
0.00832296
5.97587e-06
1.69194e-05
0.00832873
0.00840003
1.89291e-15
0.00840003
3.52021e-15
0.00840003
4.21678e-14
0.00840003
4.61487e-14
0.00840003
2.79241e-13
0.00840003
5.62212e-13
0.00840003
1.48399e-12
0.00840003
4.63959e-12
0.00840003
7.62373e-12
0.00840003
3.53153e-11
0.00840003
3.98993e-11
0.00840002
2.34162e-10
0.00840004
2.26565e-10
0.00839999
1.51166e-09
0.00840009
1.13339e-09
0.00839979
9.0941e-09
0.0084004
5.12572e-09
0.00839861
5.29918e-08
0.00840206
1.96833e-08
0.00839196
2.84239e-07
0.00840746
5.74887e-08
0.00836807
1.24455e-06
0.00839474
9.37268e-07
0.00831351
4.5889e-06
9.39851e-06
0.00832935
0.00840003
-1.80517e-15
0.00840003
1.54807e-14
0.00840003
-1.79659e-14
0.00840003
1.54618e-13
0.00840003
-1.02822e-13
0.00840003
8.93764e-13
0.00840003
-4.07813e-13
0.00840003
4.9424e-12
0.00840003
8.64226e-13
0.00840003
2.20489e-11
0.00840003
2.7484e-11
0.00840003
1.0126e-10
0.00840003
3.09803e-10
0.00840002
2.5887e-10
0.0084
2.77233e-09
0.0084
-6.48633e-10
0.00839971
2.07703e-08
0.00840017
-1.70458e-08
0.0083975
1.39748e-07
0.00840127
-1.49245e-07
0.00838759
7.41769e-07
0.00839611
-4.59368e-07
0.00836045
2.24923e-06
0.00833387
6.67956e-07
5.06652e-06
0.00831684
0.00840003
0.00840003
0.00840003
0.00840003
0.00840003
0.00840003
0.00840003
0.00840003
0.00840003
0.00840003
0.00840003
0.00840003
0.00840002
0.00840003
0.0084
0.00839996
0.00839995
0.00839926
0.00840011
0.00839479
0.00839954
0.00837909
0.00837419
0.00832371
0.00832424
0.00404711
0.00435014
0.00176557
0.00228146
-0.000448057
0.00221359
-0.00156819
0.00112108
-0.0021993
0.000631737
-0.00258711
0.000387663
-0.00271681
0.000128966
-0.00282692
0.000108449
-0.00299492
0.000165899
-0.00315971
0.000162576
-0.00329016
0.000127961
-0.00339235
9.96269e-05
-0.00349206
9.71424e-05
-0.00358454
8.96053e-05
-0.00366133
7.3704e-05
-0.0037131
4.87868e-05
-0.00374392
2.70616e-05
-0.00378431
3.49746e-05
-0.00382382
3.34437e-05
-0.00385111
2.10307e-05
-0.00386362
3.29656e-06
-0.00385636
-1.96339e-05
-0.00381608
-5.55918e-05
-0.00373408
-9.87069e-05
-0.00361266
-0.000138919
-0.00346026
-0.000169169
-0.0032853
-0.000191418
-0.00309347
-0.000207179
-0.00288798
-0.000220019
-0.00267361
-0.000227992
-0.00245481
-0.000231196
-0.00223439
-0.000232959
-0.00201218
-0.000233974
-0.00178667
-0.000237055
-0.00156079
-0.00023715
-0.00132715
-0.000245326
-0.00109216
-0.00024597
-0.000858473
-0.000244091
-0.000627738
-0.000241017
-0.000397768
-0.000240009
-0.000168222
-0.00023945
6.79356e-05
-0.000246268
0.000298434
-0.000240654
0.00051614
-0.000227539
0.000725026
-0.000218552
0.000925931
-0.000210126
0.00111981
-0.000202507
0.00130509
-0.000193738
0.00148385
-0.000186823
0.00165957
-0.000183175
0.00183195
-0.000178911
0.00199846
-0.000172597
0.00215793
-0.000165201
0.00231115
-0.000158468
0.00245839
-0.000151893
0.00260025
-0.000145774
0.00273662
-0.000139607
0.00286785
-0.000133809
0.00299379
-0.000127973
0.00311488
-0.000122495
0.00323096
-0.000117013
0.00334261
-0.000111859
0.00344961
-0.000106754
0.00355241
-0.000101912
0.00365086
-9.71773e-05
0.00374519
-9.2639e-05
0.0038355
-8.82469e-05
0.00392165
-8.40191e-05
0.00400412