/*--------------------------------*- C++ -*----------------------------------*\
  =========                 |
  \\      /  F ield         | OpenFOAM: The Open Source CFD Toolbox
   \\    /   O peration     | Website:  https://openfoam.org
    \\  /    A nd           | Version:  10
     \\/     M anipulation  |
\*---------------------------------------------------------------------------*/
FoamFile
{
    format      ascii;
    class       volScalarField;
    location    "7.5";
    object      T;
}
// * * * * * * * * * * * * * * * * * * * * * * * * * * * * * * * * * * * * * //

dimensions      [0 0 0 1 0 0 0];

internalField   nonuniform List<scalar> 
5250
(
1.00001
1.00002
1.00005
1.00013
1.00032
1.00077
1.00199
1.00463
1.01233
1.029
1.07711
1.20081
1.54274
2.28062
2.6978
2.7492
2.74127
2.74121
2.75219
2.76843
2.78026
2.78853
2.79469
2.79874
2.80197
1.00001
1.00002
1.00004
1.00014
1.00028
1.00086
1.00173
1.00509
1.01109
1.03042
1.07371
1.2008
1.53371
2.27092
2.69399
2.74894
2.74072
2.74041
2.75135
2.76749
2.77921
2.78743
2.79354
2.79752
2.80061
1.00001
1.00002
1.00005
1.00011
1.00033
1.00069
1.00204
1.00422
1.01221
1.02733
1.0748
1.19168
1.52196
2.24509
2.68543
2.74801
2.739
2.73796
2.74894
2.76442
2.7763
2.78399
2.79007
2.79358
2.79675
1.00001
1.00002
1.00004
1.00013
1.00027
1.00078
1.00164
1.00479
1.01021
1.02871
1.06819
1.18693
1.4962
2.20784
2.67129
2.74651
2.73613
2.73385
2.74401
2.76016
2.77109
2.77959
2.78508
2.78897
2.79157
1.00001
1.00002
1.00004
1.00011
1.00028
1.00067
1.00174
1.004
1.01078
1.02506
1.06688
1.17247
1.46817
2.15187
2.65143
2.74435
2.73204
2.72791
2.73823
2.75269
2.76392
2.77114
2.77709
2.78022
2.78323
1
1.00002
1.00004
1.00011
1.00023
1.00069
1.00144
1.00409
1.00912
1.02459
1.05958
1.16081
1.4281
2.0795
2.62412
2.74087
2.7261
2.72004
2.72971
2.74484
2.75505
2.76199
2.76682
2.77006
2.77188
1
1.00001
1.00004
1.00009
1.00025
1.00053
1.00154
1.0032
1.00931
1.02044
1.05624
1.14126
1.38611
1.98401
2.58823
2.73431
2.71714
2.70856
2.71791
2.73197
2.74278
2.74866
2.75253
2.75389
2.7552
1
1.00001
1.00003
1.00008
1.00022
1.00048
1.00134
1.00288
1.00819
1.0181
1.04963
1.12339
1.33671
1.87102
2.54072
2.72243
2.70418
2.69421
2.70381
2.71688
2.72659
2.73211
2.73402
2.73329
2.72963
1
1.00001
1.00003
1.00007
1.00018
1.00044
1.00115
1.00259
1.00705
1.01592
1.04301
1.1062
1.28781
1.75148
2.48244
2.70354
2.68459
2.67557
2.68403
2.69738
2.70604
2.70939
2.70843
2.70195
2.68742
1
1.00001
1.00002
1.00007
1.00015
1.00042
1.00091
1.00259
1.0055
1.01559
1.03541
1.09642
1.25005
1.66931
2.42252
2.68427
2.67066
2.66136
2.66493
2.67499
2.68198
2.68262
2.67539
2.65387
2.59752
1
1.00001
1.00002
1.00005
1.00015
1.00033
1.0009
1.00204
1.00534
1.01278
1.03265
1.08255
1.22049
1.58683
2.33086
2.6488
2.65968
2.65129
2.64802
2.65278
2.65486
2.65019
2.63165
2.58584
2.47985
1
1.00001
1.00002
1.00004
1.00014
1.00027
1.00082
1.00167
1.00486
1.01067
1.02905
1.0704
1.1908
1.50608
2.21182
2.60175
2.65114
2.64165
2.63414
2.63256
2.62906
2.61677
2.58684
2.52337
2.41286
1
1.00001
1.00002
1.00004
1.0001
1.00027
1.00062
1.00157
1.00389
1.00945
1.02412
1.06016
1.15901
1.42603
2.06211
2.54064
2.63977
2.62986
2.61842
2.61204
2.60287
2.58336
2.54694
2.4832
2.38619
1
1.00001
1.00001
1.00004
1.00008
1.00023
1.00049
1.00139
1.00293
1.00848
1.01844
1.05105
1.12629
1.34479
1.88354
2.45965
2.61936
2.61236
2.60028
2.58936
2.57714
2.55497
2.51596
2.4574
2.37717
1
1
1.00001
1.00003
1.00007
1.00016
1.00046
1.00094
1.00277
1.00575
1.01642
1.03716
1.1009
1.25932
1.68357
2.35671
2.58201
2.5842
2.57543
2.56327
2.54888
2.52725
2.49082
2.43651
2.36874
1
1
1.00001
1.00002
1.00005
1.00015
1.00032
1.00091
1.00187
1.00548
1.01167
1.03246
1.07762
1.21066
1.55186
2.24678
2.54068
2.55997
2.55062
2.53921
2.52375
2.50123
2.46891
2.41953
2.35815
1
1
1.00001
1.00002
1.00005
1.00011
1.00028
1.00067
1.00162
1.00414
1.00969
1.02553
1.06195
1.1659
1.43879
2.07149
2.46922
2.53939
2.53097
2.51891
2.50167
2.47786
2.44807
2.40566
2.3505
1
1
1.00001
1.00002
1.00003
1.00009
1.00021
1.00053
1.00129
1.0031
1.00792
1.01887
1.04905
1.12473
1.33384
1.85627
2.37154
2.51261
2.51247
2.49982
2.48174
2.45727
2.42762
2.39047
2.3428
1
1
1
1.00001
1.00003
1.00007
1.00016
1.00039
1.00097
1.0023
1.00595
1.01378
1.03628
1.08897
1.2365
1.6153
2.24216
2.46626
2.48446
2.47587
2.45885
2.43729
2.40902
2.37521
2.33381
1
1
1
1.00001
1.00002
1.00005
1.00012
1.0003
1.00072
1.00183
1.00422
1.01118
1.02598
1.06869
1.175
1.46656
2.08778
2.41114
2.4599
2.45249
2.43655
2.41561
2.39065
2.36001
2.3235
1
1
1
1.00001
1.00002
1.00003
1.0001
1.0002
1.00059
1.00122
1.00346
1.00763
1.02046
1.04884
1.13008
1.33962
1.86521
2.31259
2.42957
2.43053
2.41795
2.39689
2.37202
2.34433
2.31167
1
1
1
1
1.00001
1.00003
1.00006
1.00017
1.00036
1.00103
1.0021
1.00615
1.01303
1.03599
1.08574
1.22927
1.59147
2.17305
2.37951
2.40183
2.39439
2.37685
2.35325
2.32819
2.29978
1
1
1
1
1.00001
1.00002
1.00005
1.00011
1.00028
1.0007
1.0016
1.00431
1.00949
1.026
1.0608
1.16378
1.42392
2.00189
2.31847
2.37529
2.37063
2.35557
2.33452
2.31106
2.28607
1
1
1
1
1.00001
1.00001
1.00003
1.00008
1.0002
1.00047
1.00123
1.00275
1.0075
1.01673
1.04522
1.11041
1.29595
1.75192
2.20901
2.33873
2.34638
2.33641
2.31783
2.2956
2.27241
1
1
1
1
1
1.00001
1.00003
1.00005
1.00015
1.00031
1.00086
1.00188
1.00501
1.01157
1.02982
1.07298
1.19124
1.49655
2.04702
2.27871
2.31659
2.31263
2.29887
2.27837
2.25712
1
1
1
1
1
1.00001
1.00002
1.00003
1.0001
1.00021
1.00059
1.00128
1.00344
1.00788
1.02032
1.0493
1.12835
1.33277
1.8228
2.18565
2.28334
2.28952
2.28191
2.26456
2.24205
1
1
1
1
1
1
1.00001
1.00002
1.00007
1.00014
1.0004
1.00081
1.00237
1.00485
1.0138
1.03051
1.08203
1.2036
1.53452
2.03891
2.23201
2.26207
2.25986
2.24721
2.22849
1
1
1
1
1
1
1.00001
1.00002
1.00004
1.00011
1.00023
1.00063
1.00139
1.00362
1.00853
1.02133
1.05279
1.1354
1.35208
1.84256
2.15771
2.23259
2.23779
2.23075
2.21487
1
1
1
1
1
1
1
1.00001
1.00003
1.00007
1.00015
1.00042
1.00085
1.00248
1.00506
1.01447
1.03184
1.08603
1.21319
1.55646
2.02122
2.18912
2.21374
2.21199
2.19979
1
1
1
1
1
1
1
1.00001
1.00002
1.00005
1.0001
1.00026
1.00059
1.0015
1.0036
1.00866
1.02178
1.05307
1.13652
1.35417
1.82616
2.11596
2.18466
2.19121
2.18517
1
1
1
1
1
1
1
1
1.00001
1.00003
1.00007
1.00015
1.00039
1.00093
1.00223
1.00558
1.01306
1.03353
1.08144
1.21125
1.54008
1.97982
2.14179
2.16805
2.16791
1
1
1
1
1
1
1
1
1.00001
1.00002
1.00004
1.00009
1.00026
1.00054
1.00153
1.00325
1.00878
1.01996
1.05205
1.12804
1.33711
1.77977
2.06433
2.13931
2.15017
1
1
1
1
1
1
1
1
1
1.00001
1.00002
1.00006
1.00015
1.00035
1.00089
1.00202
1.00533
1.01172
1.03153
1.07328
1.19252
1.48731
1.92213
2.09369
2.1272
1
1
1
1
1
1
1
1
1
1.00001
1.00002
1.00004
1.00009
1.00022
1.00056
1.00124
1.00335
1.0072
1.01979
1.04452
1.11896
1.29862
1.71684
2.01768
2.10418
1
1
1
1
1
1
1
1
1
1
1.00001
1.00002
1.00006
1.00014
1.00031
1.00083
1.00179
1.00491
1.01049
1.02857
1.06572
1.17267
1.4373
1.86733
2.06013
1
1
1
1
1
1
1
1
1
1
1.00001
1.00001
1.00003
1.00008
1.0002
1.00047
1.00122
1.0027
1.00724
1.01594
1.04261
1.10113
1.266
1.64035
1.98824
1
1
1
1
1
1
1
1
1
1
1
1.00001
1.00002
1.00006
1.00012
1.00033
1.00067
1.00194
1.00392
1.01114
1.02428
1.06489
1.15783
1.41004
1.86099
1
1
1
1
1
1
1
1
1
1
1
1.00001
1.00002
1.00003
1.00009
1.00019
1.00053
1.00113
1.00306
1.00689
1.01779
1.04259
1.10969
1.27894
1.68916
1
1
1
1
1
1
1
1
1
1
1
1
1.00001
1.00003
1.00006
1.00016
1.00039
1.00095
1.00243
1.00564
1.01502
1.03529
1.094
1.24329
1.66044
1
1
1
1
1
1
1
1
1
1
1
1
1.00001
1.00002
1.00006
1.00013
1.00037
1.0008
1.00231
1.00491
1.01417
1.0322
1.08868
1.23038
1.66899
1
1
1
1
1
1
1
1
1
1
1
1
1.00001
1.00002
1.00006
1.00013
1.00033
1.00081
1.00202
1.00513
1.01257
1.03241
1.08338
1.22463
1.63623
1
1
1
1
1
1
1
1
1
1
1
1
1.00001
1.00002
1.00005
1.00013
1.0003
1.00081
1.00196
1.00491
1.01249
1.03129
1.08169
1.22052
1.6149
1
1
1
1
1
1
1
1
1
1
1
1
1.00001
1.00002
1.00005
1.00013
1.00029
1.00083
1.00178
1.00522
1.01136
1.03222
1.07846
1.21826
1.60092
1
1
1
1
1
1
1
1
1
1
1
1
1.00001
1.00002
1.00005
1.00013
1.00028
1.00082
1.00173
1.00516
1.01115
1.03165
1.07731
1.21501
1.59135
1
1
1
1
1
1
1
1
1
1
1
1
1.00001
1.00002
1.00005
1.00011
1.00033
1.00066
1.00203
1.00431
1.0124
1.02883
1.07926
1.20917
1.58668
1
1
1
1
1
1
1
1
1
1
1
1
1.00001
1.00002
1.00005
1.00012
1.00029
1.00074
1.00178
1.00473
1.01122
1.03015
1.07603
1.20897
1.58307
1
1
1
1
1
1
1
1
1
1
1
1
1.00001
1.00002
1.00004
1.00012
1.00026
1.00079
1.00161
1.00493
1.01067
1.03035
1.07457
1.20839
1.58136
1
1
1
1
1
1
1
1
1
1
1
1
1.00001
1.00002
1.00004
1.00012
1.00026
1.00077
1.0016
1.00488
1.01049
1.03025
1.0739
1.20754
1.58234
1
1
1
1
1
1
1
1
1
1
1
1
1.00001
1.00002
1.00004
1.00012
1.00026
1.00072
1.00174
1.00444
1.01128
1.02874
1.07524
1.20592
1.58419
1
1
1
1
1
1
1
1
1
1
1
1
1.00001
1.00002
1.00005
1.0001
1.00029
1.00066
1.0018
1.00436
1.0113
1.02856
1.07556
1.20487
1.58671
2.33854
2.4644
2.68984
2.93612
2.9525
2.91206
2.89647
2.88494
2.86648
2.84466
2.82325
2.80398
2.78383
2.76326
2.74254
2.72325
2.7041
2.68928
2.68232
2.68014
2.68187
2.691
2.70895
2.73335
2.76156
2.78846
2.81553
2.83702
2.85961
2.87479
2.89128
2.90164
2.9129
2.92069
2.9273
2.93181
2.93616
2.93894
2.94014
2.94044
2.94
2.9391
2.93676
2.93416
2.9289
2.92554
2.91892
2.91341
2.90729
2.9011
2.8934
2.88563
2.87804
2.87013
2.86233
2.854
2.84569
2.83697
2.82842
2.81959
2.81086
2.80202
2.7929
2.78401
2.77455
2.76563
2.75607
2.74696
2.73763
2.72811
2.71889
2.70918
2.69964
2.69017
2.68016
2.67089
2.6607
2.65134
2.64116
2.63167
2.62144
2.61198
2.60164
2.59225
2.58197
2.57242
2.56251
2.5526
2.54317
2.53303
2.52397
2.51402
2.50511
2.49582
2.4872
2.47894
2.47129
2.46478
2.45963
2.45598
2.35078
2.44235
2.55209
2.77773
2.90094
2.95057
2.98789
3.00405
2.99273
2.97198
2.95766
2.94003
2.92473
2.90652
2.88744
2.87034
2.85213
2.83962
2.8308
2.82928
2.83157
2.84108
2.85576
2.87459
2.89435
2.90934
2.92596
2.93408
2.94391
2.94897
2.95362
2.95551
2.95412
2.95189
2.94861
2.94539
2.93947
2.93517
2.92646
2.92052
2.91291
2.90512
2.89662
2.88909
2.88112
2.87297
2.86378
2.85554
2.84634
2.838
2.82725
2.81788
2.80702
2.79784
2.78683
2.7776
2.76622
2.75708
2.7455
2.73662
2.72496
2.71628
2.70465
2.6958
2.68439
2.67514
2.66395
2.65445
2.64322
2.63379
2.6223
2.61304
2.60143
2.59215
2.58067
2.57121
2.55993
2.55029
2.53914
2.52944
2.51837
2.50862
2.49776
2.48782
2.47741
2.46712
2.45732
2.44669
2.43742
2.4267
2.41776
2.40732
2.39855
2.3887
2.38024
2.37125
2.36367
2.35632
2.35131
2.347
2.34044
2.36536
2.44294
2.49214
2.596
2.70655
2.82846
2.91576
2.9717
2.99378
2.99551
2.99162
2.99636
2.98969
2.97462
2.96613
2.95682
2.94586
2.94097
2.94092
2.94541
2.95432
2.96421
2.97574
2.98288
2.98539
2.98287
2.97703
2.9703
2.96107
2.95165
2.93848
2.9221
2.90804
2.89397
2.88261
2.86991
2.85874
2.84554
2.83455
2.82148
2.81081
2.798
2.78787
2.7752
2.76504
2.75247
2.74292
2.73088
2.72168
2.70919
2.69972
2.68763
2.67867
2.66717
2.65848
2.64753
2.63884
2.62847
2.61964
2.60994
2.60081
2.59171
2.58221
2.57351
2.56387
2.55536
2.54584
2.53742
2.52796
2.51966
2.51003
2.50181
2.49202
2.4838
2.47396
2.46568
2.45589
2.44743
2.43774
2.42914
2.41945
2.41089
2.40109
2.39276
2.38282
2.37475
2.3648
2.35689
2.34714
2.33924
2.32993
2.32197
2.31323
2.3054
2.29756
2.29053
2.28432
2.27958
2.27646
2.31768
2.30653
2.33193
2.3681
2.41307
2.48698
2.55381
2.65096
2.73655
2.83621
2.89857
2.92487
2.95163
2.9744
2.9851
2.98893
2.9873
2.96885
2.96171
2.97165
2.98491
2.98946
2.9899
2.9865
2.97906
2.96799
2.95137
2.93353
2.91521
2.89728
2.87908
2.86191
2.84487
2.82948
2.81397
2.79977
2.78513
2.77172
2.75783
2.74501
2.73173
2.71937
2.70684
2.69475
2.68276
2.67071
2.65902
2.64729
2.63654
2.62515
2.61419
2.60228
2.59157
2.58001
2.56986
2.55838
2.54864
2.53716
2.52774
2.51632
2.50703
2.49594
2.48661
2.47613
2.46661
2.45678
2.44705
2.43781
2.42802
2.41926
2.4095
2.40109
2.39139
2.38327
2.37362
2.36575
2.35615
2.34846
2.33891
2.33129
2.32188
2.31415
2.30504
2.29705
2.28834
2.28006
2.27174
2.26324
2.25513
2.24659
2.23847
2.23005
2.22197
2.21393
2.20617
2.19879
2.1919
2.18585
2.18114
2.178
2.30809
2.27131
2.26813
2.2843
2.30646
2.34815
2.3932
2.44428
2.50658
2.56602
2.64391
2.72465
2.78564
2.84348
2.88609
2.91083
2.92929
2.93137
2.93196
2.93314
2.93149
2.92364
2.91325
2.89812
2.87916
2.85634
2.83534
2.8144
2.79424
2.77517
2.75719
2.73966
2.72342
2.70709
2.69198
2.67683
2.6633
2.64969
2.63741
2.62483
2.61337
2.60178
2.59124
2.58062
2.57073
2.56088
2.55122
2.5422
2.53328
2.52526
2.51624
2.5079
2.4985
2.49056
2.48164
2.47395
2.46527
2.45763
2.44901
2.44136
2.43267
2.42493
2.41614
2.40828
2.39949
2.39146
2.3828
2.37454
2.36611
2.35756
2.34936
2.34057
2.3325
2.32355
2.31552
2.30649
2.29851
2.28941
2.28159
2.27243
2.26488
2.25566
2.24843
2.23918
2.23224
2.22297
2.2162
2.20689
2.20008
2.19095
2.18407
2.17529
2.16834
2.16
2.15318
2.14548
2.13924
2.13273
2.12828
2.12462
2.30077
2.2568
2.23265
2.22955
2.23797
2.25555
2.28728
2.31539
2.35639
2.39387
2.442
2.49072
2.54794
2.5985
2.6579
2.71372
2.76481
2.8084
2.83482
2.84496
2.84213
2.82716
2.80238
2.76794
2.73267
2.6959
2.66815
2.64294
2.62301
2.60551
2.58972
2.57591
2.56337
2.55219
2.5417
2.53246
2.52339
2.51537
2.50721
2.50013
2.49276
2.48635
2.47942
2.47316
2.46643
2.46002
2.45331
2.44666
2.4406
2.43402
2.42822
2.42065
2.41436
2.40637
2.40051
2.39243
2.38669
2.37844
2.37271
2.36451
2.35879
2.35073
2.34482
2.33684
2.33064
2.3227
2.31621
2.30831
2.30154
2.29364
2.28655
2.27867
2.27128
2.26349
2.25583
2.24814
2.24031
2.23264
2.22478
2.21704
2.2093
2.20144
2.19395
2.18586
2.17859
2.17024
2.16314
2.15475
2.14777
2.13943
2.13251
2.1244
2.11756
2.1098
2.10315
2.09591
2.08981
2.08361
2.07911
2.07572
2.29561
2.25002
2.21657
2.19826
2.19278
2.19712
2.21089
2.22796
2.25099
2.27667
2.30538
2.3376
2.37284
2.41284
2.45356
2.50173
2.54597
2.59051
2.62263
2.64798
2.64703
2.6306
2.59783
2.55836
2.51794
2.4833
2.46062
2.44514
2.43858
2.43516
2.43457
2.43346
2.43252
2.43059
2.42931
2.42734
2.42612
2.42418
2.42221
2.41932
2.41626
2.41257
2.4089
2.40473
2.40059
2.39601
2.39121
2.38626
2.38137
2.37654
2.37155
2.36582
2.35971
2.35331
2.34702
2.34066
2.33425
2.32796
2.32125
2.31491
2.30785
2.30141
2.29412
2.28754
2.28011
2.27336
2.26586
2.25894
2.25145
2.24438
2.23694
2.22973
2.22235
2.21499
2.2077
2.20016
2.193
2.18525
2.17828
2.17025
2.16351
2.15523
2.14862
2.14017
2.13375
2.12531
2.11898
2.11065
2.10428
2.09616
2.08969
2.08187
2.07534
2.06791
2.06148
2.05458
2.04861
2.04268
2.03812
2.03497
2.29158
2.24631
2.20944
2.18311
2.16731
2.16061
2.16184
2.16877
2.18071
2.1945
2.21299
2.23327
2.25738
2.28617
2.31799
2.35726
2.39367
2.43327
2.46612
2.49415
2.49507
2.47958
2.44882
2.41311
2.37893
2.35208
2.33412
2.32537
2.3259
2.33236
2.34082
2.34709
2.35209
2.3545
2.35649
2.3565
2.35609
2.35526
2.3534
2.35195
2.349
2.34675
2.34286
2.33956
2.33512
2.33101
2.3261
2.32124
2.31613
2.31138
2.30653
2.30123
2.29555
2.28937
2.28347
2.27717
2.27132
2.26497
2.2591
2.25266
2.24666
2.24009
2.2339
2.2272
2.2209
2.21415
2.20788
2.20111
2.19482
2.18797
2.18153
2.17456
2.16791
2.16082
2.154
2.14679
2.13989
2.13252
2.12562
2.11806
2.11117
2.10344
2.09673
2.08897
2.08237
2.07467
2.06814
2.06063
2.05412
2.04691
2.04037
2.03351
2.02694
2.02046
2.01397
2.00798
2.00186
1.99676
1.99196
1.98962
2.28755
2.2429
2.20506
2.17438
2.15238
2.13803
2.13063
2.12905
2.13185
2.13859
2.14662
2.16134
2.17658
2.20022
2.22901
2.26139
2.29657
2.33472
2.37553
2.39981
2.39738
2.38093
2.35279
2.31799
2.2831
2.25822
2.2398
2.22839
2.22428
2.22777
2.23717
2.24774
2.25742
2.26433
2.26931
2.27227
2.2745
2.27567
2.27661
2.27688
2.27662
2.27586
2.27503
2.27333
2.27175
2.26923
2.26708
2.26384
2.2613
2.25786
2.25528
2.25119
2.24761
2.24249
2.23835
2.23308
2.22868
2.22333
2.21857
2.21309
2.208
2.20242
2.19705
2.1913
2.18562
2.17963
2.17361
2.16743
2.16115
2.15486
2.14837
2.14194
2.13527
2.12863
2.12181
2.11493
2.10805
2.1009
2.09399
2.0866
2.0798
2.07225
2.06556
2.0579
2.05133
2.04365
2.03711
2.02947
2.02291
2.01536
2.00874
2.00134
1.99472
1.98754
1.98105
1.97421
1.96812
1.96199
1.95713
1.95361
2.2831
2.24145
2.203
2.17081
2.14454
2.1252
2.11186
2.10383
2.10043
2.10059
2.10431
2.11183
2.12641
2.1461
2.17384
2.20339
2.24097
2.29115
2.33073
2.34586
2.33926
2.32177
2.29265
2.25508
2.22023
2.19356
2.17571
2.16482
2.15746
2.15758
2.16234
2.17284
2.18657
2.19865
2.20967
2.21749
2.22366
2.22764
2.23068
2.23244
2.23389
2.23452
2.23475
2.23437
2.23373
2.23241
2.23105
2.22868
2.22649
2.22359
2.22119
2.21806
2.21494
2.21075
2.20681
2.20216
2.19791
2.19301
2.18852
2.18338
2.17859
2.17313
2.168
2.16227
2.15686
2.15093
2.14531
2.13922
2.13343
2.12719
2.12127
2.11489
2.1089
2.10233
2.09625
2.08938
2.0832
2.07604
2.06991
2.06253
2.05648
2.04894
2.04296
2.03535
2.02941
2.02183
2.01587
2.00843
2.00242
1.99517
1.9891
1.98207
1.97594
1.96916
1.96306
1.9566
1.95075
1.94496
1.94015
1.93693
2.27526
2.23808
2.20163
2.16864
2.14078
2.11802
2.10054
2.08789
2.07971
2.07562
2.07573
2.08128
2.0956
2.11605
2.1401
2.17517
2.22289
2.27881
2.3101
2.31506
2.30543
2.2846
2.25103
2.21283
2.17949
2.15183
2.13264
2.11936
2.1116
2.10621
2.10639
2.11064
2.11971
2.13265
2.1465
2.1588
2.16888
2.17617
2.18158
2.18539
2.18802
2.18992
2.191
2.19173
2.19196
2.19159
2.19079
2.18942
2.18762
2.18523
2.18307
2.18049
2.1779
2.17443
2.17087
2.16677
2.16273
2.15826
2.15385
2.14902
2.14423
2.13903
2.13389
2.12838
2.12296
2.11725
2.11165
2.1058
2.10005
2.09406
2.08812
2.08189
2.07572
2.06921
2.06287
2.05614
2.0498
2.04292
2.0366
2.02961
2.02331
2.01627
2.00999
2.00298
1.9967
1.98978
1.98348
1.97667
1.97036
1.96371
1.9574
1.95096
1.94467
1.93849
1.93227
1.92643
1.92047
1.91527
1.91033
1.90765
2.2672
2.23341
2.1996
2.16772
2.13902
2.11477
2.09506
2.07933
2.06868
2.06163
2.06097
2.06814
2.08278
2.10368
2.13266
2.1775
2.23678
2.28352
2.29964
2.29606
2.28332
2.25779
2.22179
2.18532
2.15444
2.12819
2.10744
2.09168
2.08102
2.07439
2.06961
2.06974
2.07284
2.08013
2.09194
2.10614
2.11972
2.13127
2.14067
2.14739
2.15247
2.15575
2.15818
2.15981
2.16075
2.16137
2.16127
2.16067
2.15981
2.158
2.15669
2.15458
2.15301
2.1502
2.1475
2.14381
2.14041
2.13622
2.13228
2.12768
2.12332
2.11844
2.11375
2.10868
2.10373
2.0985
2.09328
2.08785
2.08237
2.07669
2.07096
2.06496
2.05899
2.05266
2.0466
2.04003
2.03396
2.02717
2.02109
2.01415
2.00806
2.00101
1.99492
1.98782
1.9817
1.97459
1.96841
1.9613
1.95505
1.94799
1.94169
1.93474
1.92846
1.92172
1.91554
1.90912
1.90324
1.89744
1.89255
1.88923
2.25706
2.22623
2.19546
2.16587
2.13817
2.11331
2.09247
2.07542
2.06299
2.05654
2.05788
2.06853
2.08364
2.10857
2.14845
2.20845
2.26445
2.29065
2.29343
2.28606
2.26788
2.23702
2.20295
2.17049
2.14223
2.11723
2.09608
2.07817
2.06432
2.05367
2.04763
2.04292
2.04214
2.04324
2.04812
2.05788
2.07059
2.08459
2.09701
2.10773
2.11571
2.12165
2.12582
2.12863
2.13051
2.13159
2.1321
2.13202
2.13149
2.13037
2.12905
2.1273
2.12584
2.12363
2.12128
2.11792
2.11468
2.11067
2.10683
2.10235
2.09807
2.09327
2.08867
2.0836
2.07871
2.07341
2.06827
2.06274
2.05736
2.05157
2.04596
2.03986
2.03407
2.02777
2.02194
2.01547
2.00962
2.00299
1.99711
1.99039
1.9845
1.97774
1.97183
1.96508
1.95914
1.95243
1.94645
1.9398
1.93379
1.92724
1.92122
1.91482
1.90882
1.90264
1.89672
1.89087
1.88519
1.87998
1.8752
1.87244
2.24705
2.21902
2.19013
2.16205
2.13623
2.112
2.0916
2.075
2.0632
2.06005
2.06562
2.07857
2.09876
2.13398
2.19172
2.25247
2.28728
2.29584
2.29182
2.27902
2.25366
2.2224
2.19219
2.16398
2.13841
2.11489
2.09358
2.07468
2.05808
2.04465
2.03375
2.02644
2.02172
2.01922
2.01936
2.02209
2.02923
2.04028
2.05382
2.06681
2.07846
2.08771
2.09477
2.09955
2.10285
2.10468
2.10574
2.10614
2.10602
2.10535
2.10453
2.10304
2.1019
2.10026
2.09856
2.09584
2.09297
2.08936
2.0858
2.08166
2.07762
2.07315
2.06876
2.06407
2.05937
2.05445
2.04945
2.04422
2.0389
2.03331
2.02767
2.02173
2.016
2.00984
2.0041
1.99777
1.99203
1.98556
1.9798
1.97324
1.9674
1.96078
1.95483
1.9482
1.94214
1.93551
1.92938
1.92278
1.91662
1.91008
1.90395
1.89755
1.89152
1.88534
1.87945
1.87359
1.868
1.86275
1.8581
1.85518
2.23438
2.21051
2.18524
2.15883
2.13476
2.11199
2.09257
2.07751
2.06991
2.07233
2.08313
2.09941
2.13142
2.18376
2.24635
2.28815
2.30092
2.29941
2.29094
2.27203
2.24323
2.21472
2.18798
2.16348
2.13974
2.11782
2.09647
2.07717
2.059
2.04317
2.02903
2.01785
2.00858
2.00374
1.99988
1.99905
1.99967
2.00394
2.01269
2.02455
2.03722
2.0494
2.05965
2.06763
2.07327
2.07693
2.07916
2.08017
2.08067
2.08054
2.08002
2.07892
2.07798
2.0765
2.07521
2.07289
2.07033
2.0669
2.06357
2.05965
2.05587
2.05162
2.0475
2.04299
2.03857
2.03377
2.029
2.02384
2.01871
2.01312
2.0077
2.00183
1.99629
1.99021
1.98462
1.97836
1.97275
1.96637
1.96075
1.95434
1.94869
1.94231
1.93661
1.93024
1.92444
1.91807
1.91217
1.90578
1.89982
1.89347
1.88753
1.88131
1.87547
1.8695
1.86385
1.85825
1.85294
1.84802
1.84366
1.84102
2.22133
2.19911
2.1776
2.15405
2.13187
2.11163
2.09546
2.08419
2.08469
2.09367
2.10766
2.13602
2.18416
2.24689
2.29126
2.30791
2.30854
2.30278
2.28711
2.26363
2.23712
2.21255
2.18895
2.16693
2.14473
2.12379
2.10262
2.08305
2.06375
2.04629
2.02986
2.01562
2.0033
1.99379
1.98646
1.98293
1.97965
1.97967
1.98138
1.98712
1.9969
2.00842
2.02025
2.03095
2.03971
2.0463
2.05071
2.05352
2.05489
2.05565
2.05551
2.05481
2.05401
2.05266
2.05161
2.04983
2.04783
2.04483
2.04181
2.03816
2.03459
2.03054
2.02655
2.02224
2.01795
2.01336
2.00874
2.00378
1.99877
1.99338
1.98816
1.98245
1.97713
1.97118
1.96583
1.95971
1.95433
1.9481
1.94264
1.93637
1.93078
1.92453
1.91882
1.91261
1.90681
1.90064
1.89479
1.88866
1.8828
1.87673
1.87092
1.86497
1.8593
1.85359
1.84814
1.84284
1.8378
1.83323
1.82923
1.82686
2.20937
2.18917
2.16899
2.1491
2.12926
2.1123
2.1006
2.09875
2.10588
2.11913
2.14581
2.19077
2.25101
2.29676
2.31598
2.3182
2.31367
2.30086
2.27951
2.25647
2.23404
2.21302
2.19218
2.17202
2.15121
2.13062
2.10997
2.08967
2.07008
2.05119
2.03349
2.01728
2.00266
1.98997
1.97918
1.97105
1.96501
1.96203
1.95928
1.95913
1.96168
1.96846
1.9783
1.98983
2.00115
2.01124
2.019
2.02467
2.02817
2.03016
2.03095
2.03076
2.03004
2.02871
2.02765
2.02612
2.02456
2.02206
2.01941
2.01615
2.01289
2.00915
2.0054
2.00129
1.99715
1.99267
1.98817
1.98327
1.97844
1.97322
1.96824
1.96272
1.95763
1.95185
1.94667
1.94071
1.93546
1.92939
1.92408
1.91801
1.91261
1.90656
1.90103
1.89503
1.88935
1.8834
1.87763
1.87173
1.86595
1.86015
1.85444
1.8488
1.84327
1.8379
1.83265
1.82777
1.82305
1.81904
1.81554
1.81365
2.19586
2.17777
2.15987
2.14248
2.12764
2.11519
2.11282
2.11901
2.13217
2.15789
2.20129
2.25935
2.30496
2.32494
2.32781
2.32384
2.31202
2.29242
2.27168
2.25202
2.23353
2.21505
2.19655
2.17695
2.15716
2.13664
2.11655
2.09594
2.07632
2.05647
2.03834
2.02065
2.00462
1.98964
1.97622
1.96444
1.95458
1.94767
1.94242
1.93879
1.93688
1.93706
1.94088
1.94885
1.95916
1.97053
1.98113
1.99025
1.99701
2.00157
2.00412
2.00522
2.00513
2.00427
2.00333
2.00201
2.00085
1.99886
1.9967
1.99384
1.99089
1.98746
1.98391
1.97998
1.97593
1.97158
1.96716
1.96243
1.95778
1.95276
1.94798
1.94267
1.93779
1.93224
1.92729
1.92154
1.91652
1.91065
1.90552
1.8996
1.89434
1.88847
1.88304
1.87724
1.87165
1.86595
1.86026
1.85466
1.84896
1.8435
1.83791
1.83265
1.8273
1.82238
1.81744
1.81311
1.80891
1.8056
1.80288
1.80148
2.18235
2.1659
2.15059
2.1364
2.1261
2.12433
2.13067
2.14418
2.16983
2.21286
2.27014
2.31469
2.3345
2.33809
2.33444
2.32286
2.30459
2.28513
2.26731
2.25038
2.23399
2.21703
2.19948
2.18069
2.16164
2.14156
2.12171
2.10129
2.08162
2.06186
2.04337
2.0248
2.00769
1.99087
1.97559
1.96134
1.9488
1.93806
1.92954
1.92302
1.91841
1.91464
1.91348
1.91429
1.91908
1.92821
1.93884
1.94983
1.95972
1.96763
1.97347
1.97695
1.97863
1.97892
1.9783
1.9771
1.97621
1.97466
1.973
1.97055
1.96806
1.96498
1.96179
1.95812
1.95435
1.95023
1.94599
1.9415
1.93704
1.93226
1.92765
1.92257
1.91788
1.91254
1.9078
1.90223
1.89741
1.89171
1.88675
1.88106
1.8759
1.87032
1.86497
1.85951
1.85401
1.84862
1.84306
1.83772
1.83222
1.82698
1.82164
1.81666
1.81164
1.80713
1.80269
1.79899
1.79557
1.7932
1.79128
1.79035
2.17189
2.15435
2.14179
2.13303
2.13153
2.13917
2.15333
2.18034
2.22415
2.28125
2.32568
2.34503
2.34787
2.34401
2.33188
2.31321
2.29507
2.27843
2.26331
2.24867
2.2336
2.2178
2.20071
2.1829
2.16422
2.145
2.12541
2.10557
2.08582
2.06623
2.04702
2.02811
2.01008
1.9924
1.97592
1.96025
1.94589
1.93252
1.92077
1.91106
1.90332
1.89697
1.89225
1.88891
1.88838
1.89026
1.89644
1.90564
1.91636
1.92717
1.9365
1.94393
1.94868
1.9514
1.9523
1.95187
1.95107
1.94987
1.94859
1.94656
1.94426
1.94156
1.93867
1.93545
1.93197
1.92816
1.92422
1.91999
1.9158
1.91119
1.90688
1.90196
1.89759
1.89245
1.88795
1.88262
1.87792
1.8725
1.86758
1.86217
1.85709
1.8517
1.84651
1.8412
1.83593
1.83077
1.82545
1.82051
1.81519
1.81051
1.8054
1.80099
1.79638
1.79248
1.78872
1.78589
1.78344
1.78203
1.78112
1.78081
2.15816
2.14494
2.13439
2.13464
2.14476
2.15936
2.18858
2.23508
2.2937
2.33698
2.35471
2.35707
2.35288
2.3397
2.32091
2.30314
2.28796
2.27397
2.26055
2.24701
2.23247
2.21728
2.20069
2.18355
2.1652
2.14658
2.12717
2.1078
2.08806
2.06885
2.04925
2.03074
2.01181
1.99418
1.9766
1.96009
1.94396
1.92924
1.91524
1.90286
1.89176
1.88281
1.87551
1.86897
1.86506
1.86242
1.86246
1.8655
1.87316
1.88284
1.89393
1.9042
1.91286
1.91921
1.92307
1.92495
1.92495
1.92411
1.92337
1.922
1.92026
1.91792
1.9154
1.91261
1.90952
1.90612
1.90243
1.89852
1.89446
1.89015
1.8859
1.8813
1.877
1.87214
1.86783
1.86271
1.85835
1.85304
1.84853
1.84323
1.83845
1.83338
1.82826
1.82353
1.81807
1.81364
1.80801
1.80374
1.7983
1.79416
1.78915
1.78544
1.78113
1.77826
1.77529
1.77375
1.77238
1.77244
1.77349
1.77336
2.14735
2.13981
2.13552
2.14515
2.16292
2.1952
2.24573
2.30619
2.3493
2.3659
2.36831
2.36226
2.34651
2.32657
2.30916
2.29403
2.28116
2.26894
2.25661
2.24379
2.22963
2.21468
2.19839
2.18154
2.16368
2.14549
2.12666
2.10774
2.08851
2.06941
2.05021
2.03156
2.0126
1.99487
1.97643
1.95969
1.94243
1.92688
1.9112
1.8972
1.88377
1.87213
1.86191
1.85361
1.84635
1.84075
1.83687
1.83569
1.83631
1.84064
1.84908
1.85963
1.87057
1.8808
1.88892
1.89444
1.89747
1.89821
1.89786
1.89705
1.89603
1.89418
1.89193
1.88927
1.88645
1.88334
1.88005
1.87645
1.87279
1.86868
1.86486
1.86034
1.8565
1.85171
1.84783
1.84286
1.83881
1.83379
1.82945
1.82448
1.81985
1.81494
1.81009
1.80528
1.80038
1.79567
1.79096
1.78643
1.78198
1.7779
1.77386
1.77058
1.76739
1.7655
1.76381
1.76342
1.76381
1.76558
1.76758
1.76897
2.13446
2.13719
2.14529
2.16543
2.19973
2.25483
2.31814
2.36247
2.37573
2.37684
2.36871
2.35144
2.33097
2.31282
2.2986
2.28627
2.27476
2.26357
2.25134
2.23891
2.22501
2.21061
2.19509
2.17882
2.16183
2.144
2.12586
2.10704
2.08837
2.06923
2.05051
2.03149
2.013
1.9944
1.9764
1.95859
1.94128
1.9246
1.9083
1.89296
1.87841
1.86461
1.85244
1.84118
1.83212
1.82388
1.8171
1.81204
1.8092
1.80888
1.81068
1.81675
1.82555
1.8367
1.84754
1.85725
1.86459
1.86917
1.87142
1.87174
1.87127
1.87039
1.86879
1.86655
1.86394
1.86107
1.85809
1.85473
1.85148
1.84763
1.84409
1.83981
1.83604
1.83154
1.82761
1.82307
1.81896
1.81442
1.81017
1.80561
1.80127
1.79664
1.79226
1.78751
1.78322
1.77844
1.77436
1.76989
1.76612
1.7623
1.75924
1.75659
1.75492
1.75397
1.75407
1.75528
1.75719
1.76157
1.76716
1.77121
2.12678
2.14205
2.16805
2.20866
2.27386
2.33324
2.37364
2.38777
2.3866
2.37557
2.35576
2.33437
2.31567
2.30159
2.28981
2.2796
2.26868
2.25769
2.24554
2.23286
2.21921
2.20456
2.18944
2.17293
2.15656
2.13866
2.12154
2.1028
2.08539
2.06606
2.04854
2.02893
2.01139
1.99205
1.97463
1.95606
1.93913
1.92156
1.90536
1.88902
1.87374
1.8588
1.84515
1.83193
1.82056
1.81021
1.80165
1.7937
1.78753
1.78361
1.78221
1.78237
1.78562
1.79328
1.80352
1.81509
1.82597
1.83523
1.84177
1.84563
1.84692
1.84676
1.84616
1.845
1.84268
1.84016
1.83708
1.83422
1.83098
1.82781
1.82429
1.82067
1.81679
1.81281
1.8087
1.80458
1.80035
1.79612
1.79186
1.78751
1.78328
1.77883
1.7747
1.77014
1.76618
1.76172
1.75803
1.75402
1.7509
1.74783
1.74586
1.74447
1.74426
1.74473
1.74633
1.74954
1.75375
1.76251
1.77407
1.78189
2.11899
2.16278
2.2193
2.29248
2.35682
2.39035
2.39949
2.39636
2.3807
2.35796
2.33645
2.31893
2.30384
2.29183
2.2813
2.27125
2.26085
2.24958
2.23767
2.22477
2.2114
2.19704
2.18217
2.16638
2.15014
2.13314
2.11597
2.09813
2.0804
2.06211
2.04411
2.02584
2.00779
1.98985
1.97187
1.95443
1.93675
1.91981
1.90262
1.88621
1.86996
1.85456
1.83959
1.82569
1.81238
1.80057
1.78949
1.78066
1.77195
1.76529
1.75998
1.7576
1.75763
1.75918
1.76414
1.77275
1.78431
1.79601
1.80729
1.8159
1.82178
1.82462
1.82526
1.82489
1.82399
1.82211
1.81941
1.81655
1.81336
1.81023
1.8068
1.80354
1.79971
1.79616
1.79195
1.78817
1.78376
1.77989
1.77534
1.7715
1.76696
1.7631
1.75876
1.75486
1.75079
1.74705
1.74351
1.7403
1.73776
1.73593
1.73506
1.73513
1.7361
1.73818
1.74154
1.74853
1.75821
1.77183
1.78751
1.79709
2.12738
2.22113
2.31625
2.38306
2.4139
2.41562
2.40741
2.3856
2.35977
2.3374
2.3194
2.3052
2.29371
2.28303
2.27367
2.26341
2.25298
2.24139
2.22932
2.21657
2.20318
2.1892
2.17443
2.15907
2.14301
2.12657
2.10963
2.09256
2.0751
2.05783
2.04025
2.0228
2.005
1.98732
1.96939
1.95179
1.93408
1.91704
1.90009
1.88366
1.86759
1.85182
1.83672
1.82193
1.80801
1.7948
1.78249
1.77165
1.76181
1.75368
1.74594
1.74055
1.7368
1.73641
1.73721
1.74036
1.74742
1.75773
1.77017
1.78229
1.79298
1.80066
1.80538
1.80718
1.807
1.80628
1.8048
1.80202
1.7989
1.79543
1.79192
1.78861
1.7849
1.78158
1.77751
1.77397
1.76955
1.76588
1.76125
1.75751
1.75292
1.74912
1.74481
1.74112
1.73729
1.73397
1.73103
1.72864
1.72731
1.72682
1.72724
1.72856
1.73105
1.73638
1.74399
1.75671
1.77088
1.78746
1.80413
1.81287
2.15421
2.32626
2.42277
2.44793
2.44432
2.42863
2.39685
2.36622
2.34118
2.32191
2.30814
2.29742
2.28776
2.27774
2.26735
2.25636
2.24471
2.2328
2.22018
2.20741
2.1939
2.17993
2.1654
2.15012
2.13457
2.11841
2.10205
2.08535
2.0685
2.05147
2.03425
2.0172
2.00002
1.98317
1.96619
1.94948
1.93258
1.91584
1.89919
1.88282
1.86688
1.85104
1.83595
1.82094
1.80682
1.79313
1.78027
1.76839
1.75741
1.74787
1.73928
1.73141
1.72531
1.72071
1.71976
1.7204
1.72266
1.728
1.73644
1.74879
1.76113
1.77336
1.78301
1.78954
1.79274
1.7935
1.79286
1.79132
1.78933
1.78537
1.78231
1.77793
1.77462
1.77017
1.76672
1.76232
1.75854
1.75418
1.7501
1.74583
1.74165
1.73765
1.73366
1.73014
1.72678
1.72409
1.72202