/*--------------------------------*- C++ -*----------------------------------*\
  =========                 |
  \\      /  F ield         | OpenFOAM: The Open Source CFD Toolbox
   \\    /   O peration     | Website:  https://openfoam.org
    \\  /    A nd           | Version:  10
     \\/     M anipulation  |
\*---------------------------------------------------------------------------*/
FoamFile
{
    format      ascii;
    class       volVectorField;
    location    "7.5";
    object      U;
}
// * * * * * * * * * * * * * * * * * * * * * * * * * * * * * * * * * * * * * //

dimensions      [0 1 -1 0 0 0 0];

internalField   nonuniform List<vector> 
5250
(
(3 1.62709e-08 0)
(2.99998 1.66535e-08 0)
(2.99996 3.79026e-07 0)
(2.99989 1.28182e-07 0)
(2.99974 2.91192e-06 0)
(2.99934 2.40075e-06 0)
(2.99839 1.52329e-05 0)
(2.99598 2.5614e-05 0)
(2.9901 7.48329e-05 0)
(2.97505 0.000182015 0)
(2.93596 0.000445581 0)
(2.82686 0.00118094 0)
(2.50825 0.00327084 0)
(1.60948 0.00946721 0)
(0.728007 0.023676 0)
(0.519136 0.0234596 0)
(0.55518 0.0239476 0)
(0.55533 0.0256704 0)
(0.502494 0.0274854 0)
(0.415955 0.0294207 0)
(0.333627 0.0317851 0)
(0.265094 0.0345679 0)
(0.195933 0.037508 0)
(0.117571 0.0409372 0)
(0.0514727 0.0458169 0)
(3 4.4975e-08 0)
(2.99998 1.75184e-07 0)
(2.99996 8.54511e-07 0)
(2.99989 1.67271e-06 0)
(2.99974 6.46876e-06 0)
(2.99935 1.08421e-05 0)
(2.99841 4.316e-05 0)
(2.99603 6.64257e-05 0)
(2.99022 0.000264406 0)
(2.97537 0.000464048 0)
(2.93675 0.00149101 0)
(2.82935 0.00351936 0)
(2.51476 0.0102257 0)
(1.6261 0.0292959 0)
(0.737658 0.0719484 0)
(0.516472 0.0676237 0)
(0.554182 0.0661335 0)
(0.555254 0.0689219 0)
(0.502273 0.0719253 0)
(0.415806 0.0752993 0)
(0.333503 0.0793145 0)
(0.264442 0.0837528 0)
(0.194323 0.0879004 0)
(0.114723 0.0919373 0)
(0.0482217 0.09593 0)
(3 7.01847e-08 0)
(2.99998 3.29623e-07 0)
(2.99996 1.43208e-06 0)
(2.9999 3.26953e-06 0)
(2.99974 1.0415e-05 0)
(2.99937 2.20673e-05 0)
(2.99844 6.55899e-05 0)
(2.99616 0.000136895 0)
(2.99043 0.000399553 0)
(2.97607 0.000880992 0)
(2.93852 0.00242636 0)
(2.83408 0.00613143 0)
(2.5299 0.0173701 0)
(1.66179 0.0502101 0)
(0.760363 0.124559 0)
(0.512757 0.114664 0)
(0.554742 0.110956 0)
(0.558418 0.115937 0)
(0.505753 0.12159 0)
(0.419943 0.128363 0)
(0.338025 0.135859 0)
(0.268565 0.143875 0)
(0.197439 0.151564 0)
(0.116385 0.158592 0)
(0.047957 0.163794 0)
(3 7.55798e-08 0)
(2.99999 5.53126e-07 0)
(2.99996 1.73965e-06 0)
(2.9999 5.47816e-06 0)
(2.99975 1.28361e-05 0)
(2.9994 3.68195e-05 0)
(2.99851 7.91419e-05 0)
(2.9963 0.000229527 0)
(2.99084 0.000487242 0)
(2.97707 0.00138039 0)
(2.94111 0.00322539 0)
(2.84182 0.00884112 0)
(2.55165 0.0242532 0)
(1.71874 0.0705417 0)
(0.795354 0.177915 0)
(0.507549 0.161078 0)
(0.557069 0.154778 0)
(0.565317 0.162124 0)
(0.513455 0.170653 0)
(0.428767 0.18121 0)
(0.347372 0.192608 0)
(0.277584 0.204747 0)
(0.205292 0.216746 0)
(0.121885 0.227568 0)
(0.0498816 0.234459 0)
(3 1.00783e-07 0)
(2.99999 7.31939e-07 0)
(2.99996 2.24366e-06 0)
(2.99991 7.13493e-06 0)
(2.99977 1.66136e-05 0)
(2.99943 4.67879e-05 0)
(2.9986 0.000104508 0)
(2.9965 0.00028742 0)
(2.99139 0.000648132 0)
(2.97836 0.00173769 0)
(2.94473 0.00417582 0)
(2.85167 0.0112681 0)
(2.58146 0.0309469 0)
(1.79548 0.0898669 0)
(0.843243 0.231918 0)
(0.501429 0.207306 0)
(0.561811 0.198066 0)
(0.576355 0.207634 0)
(0.525598 0.218889 0)
(0.442475 0.233238 0)
(0.361692 0.248778 0)
(0.291602 0.265543 0)
(0.217863 0.282602 0)
(0.131082 0.298276 0)
(0.0537396 0.307847 0)
(3 1.36229e-07 0)
(2.99999 7.90629e-07 0)
(2.99997 2.88049e-06 0)
(2.99991 7.67159e-06 0)
(2.99979 2.13901e-05 0)
(2.99947 5.07548e-05 0)
(2.99871 0.000135881 0)
(2.99676 0.000313736 0)
(2.99205 0.0008363 0)
(2.98 0.00196407 0)
(2.94907 0.0051729 0)
(2.86414 0.0132537 0)
(2.61762 0.0371107 0)
(1.89429 0.107091 0)
(0.90572 0.284918 0)
(0.497683 0.254105 0)
(0.571129 0.241621 0)
(0.59309 0.25295 0)
(0.543455 0.266754 0)
(0.462177 0.285222 0)
(0.382078 0.305516 0)
(0.311686 0.327855 0)
(0.23634 0.351457 0)
(0.145126 0.374117 0)
(0.0602558 0.388729 0)
(3 1.42413e-07 0)
(2.99999 8.96208e-07 0)
(2.99997 3.0063e-06 0)
(2.99992 8.7963e-06 0)
(2.99981 2.25849e-05 0)
(2.99952 5.79033e-05 0)
(2.99882 0.000147278 0)
(2.99708 0.000353264 0)
(2.99276 0.000925837 0)
(2.98197 0.00220416 0)
(2.95415 0.00577205 0)
(2.8783 0.0148753 0)
(2.66036 0.0413845 0)
(2.01289 0.11993 0)
(0.98639 0.330904 0)
(0.503317 0.302754 0)
(0.58826 0.287986 0)
(0.617642 0.299189 0)
(0.569143 0.314517 0)
(0.490037 0.337348 0)
(0.410528 0.363104 0)
(0.339897 0.392298 0)
(0.263053 0.424497 0)
(0.166673 0.457695 0)
(0.0711891 0.482322 0)
(3 1.39859e-07 0)
(2.99999 9.07949e-07 0)
(2.99997 3.09859e-06 0)
(2.99993 8.93658e-06 0)
(2.99983 2.31985e-05 0)
(2.99957 6.01686e-05 0)
(2.99895 0.000147079 0)
(2.99741 0.000378948 0)
(2.9936 0.000912493 0)
(2.98404 0.0023592 0)
(2.95966 0.00581591 0)
(2.89379 0.0154298 0)
(2.70625 0.0422405 0)
(2.14866 0.123032 0)
(1.09196 0.354361 0)
(0.534369 0.348584 0)
(0.619182 0.338746 0)
(0.652659 0.347533 0)
(0.605501 0.363166 0)
(0.528965 0.390136 0)
(0.449802 0.42194 0)
(0.379018 0.459379 0)
(0.301449 0.502649 0)
(0.200503 0.551669 0)
(0.0904562 0.597008 0)
(3 1.36609e-07 0)
(2.99999 7.88416e-07 0)
(2.99998 2.98909e-06 0)
(2.99994 7.66683e-06 0)
(2.99985 2.23265e-05 0)
(2.99962 5.17735e-05 0)
(2.99908 0.000139997 0)
(2.99772 0.000328502 0)
(2.99441 0.00084867 0)
(2.98606 0.00206864 0)
(2.96504 0.00525119 0)
(2.90879 0.0134633 0)
(2.75078 0.0367077 0)
(2.28616 0.105081 0)
(1.22489 0.312482 0)
(0.5968 0.376727 0)
(0.662779 0.392028 0)
(0.694143 0.395917 0)
(0.650748 0.413795 0)
(0.57861 0.443611 0)
(0.501003 0.482344 0)
(0.431363 0.52862 0)
(0.355989 0.585156 0)
(0.255831 0.659008 0)
(0.126503 0.747683 0)
(3 1.3059e-07 0)
(2.99999 6.86887e-07 0)
(2.99998 2.71575e-06 0)
(2.99995 6.70974e-06 0)
(2.99987 2.00243e-05 0)
(2.99967 4.49449e-05 0)
(2.99918 0.000125624 0)
(2.998 0.000277607 0)
(2.99504 0.000759526 0)
(2.98771 0.00170957 0)
(2.96913 0.00456205 0)
(2.92012 0.0110749 0)
(2.78224 0.0301761 0)
(2.37816 0.0836954 0)
(1.35151 0.248896 0)
(0.649933 0.416079 0)
(0.682571 0.449093 0)
(0.714398 0.447254 0)
(0.688837 0.466594 0)
(0.629038 0.497009 0)
(0.559755 0.542431 0)
(0.496028 0.597119 0)
(0.432267 0.67168 0)
(0.349325 0.787229 0)
(0.195886 0.993251 0)
(3 1.10574e-07 0)
(2.99999 7.08775e-07 0)
(2.99998 2.34042e-06 0)
(2.99995 6.95795e-06 0)
(2.99988 1.72764e-05 0)
(2.99971 4.54633e-05 0)
(2.99928 0.000109858 0)
(2.99825 0.000273595 0)
(2.9956 0.000681697 0)
(2.98923 0.00164001 0)
(2.97283 0.00418454 0)
(2.93011 0.0104043 0)
(2.81072 0.0277331 0)
(2.46127 0.0771399 0)
(1.51545 0.226803 0)
(0.74213 0.469076 0)
(0.689976 0.494804 0)
(0.721084 0.493342 0)
(0.716498 0.513094 0)
(0.674946 0.545569 0)
(0.621454 0.595264 0)
(0.573543 0.658843 0)
(0.541059 0.749613 0)
(0.537664 0.891865 0)
(0.571304 1.13276 0)
(3 9.54825e-08 0)
(2.99999 7.11625e-07 0)
(2.99998 2.18249e-06 0)
(2.99996 6.92151e-06 0)
(2.9999 1.62682e-05 0)
(2.99975 4.56827e-05 0)
(2.99937 0.000101381 0)
(2.99847 0.000282207 0)
(2.99618 0.000619475 0)
(2.99063 0.0017122 0)
(2.97645 0.00390009 0)
(2.93967 0.0104635 0)
(2.83787 0.0266937 0)
(2.54118 0.0752261 0)
(1.70203 0.218124 0)
(0.860888 0.513758 0)
(0.697079 0.525328 0)
(0.729253 0.527864 0)
(0.741652 0.54778 0)
(0.717805 0.585093 0)
(0.683842 0.637403 0)
(0.657986 0.707874 0)
(0.658617 0.805097 0)
(0.711647 0.940815 0)
(0.838721 1.11844 0)
(3 1.04256e-07 0)
(2.99999 6.49799e-07 0)
(2.99999 2.30193e-06 0)
(2.99996 6.32705e-06 0)
(2.99991 1.70471e-05 0)
(2.99978 4.24118e-05 0)
(2.99947 0.000106533 0)
(2.99868 0.00026677 0)
(2.9968 0.000644902 0)
(2.99197 0.0016542 0)
(2.98012 0.00398817 0)
(2.94911 0.0102933 0)
(2.86459 0.0266753 0)
(2.62031 0.0741251 0)
(1.90739 0.214555 0)
(1.00437 0.552348 0)
(0.712809 0.554785 0)
(0.744324 0.557376 0)
(0.769661 0.574682 0)
(0.76175 0.615474 0)
(0.745386 0.670267 0)
(0.74174 0.741462 0)
(0.766316 0.833071 0)
(0.840717 0.944078 0)
(0.982797 1.05275 0)
(3 1.03247e-07 0)
(3 6.17526e-07 0)
(2.99999 2.20182e-06 0)
(2.99997 6.06617e-06 0)
(2.99993 1.64033e-05 0)
(2.99982 4.03955e-05 0)
(2.99956 0.000105134 0)
(2.99892 0.000249919 0)
(2.99734 0.000653556 0)
(2.99342 0.00154254 0)
(2.98364 0.00404173 0)
(2.95861 0.00985863 0)
(2.89098 0.0262471 0)
(2.69843 0.0717152 0)
(2.1278 0.208573 0)
(1.17748 0.576702 0)
(0.755845 0.591981 0)
(0.776042 0.595412 0)
(0.806984 0.602709 0)
(0.81165 0.640296 0)
(0.80696 0.69461 0)
(0.817671 0.761154 0)
(0.856231 0.839548 0)
(0.93513 0.925308 0)
(1.06896 0.995726 0)
(3 8.56843e-08 0)
(3 5.54258e-07 0)
(2.99999 1.87077e-06 0)
(2.99998 5.43339e-06 0)
(2.99994 1.39941e-05 0)
(2.99986 3.59999e-05 0)
(2.99965 8.86109e-05 0)
(2.99914 0.000222191 0)
(2.99787 0.000545298 0)
(2.99479 0.00135934 0)
(2.98706 0.00336763 0)
(2.96761 0.00848011 0)
(2.91634 0.0217514 0)
(2.77322 0.0590496 0)
(2.35761 0.169075 0)
(1.4052 0.498288 0)
(0.855844 0.609983 0)
(0.834848 0.632687 0)
(0.85571 0.639131 0)
(0.869497 0.666383 0)
(0.870694 0.713591 0)
(0.887016 0.771877 0)
(0.930649 0.836641 0)
(1.00755 0.902534 0)
(1.12784 0.953357 0)
(3 7.54661e-08 0)
(3 4.40355e-07 0)
(2.99999 1.61665e-06 0)
(2.99998 4.28194e-06 0)
(2.99995 1.19255e-05 0)
(2.99988 2.83793e-05 0)
(2.99972 7.40521e-05 0)
(2.9993 0.000175591 0)
(2.99829 0.000444337 0)
(2.99577 0.00107077 0)
(2.98957 0.00266988 0)
(2.97393 0.00654754 0)
(2.93309 0.0166556 0)
(2.82049 0.0435484 0)
(2.49381 0.121318 0)
(1.62487 0.3618 0)
(0.949952 0.63839 0)
(0.876394 0.671246 0)
(0.89394 0.683067 0)
(0.917508 0.696408 0)
(0.92871 0.731909 0)
(0.949157 0.779701 0)
(0.993485 0.832058 0)
(1.06582 0.883011 0)
(1.17196 0.921639 0)
(3 5.93878e-08 0)
(3 3.99594e-07 0)
(2.99999 1.2986e-06 0)
(2.99998 3.89861e-06 0)
(2.99996 9.63166e-06 0)
(2.99991 2.55804e-05 0)
(2.99977 6.07571e-05 0)
(2.99945 0.000155876 0)
(2.99862 0.000372865 0)
(2.99664 0.000937964 0)
(2.99162 0.00227668 0)
(2.97926 0.0057065 0)
(2.947 0.0142007 0)
(2.85922 0.0373223 0)
(2.60634 0.102323 0)
(1.88468 0.299491 0)
(1.09898 0.679496 0)
(0.905566 0.706315 0)
(0.918541 0.718102 0)
(0.950227 0.721912 0)
(0.976261 0.747496 0)
(1.00269 0.786038 0)
(1.04684 0.82823 0)
(1.11406 0.867942 0)
(1.2074 0.897685 0)
(3 4.96478e-08 0)
(3 3.46102e-07 0)
(3 1.10932e-06 0)
(2.99999 3.38064e-06 0)
(2.99997 8.28271e-06 0)
(2.99993 2.23886e-05 0)
(2.99982 5.23238e-05 0)
(2.99956 0.000138055 0)
(2.99894 0.000321233 0)
(2.99736 0.000839527 0)
(2.99355 0.0019811 0)
(2.98385 0.00513284 0)
(2.95945 0.0125523 0)
(2.89344 0.0331726 0)
(2.70647 0.0901735 0)
(2.15593 0.261828 0)
(1.29686 0.688497 0)
(0.9565 0.736011 0)
(0.950841 0.743415 0)
(0.981486 0.743897 0)
(1.01874 0.7591 0)
(1.05037 0.789912 0)
(1.09342 0.824612 0)
(1.1552 0.856277 0)
(1.2375 0.879509 0)
(3 4.59213e-08 0)
(3 2.64881e-07 0)
(3 9.73024e-07 0)
(2.99999 2.58656e-06 0)
(2.99998 7.19657e-06 0)
(2.99995 1.71477e-05 0)
(2.99987 4.53933e-05 0)
(2.99967 0.0001058 0)
(2.9992 0.000276433 0)
(2.99803 0.000645702 0)
(2.9952 0.00167515 0)
(2.98807 0.00398376 0)
(2.97039 0.010283 0)
(2.92382 0.0257866 0)
(2.79603 0.0700599 0)
(2.42525 0.199319 0)
(1.56906 0.57814 0)
(1.06493 0.740803 0)
(1.00721 0.762442 0)
(1.02311 0.769442 0)
(1.06139 0.774445 0)
(1.09697 0.795644 0)
(1.1374 0.822922 0)
(1.19273 0.848082 0)
(1.26498 0.866268 0)
(3 3.48356e-08 0)
(3 2.10601e-07 0)
(3 7.44848e-07 0)
(2.99999 2.05103e-06 0)
(2.99998 5.50554e-06 0)
(2.99996 1.34776e-05 0)
(2.9999 3.45593e-05 0)
(2.99975 8.19943e-05 0)
(2.99939 0.000209149 0)
(2.99852 0.00049244 0)
(2.99633 0.00125814 0)
(2.99103 0.00297126 0)
(2.97759 0.00759198 0)
(2.94316 0.0185661 0)
(2.84898 0.0490678 0)
(2.57983 0.134211 0)
(1.84372 0.399836 0)
(1.18551 0.744372 0)
(1.05188 0.781351 0)
(1.05815 0.796458 0)
(1.09519 0.795914 0)
(1.13685 0.805617 0)
(1.17717 0.824795 0)
(1.22726 0.844007 0)
(1.29088 0.85783 0)
(3 2.6318e-08 0)
(3 1.72189e-07 0)
(3 5.79298e-07 0)
(2.99999 1.67775e-06 0)
(2.99999 4.29727e-06 0)
(2.99997 1.11009e-05 0)
(2.99992 2.69146e-05 0)
(2.99982 6.81812e-05 0)
(2.99955 0.00016292 0)
(2.9989 0.000413224 0)
(2.99726 0.000985935 0)
(2.99335 0.0025062 0)
(2.98336 0.00605147 0)
(2.95822 0.015456 0)
(2.89054 0.0395245 0)
(2.69876 0.108306 0)
(2.13964 0.315013 0)
(1.36905 0.759351 0)
(1.10012 0.813345 0)
(1.09132 0.822249 0)
(1.12175 0.818816 0)
(1.16867 0.817712 0)
(1.2123 0.829111 0)
(1.25903 0.843067 0)
(1.31553 0.853199 0)
(3 2.14519e-08 0)
(3 1.28623e-07 0)
(3 4.6149e-07 0)
(3 1.25601e-06 0)
(2.99999 3.40995e-06 0)
(2.99998 8.35327e-06 0)
(2.99995 2.12496e-05 0)
(2.99987 5.15517e-05 0)
(2.99968 0.000127942 0)
(2.99921 0.000314709 0)
(2.99807 0.000766228 0)
(2.99525 0.00191844 0)
(2.98838 0.00466759 0)
(2.97104 0.0117837 0)
(2.92596 0.0299152 0)
(2.80316 0.0803009 0)
(2.44588 0.229854 0)
(1.65303 0.641411 0)
(1.20634 0.813036 0)
(1.14505 0.835717 0)
(1.15808 0.840447 0)
(1.20092 0.833801 0)
(1.2465 0.836855 0)
(1.29017 0.845147 0)
(1.3402 0.851749 0)
(3 1.49571e-08 0)
(3 9.99234e-08 0)
(3 3.27148e-07 0)
(3 9.73684e-07 0)
(2.99999 2.42605e-06 0)
(2.99998 6.3652e-06 0)
(2.99996 1.51859e-05 0)
(2.99991 3.85276e-05 0)
(2.99977 9.21321e-05 0)
(2.99943 0.000228945 0)
(2.9986 0.000554562 0)
(2.9966 0.00135891 0)
(2.99158 0.00333777 0)
(2.97924 0.00819633 0)
(2.94735 0.0205033 0)
(2.86165 0.053196 0)
(2.61762 0.145638 0)
(1.95231 0.429587 0)
(1.33636 0.798495 0)
(1.19231 0.84785 0)
(1.1913 0.863092 0)
(1.22706 0.856805 0)
(1.27532 0.849406 0)
(1.31887 0.850409 0)
(1.36441 0.853053 0)
(3 1.12865e-08 0)
(3 7.39614e-08 0)
(3 2.46683e-07 0)
(3 7.21064e-07 0)
(3 1.82554e-06 0)
(2.99999 4.74959e-06 0)
(2.99997 1.14288e-05 0)
(2.99993 2.89435e-05 0)
(2.99984 6.93141e-05 0)
(2.99959 0.00017297 0)
(2.99902 0.000419109 0)
(2.99757 0.00103364 0)
(2.99407 0.00253483 0)
(2.9853 0.00625098 0)
(2.96331 0.0156027 0)
(2.90473 0.0399792 0)
(2.74183 0.107792 0)
(2.26589 0.312518 0)
(1.54687 0.761127 0)
(1.25812 0.862967 0)
(1.22973 0.881018 0)
(1.25019 0.879997 0)
(1.2962 0.866681 0)
(1.34329 0.85973 0)
(1.38746 0.857436 0)
(3 8.72687e-09 0)
(3 5.30182e-08 0)
(3 1.86834e-07 0)
(3 5.16005e-07 0)
(3 1.37837e-06 0)
(2.99999 3.38793e-06 0)
(2.99998 8.64245e-06 0)
(2.99995 2.06502e-05 0)
(2.99989 5.22103e-05 0)
(2.99972 0.000124029 0)
(2.99932 0.000313088 0)
(2.99836 0.000745729 0)
(2.99593 0.00188016 0)
(2.99013 0.00451936 0)
(2.97541 0.0114333 0)
(2.93782 0.0285033 0)
(2.8363 0.0759163 0)
(2.54349 0.213506 0)
(1.84626 0.601628 0)
(1.37584 0.85468 0)
(1.28285 0.888392 0)
(1.28349 0.898538 0)
(1.31834 0.886822 0)
(1.36515 0.87218 0)
(1.40915 0.864998 0)
(3 5.95798e-09 0)
(3 3.88548e-08 0)
(3 1.31184e-07 0)
(3 3.77113e-07 0)
(3 9.6981e-07 0)
(2.99999 2.47337e-06 0)
(2.99999 6.03487e-06 0)
(2.99997 1.50886e-05 0)
(2.99992 3.62222e-05 0)
(2.99981 9.07194e-05 0)
(2.99953 0.000215768 0)
(2.99888 0.000542185 0)
(2.99722 0.00129203 0)
(2.99326 0.00324499 0)
(2.98325 0.00785255 0)
(2.95821 0.019766 0)
(2.89139 0.0505788 0)
(2.70429 0.137316 0)
(2.17455 0.401293 0)
(1.54622 0.833781 0)
(1.33749 0.903599 0)
(1.31796 0.91488 0)
(1.33738 0.907374 0)
(1.38185 0.88848 0)
(1.42855 0.875574 0)
(3 4.34688e-09 0)
(3 2.66587e-08 0)
(3 9.4279e-08 0)
(3 2.59569e-07 0)
(3 6.93581e-07 0)
(3 1.71762e-06 0)
(2.99999 4.2822e-06 0)
(2.99998 1.05142e-05 0)
(2.99995 2.55407e-05 0)
(2.99987 6.33848e-05 0)
(2.99969 0.000151321 0)
(2.99926 0.000380076 0)
(2.99818 0.000899474 0)
(2.99559 0.0022782 0)
(2.98916 0.00542219 0)
(2.97329 0.0137844 0)
(2.93236 0.0342435 0)
(2.82203 0.0916884 0)
(2.5034 0.260841 0)
(1.82818 0.68411 0)
(1.44095 0.882848 0)
(1.36956 0.913184 0)
(1.36907 0.920379 0)
(1.40201 0.90604 0)
(1.44736 0.886109 0)
(3 3.04899e-09 0)
(3 1.80813e-08 0)
(3 6.522e-08 0)
(3 1.75645e-07 0)
(3 4.78795e-07 0)
(3 1.15611e-06 0)
(2.99999 2.95979e-06 0)
(2.99999 7.0292e-06 0)
(2.99997 1.76069e-05 0)
(2.99992 4.20477e-05 0)
(2.9998 0.000103847 0)
(2.9995 0.000250844 0)
(2.9988 0.000610633 0)
(2.99703 0.00149635 0)
(2.99283 0.00361765 0)
(2.98218 0.00898083 0)
(2.95561 0.0220837 0)
(2.88471 0.0569582 0)
(2.686 0.154282 0)
(2.14349 0.443248 0)
(1.58318 0.849681 0)
(1.41967 0.916698 0)
(1.40197 0.930023 0)
(1.41912 0.923077 0)
(1.46069 0.900527 0)
(3 1.99351e-09 0)
(3 1.26766e-08 0)
(3 4.31096e-08 0)
(3 1.23055e-07 0)
(3 3.17648e-07 0)
(3 8.02782e-07 0)
(3 1.97612e-06 0)
(2.99999 4.8417e-06 0)
(2.99998 1.18427e-05 0)
(2.99995 2.87173e-05 0)
(2.99987 7.0453e-05 0)
(2.99968 0.000169837 0)
(2.99922 0.000418328 0)
(2.9981 0.00100753 0)
(2.99539 0.00249097 0)
(2.98866 0.00604826 0)
(2.97205 0.0150518 0)
(2.92914 0.0379003 0)
(2.81308 0.100522 0)
(2.47782 0.286819 0)
(1.84164 0.719226 0)
(1.50721 0.897968 0)
(1.44671 0.928066 0)
(1.44579 0.934105 0)
(1.47631 0.918565 0)
(3 1.30516e-09 0)
(3 8.52978e-09 0)
(3 2.83576e-08 0)
(3 8.27103e-08 0)
(3 2.08753e-07 0)
(3 5.38195e-07 0)
(3 1.29687e-06 0)
(2.99999 3.23698e-06 0)
(2.99999 7.78251e-06 0)
(2.99996 1.91104e-05 0)
(2.99991 4.62854e-05 0)
(2.99979 0.000112426 0)
(2.9995 0.000275072 0)
(2.99876 0.00066148 0)
(2.99703 0.00163471 0)
(2.99264 0.00392496 0)
(2.98209 0.0097946 0)
(2.95499 0.0240425 0)
(2.88382 0.0622827 0)
(2.68374 0.169228 0)
(2.15338 0.480775 0)
(1.64288 0.862347 0)
(1.49482 0.930031 0)
(1.47575 0.942593 0)
(1.49022 0.935803 0)
(3 8.70095e-10 0)
(3 5.64636e-09 0)
(3 1.88561e-08 0)
(3 5.47672e-08 0)
(3 1.39043e-07 0)
(3 3.55592e-07 0)
(3 8.65948e-07 0)
(3 2.13196e-06 0)
(2.99999 5.19485e-06 0)
(2.99998 1.25562e-05 0)
(2.99995 3.09685e-05 0)
(2.99987 7.36841e-05 0)
(2.99968 0.000183758 0)
(2.99923 0.000433984 0)
(2.99811 0.00108979 0)
(2.99545 0.00256863 0)
(2.98879 0.00649342 0)
(2.97253 0.0155908 0)
(2.9304 0.0400388 0)
(2.81734 0.10478 0)
(2.49118 0.300166 0)
(1.89387 0.728038 0)
(1.57868 0.908491 0)
(1.51708 0.940047 0)
(1.51367 0.944958 0)
(3 5.64758e-10 0)
(3 3.60948e-09 0)
(3 1.23717e-08 0)
(3 3.49498e-08 0)
(3 9.09029e-08 0)
(3 2.2862e-07 0)
(3 5.58982e-07 0)
(3 1.38635e-06 0)
(2.99999 3.30635e-06 0)
(2.99999 8.24955e-06 0)
(2.99997 1.94407e-05 0)
(2.99992 4.87767e-05 0)
(2.9998 0.000114497 0)
(2.99951 0.00028731 0)
(2.9988 0.000676043 0)
(2.99714 0.00169406 0)
(2.99293 0.00402459 0)
(2.98284 0.0100809 0)
(2.95705 0.0246058 0)
(2.88961 0.0636804 0)
(2.70103 0.172398 0)
(2.20487 0.483994 0)
(1.71631 0.867246 0)
(1.56394 0.939884 0)
(1.54086 0.950565 0)
(3 3.74573e-10 0)
(3 2.28602e-09 0)
(3 8.07226e-09 0)
(3 2.21227e-08 0)
(3 5.91895e-08 0)
(3 1.44581e-07 0)
(3 3.64314e-07 0)
(3 8.75187e-07 0)
(3 2.15578e-06 0)
(2.99999 5.2077e-06 0)
(2.99998 1.26362e-05 0)
(2.99995 3.08679e-05 0)
(2.99988 7.40094e-05 0)
(2.9997 0.000182441 0)
(2.99928 0.000433677 0)
(2.99824 0.00108041 0)
(2.99577 0.0025553 0)
(2.98965 0.0064081 0)
(2.97473 0.0154472 0)
(2.93646 0.0393023 0)
(2.835 0.102591 0)
(2.54371 0.2919 0)
(1.97595 0.708419 0)
(1.65143 0.907423 0)
(1.58089 0.943033 0)
(3 2.3549e-10 0)
(3 1.46253e-09 0)
(3 5.03242e-09 0)
(3 1.41682e-08 0)
(3 3.68328e-08 0)
(3 9.1787e-08 0)
(3 2.28034e-07 0)
(3 5.47888e-07 0)
(3 1.36068e-06 0)
(2.99999 3.20976e-06 0)
(2.99999 8.00902e-06 0)
(2.99997 1.87953e-05 0)
(2.99992 4.69291e-05 0)
(2.99981 0.000110012 0)
(2.99955 0.000273813 0)
(2.99891 0.00064602 0)
(2.99737 0.0015978 0)
(2.99358 0.00380744 0)
(2.98434 0.0094159 0)
(2.96111 0.0229853 0)
(2.90079 0.0586044 0)
(2.73345 0.157265 0)
(2.28748 0.437614 0)
(1.79612 0.83778 0)
(1.62309 0.930513 0)
(3 1.47056e-10 0)
(3 9.13043e-10 0)
(3 3.15815e-09 0)
(3 8.84216e-09 0)
(3 2.3078e-08 0)
(3 5.74571e-08 0)
(3 1.42393e-07 0)
(3 3.43389e-07 0)
(3 8.45569e-07 0)
(3 2.01526e-06 0)
(2.99999 4.96642e-06 0)
(2.99998 1.18155e-05 0)
(2.99995 2.90389e-05 0)
(2.99989 6.92543e-05 0)
(2.99973 0.000169734 0)
(2.99935 0.000406075 0)
(2.99841 0.000993304 0)
(2.99616 0.00239304 0)
(2.99066 0.00585198 0)
(2.97718 0.0143314 0)
(2.94297 0.0358103 0)
(2.8529 0.0931754 0)
(2.59607 0.260721 0)
(2.06039 0.656183 0)
(1.70942 0.891375 0)
(3 8.85189e-11 0)
(3 5.58849e-10 0)
(3 1.92236e-09 0)
(3 5.40542e-09 0)
(3 1.405e-08 0)
(3 3.51775e-08 0)
(3 8.58967e-08 0)
(3 2.10689e-07 0)
(3 5.04962e-07 0)
(3 1.2383e-06 0)
(3 2.9483e-06 0)
(2.99999 7.22614e-06 0)
(2.99997 1.71646e-05 0)
(2.99993 4.20948e-05 0)
(2.99983 0.000100011 0)
(2.99959 0.000244763 0)
(2.99903 0.000582248 0)
(2.99763 0.00142521 0)
(2.99428 0.00341018 0)
(2.98599 0.00836532 0)
(2.96556 0.0203695 0)
(2.9125 0.051621 0)
(2.76832 0.136824 0)
(2.37615 0.384306 0)
(1.86532 0.778516 0)
(3 5.27734e-11 0)
(3 3.38991e-10 0)
(3 1.13842e-09 0)
(3 3.27686e-09 0)
(3 8.32572e-09 0)
(3 2.1095e-08 0)
(3 5.10928e-08 0)
(3 1.2496e-07 0)
(3 3.01888e-07 0)
(3 7.24937e-07 0)
(3 1.76656e-06 0)
(2.99999 4.18473e-06 0)
(2.99998 1.02932e-05 0)
(2.99996 2.41883e-05 0)
(2.9999 5.97182e-05 0)
(2.99975 0.000139994 0)
(2.99939 0.000345793 0)
(2.99852 0.000812061 0)
(2.99644 0.00200575 0)
(2.99128 0.00474566 0)
(2.97875 0.0117746 0)
(2.94696 0.028706 0)
(2.86326 0.0746439 0)
(2.62983 0.205749 0)
(2.10359 0.538184 0)
(3 2.94745e-11 0)
(3 1.91752e-10 0)
(3 6.45765e-10 0)
(3 1.84172e-09 0)
(3 4.69818e-09 0)
(3 1.18407e-08 0)
(3 2.83656e-08 0)
(3 7.00896e-08 0)
(3 1.64215e-07 0)
(3 4.05011e-07 0)
(3 9.39367e-07 0)
(3 2.31962e-06 0)
(2.99999 5.36122e-06 0)
(2.99997 1.31932e-05 0)
(2.99993 3.05297e-05 0)
(2.99983 7.45208e-05 0)
(2.99959 0.000173801 0)
(2.99901 0.000418659 0)
(2.99756 0.000986953 0)
(2.99412 0.00235427 0)
(2.98545 0.00562294 0)
(2.96414 0.0135487 0)
(2.90834 0.0334966 0)
(2.75709 0.0878399 0)
(2.35059 0.248941 0)
(3 1.64057e-11 0)
(3 9.91928e-11 0)
(3 3.50737e-10 0)
(3 9.51289e-10 0)
(3 2.52144e-09 0)
(3 6.06989e-09 0)
(3 1.50296e-08 0)
(3 3.53469e-08 0)
(3 8.52102e-08 0)
(3 2.00895e-07 0)
(3 4.74588e-07 0)
(3 1.12942e-06 0)
(2.99999 2.61435e-06 0)
(2.99998 6.29302e-06 0)
(2.99995 1.42701e-05 0)
(2.99987 3.46665e-05 0)
(2.99968 7.6973e-05 0)
(2.9992 0.000188514 0)
(2.99805 0.000410561 0)
(2.99514 0.00100373 0)
(2.98805 0.00218995 0)
(2.96989 0.00528978 0)
(2.92244 0.011959 0)
(2.79097 0.0290962 0)
(2.42179 0.0736331 0)
(3 7.74364e-12 0)
(3 5.24216e-11 0)
(3 1.66707e-10 0)
(3 4.99994e-10 0)
(3 1.19482e-09 0)
(3 3.11094e-09 0)
(3 7.15164e-09 0)
(3 1.74962e-08 0)
(3 4.08513e-08 0)
(3 9.50314e-08 0)
(3 2.29419e-07 0)
(3 5.07148e-07 0)
(2.99999 1.28025e-06 0)
(2.99998 2.6677e-06 0)
(2.99995 7.05333e-06 0)
(2.99988 1.40544e-05 0)
(2.99971 3.82384e-05 0)
(2.99929 7.32498e-05 0)
(2.99824 0.000203646 0)
(2.9956 0.000384589 0)
(2.98901 0.00105514 0)
(2.97219 0.00208554 0)
(2.92753 0.00534592 0)
(2.80216 0.0118382 0)
(2.44005 0.0285482 0)
(3 4.31732e-12 0)
(3 2.39987e-11 0)
(3 8.95392e-11 0)
(3 2.26512e-10 0)
(3 6.35862e-10 0)
(3 1.40818e-09 0)
(3 3.7486e-09 0)
(3 7.89074e-09 0)
(3 2.0717e-08 0)
(3 4.32707e-08 0)
(3 1.11915e-07 0)
(3 2.35532e-07 0)
(2.99999 5.896e-07 0)
(2.99998 1.30171e-06 0)
(2.99996 3.05514e-06 0)
(2.99989 7.21369e-06 0)
(2.99973 1.57777e-05 0)
(2.99933 4.00307e-05 0)
(2.99831 8.12362e-05 0)
(2.99585 0.000223557 0)
(2.98946 0.000433904 0)
(2.97345 0.00119534 0)
(2.93034 0.00258143 0)
(2.80884 0.006675 0)
(2.45149 0.015822 0)
(3 2.43793e-12 0)
(3 1.22771e-11 0)
(3 4.92243e-11 0)
(3 1.18239e-10 0)
(3 3.50017e-10 0)
(3 7.41942e-10 0)
(3 2.07998e-09 0)
(3 4.16284e-09 0)
(3 1.15736e-08 0)
(3 2.31297e-08 0)
(3 6.27001e-08 0)
(3 1.28141e-07 0)
(2.99999 3.26993e-07 0)
(2.99998 7.27459e-07 0)
(2.99996 1.68031e-06 0)
(2.99989 4.09465e-06 0)
(2.99974 8.58763e-06 0)
(2.99934 2.36218e-05 0)
(2.99839 4.45024e-05 0)
(2.9959 0.000134758 0)
(2.98982 0.000243525 0)
(2.97398 0.000724778 0)
(2.93199 0.00153334 0)
(2.81287 0.00416132 0)
(2.45897 0.0102742 0)
(3 1.36363e-12 0)
(3 8.75004e-12 0)
(3 2.77623e-11 0)
(3 8.37207e-11 0)
(3 2.06641e-10 0)
(3 5.04447e-10 0)
(3 1.31472e-09 0)
(3 2.7828e-09 0)
(3 7.99938e-09 0)
(3 1.483e-08 0)
(3 4.71194e-08 0)
(3 7.93586e-08 0)
(2.99999 2.75168e-07 0)
(2.99998 4.15962e-07 0)
(2.99996 1.59906e-06 0)
(2.9999 2.19983e-06 0)
(2.99974 9.13708e-06 0)
(2.99936 1.23203e-05 0)
(2.9984 5.04972e-05 0)
(2.99601 7.31141e-05 0)
(2.98995 0.000269505 0)
(2.97453 0.000470589 0)
(2.93314 0.00142501 0)
(2.81606 0.00326719 0)
(2.46636 0.00886689 0)
(3 6.42124e-13 0)
(3 7.32065e-12 0)
(3 1.79792e-11 0)
(3 7.05453e-11 0)
(3 1.30362e-10 0)
(3 4.75176e-10 0)
(3 7.44186e-10 0)
(3 3.03259e-09 0)
(3 4.23212e-09 0)
(3 1.8201e-08 0)
(3 2.5068e-08 0)
(3 1.0589e-07 0)
(2.99999 1.54055e-07 0)
(2.99998 5.91677e-07 0)
(2.99996 9.84616e-07 0)
(2.9999 3.18498e-06 0)
(2.99975 6.18771e-06 0)
(2.99938 1.67498e-05 0)
(2.99844 3.91963e-05 0)
(2.99608 8.4029e-05 0)
(2.99014 0.000240267 0)
(2.97495 0.000475333 0)
(2.93426 0.00129555 0)
(2.81899 0.00312279 0)
(2.47383 0.00825988 0)
(3 6.07398e-13 0)
(3 6.55493e-12 0)
(3 1.57196e-11 0)
(3 6.48703e-11 0)
(3 1.20136e-10 0)
(3 4.30011e-10 0)
(3 7.90619e-10 0)
(3 2.6099e-09 0)
(3 5.04947e-09 0)
(3 1.52686e-08 0)
(3 3.27463e-08 0)
(3 8.53358e-08 0)
(2.99999 2.07534e-07 0)
(2.99998 4.73422e-07 0)
(2.99996 1.27013e-06 0)
(2.9999 2.58425e-06 0)
(2.99976 7.50342e-06 0)
(2.99939 1.3989e-05 0)
(2.99846 4.42387e-05 0)
(2.99618 7.43162e-05 0)
(2.99028 0.000245984 0)
(2.97538 0.00042868 0)
(2.93538 0.00126726 0)
(2.82144 0.00279086 0)
(2.48122 0.00748034 0)
(3 1.21493e-12 0)
(3 3.37017e-12 0)
(3 2.24516e-11 0)
(3 3.28157e-11 0)
(3 1.70547e-10 0)
(3 2.27456e-10 0)
(3 1.12665e-09 0)
(3 1.44883e-09 0)
(3 6.9164e-09 0)
(3 9.51697e-09 0)
(3 4.03176e-08 0)
(3 6.31964e-08 0)
(2.99999 2.26079e-07 0)
(2.99998 4.14367e-07 0)
(2.99996 1.1986e-06 0)
(2.99991 2.69841e-06 0)
(2.99976 6.00584e-06 0)
(2.99941 1.68203e-05 0)
(2.99849 2.83355e-05 0)
(2.99625 0.000103267 0)
(2.99044 0.000137749 0)
(2.97579 0.000537603 0)
(2.9362 0.00091871 0)
(2.82382 0.00253239 0)
(2.48653 0.00610355 0)
(3 9.44395e-13 0)
(3 3.47709e-12 0)
(3 1.81096e-11 0)
(3 3.45268e-11 0)
(3 1.37362e-10 0)
(3 2.45998e-10 0)
(3 8.84409e-10 0)
(3 1.66216e-09 0)
(3 5.40959e-09 0)
(3 1.09464e-08 0)
(3 3.12424e-08 0)
(3 7.25756e-08 0)
(2.99999 1.75448e-07 0)
(2.99999 4.58424e-07 0)
(2.99996 9.64104e-07 0)
(2.99991 2.78219e-06 0)
(2.99977 5.20687e-06 0)
(2.99941 1.60258e-05 0)
(2.99853 2.5902e-05 0)
(2.99627 8.89307e-05 0)
(2.99064 0.000130425 0)
(2.97604 0.000439089 0)
(2.93692 0.00074669 0)
(2.82562 0.00198711 0)
(2.49 0.00451698 0)
(3 4.30984e-13 0)
(3 3.17013e-12 0)
(3 1.07991e-11 0)
(3 3.20241e-11 0)
(3 8.0521e-11 0)
(3 2.43189e-10 0)
(3 4.99458e-10 0)
(3 1.6982e-09 0)
(3 2.96143e-09 0)
(3 1.13032e-08 0)
(3 1.74587e-08 0)
(3 7.09194e-08 0)
(2.99999 1.0062e-07 0)
(2.99999 4.28567e-07 0)
(2.99996 5.74277e-07 0)
(2.99991 2.42895e-06 0)
(2.99977 3.32355e-06 0)
(2.99942 1.31942e-05 0)
(2.99855 1.79616e-05 0)
(2.99633 6.69603e-05 0)
(2.99073 9.81774e-05 0)
(2.97629 0.000309065 0)
(2.93742 0.000531078 0)
(2.82668 0.00135727 0)
(2.49219 0.00290627 0)
(3 -8.39479e-14 0)
(3 2.80659e-12 0)
(3 1.75517e-12 0)
(3 2.91313e-11 0)
(3 1.64697e-11 0)
(3 2.0363e-10 0)
(3 1.29089e-10 0)
(3 1.29819e-09 0)
(3 1.03913e-09 0)
(3 7.71244e-09 0)
(3 8.52431e-09 0)
(3 4.21782e-08 0)
(2.99999 6.53485e-08 0)
(2.99999 2.09005e-07 0)
(2.99996 4.81745e-07 0)
(2.99991 9.30011e-07 0)
(2.99978 3.23426e-06 0)
(2.99942 3.63085e-06 0)
(2.99858 2.08454e-05 0)
(2.99634 1.12075e-05 0)
(2.99084 0.000113607 0)
(2.97638 6.91035e-05 0)
(2.93777 0.000433342 0)
(2.82722 0.000594643 0)
(2.4931 0.00156379 0)
(3 -2.18539e-13 0)
(3 2.13993e-12 0)
(3 -2.88643e-12 0)
(3 2.1571e-11 0)
(3 -1.42932e-11 0)
(3 1.15686e-10 0)
(3 -1.76049e-11 0)
(3 5.64134e-10 0)
(3 4.52605e-10 0)
(3 2.03936e-09 0)
(3 6.47177e-09 0)
(3 4.01384e-09 0)
(2.99999 6.12929e-08 0)
(2.99999 -3.27697e-08 0)
(2.99996 4.90194e-07 0)
(2.99991 -4.89178e-07 0)
(2.99977 3.50052e-06 0)
(2.99944 -4.33606e-06 0)
(2.99856 2.20473e-05 0)
(2.99641 -2.93624e-05 0)
(2.99078 0.000110631 0)
(2.97655 -0.000103319 0)
(2.93786 0.000309245 0)
(2.82729 3.65942e-06 0)
(2.49372 0.000544979 0)
(1.14121 1.00697 0)
(1.07442 0.71889 0)
(0.251939 0.471686 0)
(-0.434249 0.0398782 0)
(-0.495101 -0.0163266 0)
(-0.670036 -0.0246389 0)
(-0.72894 -0.0189715 0)
(-0.770281 0.00395847 0)
(-0.827053 0.0191158 0)
(-0.892254 0.0199483 0)
(-0.950574 0.0145444 0)
(-1.00141 0.00889726 0)
(-1.05123 0.00683516 0)
(-1.10101 0.00565698 0)
(-1.14758 0.00413137 0)
(-1.19062 0.00225601 0)
(-1.23135 0.00160642 0)
(-1.26125 0.00375789 0)
(-1.27491 0.00373281 0)
(-1.27898 0.00213174 0)
(-1.27443 -8.45549e-05 0)
(-1.25343 -0.00320355 0)
(-1.2117 -0.00703893 0)
(-1.15246 -0.0113431 0)
(-1.08154 -0.0151556 0)
(-1.00502 -0.0178514 0)
(-0.926953 -0.0195161 0)
(-0.849698 -0.0203217 0)
(-0.774111 -0.0206887 0)
(-0.701131 -0.0206646 0)
(-0.631577 -0.020355 0)
(-0.565363 -0.0200143 0)
(-0.502222 -0.0199806 0)
(-0.441412 -0.0205371 0)
(-0.382903 -0.0215748 0)
(-0.324358 -0.0234346 0)
(-0.267801 -0.0242781 0)
(-0.212967 -0.0244878 0)
(-0.16016 -0.0244302 0)
(-0.108935 -0.0247201 0)
(-0.0589836 -0.0252731 0)
(-0.0113201 -0.0276296 0)
(0.0425467 -0.0269823 0)
(0.0886625 -0.0244711 0)
(0.13317 -0.0229464 0)
(0.175738 -0.0217856 0)
(0.216617 -0.0208468 0)
(0.254637 -0.0197683 0)
(0.291149 -0.0189995 0)
(0.328473 -0.018807 0)
(0.365935 -0.0185967 0)
(0.401959 -0.0179939 0)
(0.436636 -0.0172353 0)
(0.470231 -0.0165863 0)
(0.502889 -0.0159906 0)
(0.534744 -0.0154503 0)
(0.565822 -0.0149062 0)
(0.596182 -0.0143937 0)
(0.625844 -0.0138788 0)
(0.654863 -0.0133954 0)
(0.683259 -0.0129139 0)
(0.711081 -0.0124599 0)
(0.738345 -0.0120115 0)
(0.765093 -0.0115844 0)
(0.791343 -0.0111668 0)
(0.817123 -0.0107648 0)
(0.842455 -0.0103744 0)
(0.867356 -0.00999602 0)
(0.89185 -0.00962737 0)
(0.915947 -0.0092703 0)
(0.939666 -0.00891953 0)
(0.963022 -0.00857957 0)
(0.986025 -0.00824494 0)
(1.00869 -0.00791809 0)
(1.03103 -0.00759728 0)
(1.05305 -0.00728061 0)
(1.07476 -0.00696961 0)
(1.09616 -0.00666068 0)
(1.11726 -0.00635609 0)
(1.13805 -0.00605295 0)
(1.15853 -0.00575352 0)
(1.17871 -0.00545555 0)
(1.19857 -0.00516135 0)
(1.21813 -0.00486925 0)
(1.23737 -0.00458059 0)
(1.25631 -0.00429487 0)
(1.27493 -0.00401075 0)
(1.29323 -0.00372974 0)
(1.3112 -0.00344718 0)
(1.32884 -0.00316506 0)
(1.34611 -0.00287604 0)
(1.36298 -0.00257945 0)
(1.37939 -0.00227125 0)
(1.39524 -0.00194221 0)
(1.41039 -0.00157299 0)
(1.42462 -0.00116134 0)
(1.43759 -0.000704492 0)
(1.44881 -0.000173161 0)
(1.45729 0.000491313 0)
(1.46336 0.00132297 0)
(1.19367 0.913932 0)
(1.21041 0.6253 0)