/*--------------------------------*- C++ -*----------------------------------*\
  =========                 |
  \\      /  F ield         | OpenFOAM: The Open Source CFD Toolbox
   \\    /   O peration     | Website:  https://openfoam.org
    \\  /    A nd           | Version:  10
     \\/     M anipulation  |
\*---------------------------------------------------------------------------*/
FoamFile
{
    format      ascii;
    class       volScalarField;
    location    "5.5";
    object      p;
}
// * * * * * * * * * * * * * * * * * * * * * * * * * * * * * * * * * * * * * //

dimensions      [1 -1 -2 0 0 0 0];

internalField   nonuniform List<scalar> 
5250
(
1.00001
1.00003
1.00008
1.0002
1.00055
1.00128
1.00332
1.00792
1.01988
1.0491
1.12318
1.31655
1.85776
3.44195
8.06727
11.6835
11.2881
11.0502
11.1348
11.3652
11.5932
11.7317
11.8369
11.9193
11.9817
1.00001
1.00003
1.00008
1.00022
1.0005
1.00134
1.0031
1.00806
1.01923
1.0487
1.1206
1.31233
1.84132
3.39843
7.95264
11.697
11.2878
11.0405
11.1261
11.3574
11.5854
11.7242
11.831
11.9148
11.9787
1
1.00003
1.00008
1.00021
1.00049
1.00129
1.00303
1.00768
1.01881
1.04663
1.11702
1.3004
1.81001
3.30285
7.69596
11.7242
11.2835
11.0108
11.095
11.3243
11.5502
11.6874
11.7937
11.8771
11.9413
1.00001
1.00002
1.00008
1.00018
1.0005
1.00114
1.00305
1.0069
1.0186
1.0428
1.11305
1.28063
1.7653
3.15851
7.29978
11.7648
11.2781
10.9619
11.0417
11.2646
11.4876
11.6212
11.7248
11.8064
11.872
1
1.00002
1.00007
1.00018
1.00045
1.00112
1.00268
1.00687
1.01621
1.04196
1.1015
1.26372
1.70048
2.97866
6.77603
11.8039
11.2718
10.8967
10.9686
11.1804
11.3998
11.5281
11.6268
11.7057
11.7739
1
1.00002
1.00007
1.00016
1.00042
1.00098
1.00257
1.00602
1.01533
1.03737
1.09382
1.23751
1.6325
2.76818
6.1479
11.7952
11.2551
10.8164
10.8762
11.0691
11.2819
11.4013
11.4908
11.5633
11.6335
1
1.00002
1.00006
1.00015
1.00037
1.00094
1.00221
1.00574
1.01332
1.03487
1.083
1.21557
1.56171
2.56485
5.52329
11.6604
11.1885
10.7156
10.762
10.9275
11.1272
11.2319
11.3048
11.3622
11.4292
1
1.00002
1.00005
1.00013
1.00035
1.0008
1.00215
1.00484
1.01301
1.02976
1.07868
1.19092
1.51104
2.40454
5.07211
11.2371
11.0033
10.6007
10.6276
10.7507
10.9272
11.0091
11.0529
11.0768
11.1208
1
1.00002
1.00005
1.00013
1.00029
1.00079
1.00177
1.0048
1.01081
1.02899
1.06768
1.17734
1.45439
2.26019
4.62768
10.5394
10.7128
10.5257
10.4838
10.5467
10.6787
10.7235
10.7163
10.6701
10.6239
1
1.00001
1.00004
1.0001
1.00029
1.00065
1.00174
1.00395
1.0105
1.02434
1.06325
1.15455
1.40775
2.10948
4.18449
9.66527
10.5521
10.4258
10.3057
10.3295
10.3882
10.3745
10.2912
10.081
9.75211
1
1.00001
1.00004
1.0001
1.00023
1.0006
1.00146
1.00359
1.00904
1.02166
1.05526
1.13603
1.35442
1.9604
3.73531
8.63263
10.4407
10.3278
10.1194
10.0922
10.0728
9.98662
9.74043
9.15864
7.64419
1
1.00001
1.00003
1.00008
1.0002
1.00053
1.00121
1.00323
1.00731
1.01964
1.04518
1.11947
1.29643
1.80961
3.27285
7.44122
10.3582
10.2316
9.9524
9.84721
9.76476
9.58093
9.18234
8.3814
6.79614
1
1.00001
1.00003
1.00007
1.00017
1.00042
1.00107
1.00252
1.00656
1.01516
1.03983
1.09484
1.2474
1.64926
2.81286
6.14031
10.2572
10.1302
9.81106
9.60837
9.46238
9.19788
8.7018
7.87654
6.60562
1
1.00001
1.00002
1.00006
1.00014
1.00034
1.00088
1.00201
1.00535
1.01205
1.03238
1.0749
1.19659
1.50223
2.37728
4.83416
9.9636
9.93972
9.69994
9.38885
9.17249
8.86215
8.35094
7.59185
6.58296
1
1.00001
1.00002
1.00005
1.00011
1.0003
1.00067
1.00177
1.00403
1.01063
1.02476
1.06367
1.15591
1.40834
2.10195
4.10492
9.09858
9.66351
9.50876
9.18436
8.91243
8.58103
8.0911
7.41395
6.57511
1
1
1.00001
1.00004
1.0001
1.00022
1.00057
1.00136
1.00336
1.00841
1.02011
1.05129
1.12533
1.32499
1.86996
3.43646
7.62696
9.38561
9.2921
9.02941
8.69614
8.34705
7.88684
7.28214
6.55923
1
1
1.00001
1.00003
1.00007
1.00019
1.00042
1.00112
1.00258
1.00666
1.01586
1.0398
1.09831
1.25062
1.66146
2.82889
6.07084
9.20412
9.15268
8.92559
8.52803
8.15448
7.71862
7.17462
6.53879
1
1
1.00001
1.00002
1.00006
1.00013
1.00035
1.00079
1.0021
1.0047
1.01257
1.02852
1.07507
1.18012
1.47558
2.26532
4.42776
8.8137
9.01838
8.8344
8.42508
8.00432
7.57908
7.08399
6.51756
1
1
1.00001
1.00002
1.00004
1.00011
1.00025
1.00065
1.00148
1.00383
1.00906
1.02268
1.05559
1.13881
1.35497
1.95059
3.61737
7.78216
8.77098
8.64968
8.32621
7.88005
7.4607
7.00529
6.49597
1
1
1
1.00001
1.00003
1.00008
1.00019
1.00049
1.0011
1.00292
1.00661
1.01762
1.04031
1.10628
1.25948
1.69842
2.90098
6.14263
8.49395
8.45072
8.23678
7.79571
7.36607
6.93698
6.47439
1
1
1
1.00001
1.00002
1.00006
1.00014
1.00033
1.00086
1.00196
1.00518
1.01165
1.03107
1.07159
1.1868
1.4715
2.26259
4.35138
8.05145
8.30997
8.15341
7.77317
7.30624
6.88383
6.45591
1
1
1
1.00001
1.00002
1.00004
1.0001
1.00025
1.00058
1.00153
1.00343
1.00914
1.0206
1.05456
1.12827
1.33672
1.87665
3.37442
6.99921
8.09361
8.00219
7.73045
7.27429
6.84814
6.44178
1
1
1
1
1.00001
1.00003
1.00007
1.00017
1.00044
1.00102
1.00258
1.00625
1.01511
1.03788
1.09195
1.23376
1.60716
2.63265
5.32501
7.77599
7.79476
7.64832
7.28536
6.84332
6.43974
1
1
1
1
1.00001
1.00002
1.00005
1.00012
1.0003
1.0007
1.00176
1.00427
1.01025
1.02572
1.06151
1.15505
1.39102
2.02183
3.653
7.10591
7.67295
7.5694
7.28392
6.85315
6.44463
1
1
1
1
1.00001
1.00001
1.00003
1.00008
1.0002
1.00051
1.00116
1.00303
1.00685
1.01808
1.0413
1.10758
1.26173
1.69209
2.82744
5.69692
7.4273
7.41112
7.26007
6.89679
6.46277
1
1
1
1
1
1.00001
1.00002
1.00005
1.00014
1.00032
1.00081
1.00194
1.0047
1.01164
1.02768
1.06961
1.16949
1.43456
2.12386
3.87245
6.90944
7.30458
7.20447
6.9372
6.50468
1
1
1
1
1
1.00001
1.00002
1.00004
1.00009
1.00021
1.00055
1.00125
1.00323
1.00749
1.01881
1.04529
1.11228
1.28082
1.72736
2.90017
5.73507
7.08395
7.0698
6.92578
6.59157
1
1
1
1
1
1
1.00001
1.00002
1.00006
1.00014
1.00035
1.00082
1.00211
1.00476
1.0125
1.02822
1.074
1.17463
1.455
2.16409
3.95766
6.59482
6.95815
6.87423
6.64138
1
1
1
1
1
1
1.00001
1.00002
1.00004
1.00009
1.00023
1.00052
1.00137
1.00303
1.00806
1.01797
1.04725
1.10978
1.28398
1.71518
2.85042
5.4977
6.73455
6.7365
6.62713
1
1
1
1
1
1
1
1.00001
1.00002
1.00006
1.00014
1.00034
1.00084
1.00194
1.00501
1.01127
1.02956
1.06758
1.17445
1.429
2.10418
3.74815
6.2287
6.6292
6.57386
1
1
1
1
1
1
1
1.00001
1.00001
1.00004
1.00008
1.00022
1.00049
1.0013
1.00289
1.00757
1.0171
1.04412
1.10351
1.26432
1.66218
2.69317
5.10012
6.39353
6.45697
1
1
1
1
1
1
1
1
1.00001
1.00002
1.00005
1.00013
1.00032
1.00074
1.00187
1.00426
1.01101
1.02483
1.06436
1.15029
1.38435
1.95391
3.33064
5.84527
6.34502
1
1
1
1
1
1
1
1
1.00001
1.00001
1.00003
1.00008
1.00019
1.00045
1.00114
1.00261
1.00673
1.01508
1.03955
1.09047
1.23342
1.576
2.46998
4.5991
6.05785
1
1
1
1
1
1
1
1
1
1.00001
1.00002
1.00005
1.00011
1.00029
1.00063
1.00165
1.0037
1.00953
1.02176
1.05485
1.13032
1.3269
1.80862
2.96626
5.37802
1
1
1
1
1
1
1
1
1
1
1.00001
1.00003
1.00007
1.00016
1.00039
1.00097
1.00221
1.00569
1.01275
1.03326
1.07569
1.19478
1.47387
2.19992
3.92515
1
1
1
1
1
1
1
1
1
1
1.00001
1.00002
1.00004
1.00009
1.00023
1.00054
1.00137
1.00307
1.00798
1.01775
1.04636
1.10603
1.27011
1.66187
2.62556
1
1
1
1
1
1
1
1
1
1
1
1.00001
1.00002
1.00006
1.00013
1.00033
1.00073
1.00189
1.00417
1.01092
1.02414
1.06274
1.14408
1.36536
1.88273
1
1
1
1
1
1
1
1
1
1
1
1.00001
1.00001
1.00003
1.00008
1.00018
1.00045
1.00102
1.00251
1.00604
1.01416
1.03528
1.08256
1.20673
1.50405
1
1
1
1
1
1
1
1
1
1
1
1
1.00001
1.00002
1.00004
1.0001
1.00024
1.00058
1.00142
1.00325
1.00826
1.01852
1.0476
1.1092
1.27482
1
1
1
1
1
1
1
1
1
1
1
1
1
1.00001
1.00002
1.00006
1.00013
1.00033
1.00075
1.00192
1.00424
1.01098
1.02423
1.06277
1.14294
1
1
1
1
1
1
1
1
1
1
1
1
1
1.00001
1.00001
1.00003
1.00008
1.00018
1.00045
1.001
1.00259
1.0057
1.01479
1.03292
1.0844
1
1
1
1
1
1
1
1
1
1
1
1
1
1
1.00001
1.00002
1.00004
1.00011
1.00025
1.00062
1.0014
1.00355
1.00794
1.02036
1.04582
1
1
1
1
1
1
1
1
1
1
1
1
1
1
1.00001
1.00001
1.00003
1.00007
1.00016
1.0004
1.00091
1.00233
1.00522
1.01356
1.03039
1
1
1
1
1
1
1
1
1
1
1
1
1
1
1
1.00001
1.00002
1.00005
1.00012
1.00031
1.00074
1.00179
1.00449
1.01053
1.02693
1
1
1
1
1
1
1
1
1
1
1
1
1
1
1
1.00001
1.00002
1.00005
1.00011
1.00027
1.00066
1.00161
1.00408
1.00962
1.02492
1
1
1
1
1
1
1
1
1
1
1
1
1
1
1
1.00001
1.00002
1.00004
1.00011
1.00024
1.00066
1.00149
1.00403
1.00911
1.02444
1
1
1
1
1
1
1
1
1
1
1
1
1
1
1
1.00001
1.00002
1.00004
1.0001
1.00025
1.00061
1.00158
1.00369
1.00976
1.0226
1
1
1
1
1
1
1
1
1
1
1
1
1
1
1
1.00001
1.00002
1.00004
1.0001
1.00026
1.00059
1.00159
1.00361
1.00974
1.02226
1
1
1
1
1
1
1
1
1
1
1
1
1
1
1
1.00001
1.00002
1.00004
1.0001
1.00026
1.00059
1.00159
1.00359
1.00972
1.02221
1
1
1
1
1
1
1
1
1
1
1
1
1
1
1
1.00001
1.00002
1.00004
1.0001
1.00024
1.00064
1.00146
1.00386
1.0091
1.0233
3.27662
2.14088
2.3831
3.38986
3.4859
3.28656
3.15641
3.09545
3.06961
3.0557
3.02484
2.98289
2.94214
2.90899
2.87974
2.84903
2.81712
2.78495
2.75395
2.72434
2.69368
2.66075
2.63983
2.63096
2.62857
2.63427
2.66612
2.73127
2.83157
2.95906
3.10233
3.25246
3.40254
3.5476
3.68221
3.80363
3.9117
4.0071
4.09271
4.16718
4.22982
4.28254
4.32593
4.36456
4.39392
4.41359
4.42603
4.43245
4.43284
4.43021
4.4222
4.40747
4.38935
4.36918
4.34632
4.32166
4.29504
4.26733
4.23871
4.20972
4.18078
4.15232
4.12481
4.0987
4.07444
4.0525
4.0333
4.01723
4.00463
3.99575
3.99079
3.98978
3.99012
3.99125
3.9939
3.99926
4.00491
4.00927
4.00908
4.00819
4.00562
3.99975
3.98776
3.97065
3.94759
3.92004
3.88878
3.85449
3.81771
3.77895
3.73863
3.6972
3.65511
3.6129
3.57119
3.5308
3.49282
3.45878
3.43062
3.41186
4.05924
3.04452
3.11406
3.46099
3.4242
3.26623
3.13304
3.09768
3.10635
3.0981
3.04541
2.98391
2.93369
2.8989
2.87407
2.84691
2.81683
2.78489
2.75321
2.72297
2.69369
2.66422
2.63992
2.6285
2.62514
2.62889
2.65641
2.71812
2.81712
2.94502
3.08859
3.23905
3.38868
3.5337
3.66854
3.78988
3.89769
3.99183
4.08008
4.15586
4.21875
4.27221
4.31687
4.3555
4.38476
4.40532
4.41817
4.42496
4.42556
4.4236
4.4168
4.4023
4.38341
4.36315
4.3409
4.31659
4.2904
4.2629
4.23457
4.20583
4.17714
4.14892
4.12163
4.09573
4.07168
4.04993
4.03091
4.015
4.0025
3.99367
3.9887
3.98786
3.98824
3.98945
3.9921
3.99726
4.00265
4.00667
4.00635
4.00536
4.00277
3.99695
3.98492
3.96746
3.94469
3.9175
3.88655
3.85245
3.81577
3.77702
3.73667
3.69518
3.65302
3.61068
3.56879
3.52815
3.48983
3.45548
3.42694
3.40793
4.90025
3.85694
3.44241
3.45075
3.41548
3.30588
3.15856
3.10637
3.09003
3.06335
3.02507
2.97824
2.93653
2.90811
2.88688
2.85287
2.81894
2.78487
2.75125
2.71877
2.68855
2.66151
2.63822
2.6242
2.61924
2.62128
2.64385
2.69891
2.79415
2.9223
3.06569
3.21598
3.36381
3.51152
3.64904
3.77173
3.88097
3.97786
4.06578
4.14161
4.20543
4.25963
4.30497
4.34294
4.37246
4.39372
4.40729
4.41441
4.41533
4.41383
4.40829
4.39553
4.37575
4.35508
4.33321
4.30944
4.28382
4.2568
4.22891
4.20062
4.17236
4.1446
4.11776
4.09232
4.06872
4.04741
4.02878
4.0132
4.00094
3.99218
3.98708
3.98614
3.98652
3.98765
3.99006
3.99434
3.99869
4.00156
4.00111
3.99971
3.99658
3.99009
3.97731
3.95969
3.9375
3.91109
3.88087
3.84732
3.81102
3.77249
3.73226
3.69082
3.64863
3.60617
3.5641
3.52322
3.48475
3.45001
3.42074
3.40102
5.32615
4.33225
3.73327
3.50586
3.43245
3.33239
3.21021
3.13227
3.09762
3.06868
3.02863
2.98032
2.93621
2.9035
2.87617
2.84608
2.81544
2.78323
2.75029
2.71821
2.68843
2.66194
2.63853
2.62064
2.6104
2.60853
2.62812
2.67917
2.77043
2.89864
3.03911
3.19007
3.34008
3.48679
3.62349
3.74664
3.85653
3.95441
4.0419
4.11839
4.18356
4.23873
4.28487
4.323
4.35302
4.375
4.38946
4.39719
4.39871
4.39763
4.39343
4.38318
4.36372
4.34268
4.32092
4.29782
4.27307
4.24694
4.21987
4.19238
4.16493
4.13799
4.112
4.08741
4.06465
4.04418
4.02639
4.01153
3.99966
3.99105
3.98574
3.9842
3.9844
3.98511
3.98672
3.9894
3.99186
3.99257
3.99192
3.98982
3.9851
3.97628
3.96306
3.94581
3.9245
3.89918
3.87007
3.83752
3.80204
3.76413
3.72436
3.68322
3.64116
3.5987
3.55658
3.5157
3.47697
3.4417
3.41149
3.39067
5.5655
4.66887
4.02905
3.65171
3.4899
3.3866
3.27725
3.18503
3.12285
3.08214
3.03861
2.98996
2.94544
2.90973
2.8786
2.84699
2.81462
2.78163
2.74894
2.71748
2.68795
2.66096
2.63815
2.62218
2.61353
2.6154
2.63376
2.68357
2.77146
2.88915
3.02307
3.1634
3.30943
3.4528
3.58779
3.71099
3.82191
3.92114
4.0096
4.08726
4.15405
4.21061
4.25787
4.29666
4.32736
4.35023
4.36569
4.3744
4.37682
4.37609
4.37303
4.36517
4.34876
4.32757
4.30573
4.28325
4.25958
4.2347
4.20888
4.18264
4.15644
4.13077
4.10608
4.08281
4.06133
4.04223
4.02563
4.01162
4.00039
3.99204
3.98647
3.98374
3.98323
3.98328
3.98342
3.98338
3.98305
3.98198
3.97946
3.97438
3.9668
3.95652
3.94287
3.92587
3.90532
3.88113
3.85336
3.82222
3.78808
3.75138
3.71262
3.67222
3.63061
3.58861
3.54687
3.50609
3.46717
3.43136
3.40019
3.3781
5.72065
4.92783
4.29866
3.86904
3.61296
3.46575
3.34806
3.24602
3.16698
3.10944
3.05937
3.00984
2.96292
2.92215
2.88614
2.85277
2.81977
2.78669
2.75428
2.72331
2.69483
2.6701
2.6513
2.64051
2.64014
2.64705
2.6725
2.72876
2.80958
2.90745
3.02108
3.14368
3.27002
3.40359
3.53571
3.66027
3.77408
3.87597
3.96628
4.04548
4.11395
4.17227
4.22114
4.2613
4.29325
4.31744
4.33431
4.34445
4.34835
4.34798
4.34602
4.34054
4.32847
4.30854
4.2871
4.2653
4.24282
4.21948
4.19536
4.17087
4.14646
4.12261
4.09976
4.07835
4.05885
4.0415
4.02634
4.01358
4.00321
3.99516
3.98922
3.98523
3.98284
3.98118
3.97916
3.97639
3.97249
3.96748
3.96117
3.95318
3.94302
3.93079
3.91619
3.89897
3.87886
3.85568
3.82938
3.79999
3.76772
3.73284
3.69573
3.65657
3.61626
3.57523
3.53419
3.49377
3.45484
3.41862
3.38658
3.36319
5.82498
5.12574
4.52892
4.07545
3.76478
3.56394
3.42126
3.30793
3.2166
3.14513
3.08682
3.03426
2.98523
2.94108
2.90174
2.86562
2.8314
2.79806
2.76601
2.73643
2.71108
2.69253
2.68276
2.68365
2.69164
2.7167
2.77203
2.8404
2.90338
2.97084
3.04902
3.13752
3.22974
3.33301
3.4545
3.58204
3.7042
3.81412
3.91005
3.99277
4.06364
4.12401
4.17482
4.21683
4.2506
4.27666
4.29548
4.30764
4.31371
4.31407
4.31315
4.3099
4.30203
4.28594
4.26578
4.24494
4.2238
4.20224
4.18023
4.15802
4.13597
4.11454
4.09415
4.07513
4.05814
4.04291
4.02965
4.01838
4.00895
4.00113
3.99462
3.98912
3.98429
3.97971
3.97437
3.96786
3.95991
3.95055
3.9399
3.92802
3.91478
3.90005
3.88372
3.86559
3.84543
3.82298
3.79809
3.77062
3.74059
3.70807
3.67319
3.63629
3.59783
3.55838
3.51853
3.47889
3.44031
3.40396
3.37131
3.34676
5.89604
5.27608
4.71835
4.26299
3.91964
3.67666
3.50439
3.37303
3.27086
3.18828
3.12096
3.06348
3.01195
2.96522
2.92324
2.8848
2.84896
2.81511
2.78362
2.75673
2.73766
2.72962
2.73152
2.74193
2.77255
2.84212
2.94432
3.01712
3.05739
3.08886
3.12189
3.15754
3.21336
3.26762
3.3476
3.46673
3.59733
3.7221
3.8317
3.92413
4.00119
4.06545
4.11892
4.16312
4.199
4.22731
4.24859
4.26334
4.27205
4.27511
4.2748
4.27317
4.26862
4.25858
4.24141
4.22225
4.20274
4.1832
4.16365
4.1442
4.12508
4.10667
4.08931
4.07352
4.05917
4.04646
4.03533
4.0256
4.01701
4.00922
4.00186
3.9945
3.98687
3.97847
3.96879
3.95771
3.94517
3.93122
3.91603
3.89982
3.88277
3.86489
3.84616
3.82647
3.80566
3.78346
3.75966
3.73398
3.70627
3.67637
3.64425
3.61005
3.57418
3.53696
3.49892
3.46063
3.42291
3.38689
3.35403
3.32869
5.94445
5.39023
4.87397
4.42943
4.07129
3.79914
3.59801
3.4471
3.33008
3.23717
3.1612
3.09778
3.0427
2.99331
2.94884
2.9083
2.87102
2.83692
2.80696
2.78468
2.7764
2.77862
2.78969
2.82173
2.89574
3.04705
3.18949
3.25628
3.26766
3.26368
3.24989
3.22174
3.22404
3.24115
3.2812
3.34889
3.45728
3.58844
3.71501
3.82534
3.91708
3.99172
4.05172
4.10002
4.13876
4.16962
4.19365
4.2114
4.22332
4.22989
4.23177
4.23135
4.22945
4.22443
4.21368
4.19761
4.18034
4.16314
4.14637
4.13011
4.11445
4.09962
4.0858
4.07347
4.0623
4.0523
4.04329
4.03497
4.027
4.01893
4.01032
4.00072
3.98994
3.97693
3.96244
3.94645
3.92903
3.91028
3.89044
3.86975
3.84855
3.82702
3.80533
3.78344
3.76132
3.73871
3.71541
3.69106
3.66538
3.63803
3.60886
3.57778
3.54492
3.5105
3.47492
3.43864
3.40243
3.36737
3.33486
3.3093
5.97988
5.47754
5.00055
4.57354
4.21337
3.92398
3.70009
3.5286
3.39597
3.29175
3.20668
3.13651
3.0769
3.02446
2.9775
2.93508
2.89673
2.86304
2.83592
2.82335
2.82511
2.83481
2.86405
2.93443
3.08478
3.33834
3.50362
3.53848
3.52847
3.49345
3.41444
3.31743
3.25792
3.25226
3.26289
3.293
3.35051
3.4401
3.56219
3.68446
3.79585
3.88961
3.96463
4.02322
4.06849
4.10378
4.13137
4.1524
4.16782
4.17815
4.1839
4.18605
4.18579
4.18424
4.1799
4.17053
4.15709
4.14272
4.12905
4.11628
4.10444
4.09361
4.08394
4.07523
4.06731
4.05993
4.05282
4.04559
4.03787
4.02906
4.01875
4.0066
3.99137
3.9742
3.95507
3.93418
3.91182
3.88818
3.86363
3.83844
3.81304
3.78768
3.76268
3.7381
3.71403
3.69028
3.66671
3.64295
3.61867
3.59345
3.56692
3.53891
3.5093
3.47806
3.44548
3.41186
3.37788
3.34452
3.31302
3.288
6.006
5.54745
5.1046
4.69831
4.3431
4.04559
3.80567
3.61649
3.46807
3.35104
3.257
3.17921
3.11433
3.05822
3.00868
2.96448
2.92566
2.89331
2.87234
2.8729
2.8798
2.90335
2.96338
3.09687
3.37379
3.70724
3.85927
3.85557
3.8257
3.74683
3.58834
3.44532
3.34432
3.28801
3.27642
3.28332
3.30639
3.3506
3.41879
3.52103
3.63688
3.74749
3.84319
3.92055
3.98053
4.02606
4.06067
4.08653
4.1062
4.1205
4.13039
4.13658
4.14012
4.14059
4.14003
4.13775
4.13227
4.12228
4.11266
4.10357
4.09566
4.08901
4.08348
4.07841
4.07356
4.06851
4.063
4.05642
4.04848
4.03844
4.02591
4.00968
3.99096
3.96978
3.94633
3.92082
3.89371
3.86533
3.8362
3.80666
3.77721
3.74809
3.71972
3.6922
3.66574
3.64022
3.61558
3.59152
3.56777
3.54386
3.5194
3.49402
3.46747
3.43953
3.41028
3.37988
3.34879
3.31791
3.28814
3.26454
6.02619
5.60409
5.19176
4.80624
4.46028
4.16133
3.91127
3.70809
3.54524
3.41538
3.31102
3.22558
3.15484
3.09388
3.04208
2.99612
2.95788
2.92842
2.92193
2.92644
2.94426
2.99227
3.10261
3.33487
3.79678
4.13856
4.21468
4.19457
4.12691
3.9764
3.77091
3.5976
3.46726
3.37699
3.32276
3.30051
3.30334
3.31744
3.34711
3.39662
3.47616
3.57885
3.68423
3.78048
3.86159
3.9258
3.97461
4.0107
4.03762
4.05711
4.07182
4.08259
4.09028
4.09556
4.09937
4.10127
4.10112
4.10002
4.09722
4.0924
4.08869
4.08612
4.08439
4.08254
4.08029
4.07716
4.07283
4.06643
4.05755
4.04521
4.02906
4.00997
3.98801
3.9631
3.93556
3.90574
3.87427
3.84158
3.80832
3.77482
3.74167
3.70908
3.6775
3.64703
3.61794
3.59019
3.56382
3.53863
3.51443
3.49083
3.46744
3.44388
3.41983
3.39491
3.36903
3.34212
3.3144
3.28666
3.25925
3.23801
6.04374
5.6505
5.2656
4.90032
4.56588
4.26947
4.01477
3.8012
3.62593
3.48384
3.36886
3.27495
3.19753
3.13229
3.07703
3.03039
2.99345
2.97517
2.97761
2.99029
3.02783
3.11866
3.31765
3.73149
4.29979
4.56264
4.55821
4.51578
4.40279
4.17483
3.95059
3.76401
3.61568
3.50113
3.41637
3.35868
3.32342
3.3175
3.32297
3.33867
3.37273
3.42852
3.5151
3.61136
3.70683
3.79196
3.86193
3.91595
3.95636
3.98594
4.00791
4.02423
4.03692
4.0473
4.05611
4.06366
4.07012
4.07549
4.07912
4.08129
4.08305
4.08475
4.08662
4.08669
4.08621
4.08467
4.08117
4.07406
4.06268
4.04751
4.02914
4.00719
3.98182
3.9532
3.92186
3.88826
3.85308
3.81679
3.78006
3.74324
3.7069
3.67126
3.63674
3.60345
3.57169
3.54146
3.5129
3.48589
3.46039
3.43606
3.4127
3.38995
3.36754
3.34501
3.32212
3.29862
3.27444
3.25028
3.22572
3.20766
6.06192
5.6917
5.33044
4.98433
4.66191
4.37046
4.11374
3.89347
3.70837
3.55529
3.4299
3.32717
3.24268
3.17261
3.11451
3.0682
3.03511
3.03523
3.04277
3.07029
3.1418
3.30331
3.64163
4.31663
4.80494
4.912
4.88585
4.79972
4.61083
4.35579
4.1286
3.93767
3.77875
3.64724
3.53971
3.45415
3.38913
3.34528
3.32118
3.32227
3.32752
3.34483
3.38253
3.44752
3.53414
3.62689
3.71485
3.79097
3.85235
3.89914
3.93391
3.95972
3.97963
3.99636
4.01091
4.0246
4.03756
4.04955
4.06036
4.06952
4.0772
4.08346
4.08837
4.09033
4.0899
4.08837
4.08465
4.07698
4.06389
4.04678
4.02545
4.00015
3.97128
3.9392
3.90458
3.86787
3.82979
3.79072
3.75133
3.71191
3.673
3.63479
3.59772
3.56186
3.52756
3.49482
3.46387
3.43464
3.40721
3.38137
3.35706
3.33412
3.31235
3.2913
3.27064
3.25003
3.2291
3.20855
3.187
3.17275
6.08552
5.73266
5.39056
5.0612
4.75067
4.46482
4.20851
3.98394
3.79126
3.6287
3.49355
3.38204
3.29039
3.21529
3.1556
3.11025
3.09519
3.10029
3.12137
3.17925
3.31455
3.60628
4.20764
4.92495
5.2186
5.21094
5.15894
5.02662
4.77032
4.5209
4.30182
4.11214
3.94751
3.80422
3.67987
3.57334
3.48419
3.41222
3.35832
3.32262
3.31086
3.31099
3.31691
3.33772
3.38282
3.45672
3.54362
3.63347
3.71606
3.78564
3.84068
3.88276
3.91515
3.94132
3.96379
3.98437
4.00398
4.02269
4.04041
4.05597
4.06968
4.08019
4.08834
4.09136
4.0908
4.08907
4.08475
4.0759
4.06058
4.04051
4.01605
3.98753
3.95558
3.92066
3.88347
3.84446
3.80427
3.76325
3.72196
3.68064
3.6398
3.59958
3.5604
3.52234
3.48574
3.45063
3.41729
3.38569
3.35599
3.32801
3.3022
3.27829
3.25622
3.23562
3.21618
3.19754
3.17911
3.16177
3.14299
3.13282
6.12235
5.77667
5.44806
5.13215
4.8321
4.55296
4.29857
4.07178
3.87337
3.70319
3.55935
3.43962
3.34102
3.26167
3.20132
3.16557
3.1676
3.18212
3.22723
3.33816
3.58347
4.09684
4.9325
5.42141
5.49785
5.46752
5.37334
5.17234
4.91422
4.67846
4.46992
4.28392
4.11627
3.9646
3.8278
3.70548
3.59754
3.50435
3.42663
3.36475
3.31992
3.29814
3.28675
3.28773
3.29733
3.32447
3.38076
3.4615
3.55058
3.63841
3.71682
3.78232
3.83508
3.87731
3.91198
3.94186
3.96904
3.99447
4.01836
4.04007
4.05904
4.07322
4.08428
4.08795
4.08717
4.08478
4.07915
4.06778
4.04994
4.02711
3.99992
3.96884
3.93457
3.89761
3.85864
3.81807
3.7765
3.73419
3.69165
3.64906
3.60687
3.56518
3.52439
3.48455
3.44603
3.40884
3.37331
3.33943
3.3074
3.27736
3.24972
3.22433
3.20122
3.18011
3.16077
3.14297
3.12599
3.11102
3.09441
3.08811
6.17827
5.82477
5.5035
5.19829
4.90772
4.63501
4.38357
4.15613
3.95408
3.77806
3.62699
3.50009
3.39542
3.31401
3.25482
3.24493
3.254
3.28841
3.37865
3.58335
4.01355
4.87662
5.54929
5.7451
5.72952
5.66679
5.5207
5.28053
5.04443
4.82876
4.63181
4.44985
4.28054
4.12293
3.97699
3.8429
3.72098
3.61163
3.51539
3.43283
3.36481
3.31323
3.27996
3.26398
3.25607
3.25988
3.27627
3.31349
3.38206
3.46849
3.56025
3.64884
3.72763
3.79381
3.8479
3.89247
3.93036
3.9637
3.9937
4.02033
4.04358
4.06118
4.07384
4.07732
4.0763
4.07333
4.06637
4.05237
4.03192
4.00658
3.97719
3.94426
3.90845
3.87021
3.83018
3.78873
3.74638
3.70336
3.66013
3.61681
3.5738
3.53115
3.48924
3.44808
3.40807
3.36918
3.3318
3.29585
3.26187
3.23004
3.20064
3.17357
3.14893
3.12657
3.10639
3.08836
3.07168
3.05804
3.04275
3.03963
6.23988
5.87786
5.55755
5.2601
4.97799
4.71194
4.46422
4.23746
4.03337
3.85299
3.69649
3.56379
3.4558
3.37379
3.33445
3.33968
3.36563
3.43986
3.61514
3.99211
4.76431
5.59312
5.94404
5.94546
5.91173
5.8144
5.61266
5.38296
5.16985
4.97228
4.78573
4.60763
4.4376
4.27597
4.12349
3.98077
3.84839
3.72693
3.61663
3.51839
3.4326
3.36031
3.30307
3.26154
3.24025
3.22541
3.22618
3.23531
3.26017
3.31143
3.39086
3.4866
3.58559
3.67779
3.758
3.82519
3.88045
3.92592
3.96392
3.99565
4.02186
4.04208
4.05548
4.05818
4.05704
4.05338
4.04523
4.0288
4.00624
3.97906
3.94813
3.91404
3.87737
3.83854
3.7981
3.75636
3.71379
3.67059
3.62714
3.58355
3.54016
3.497
3.4544
3.41238
3.3713
3.33115
3.29232
3.25501
3.21974
3.18648
3.1555
3.12673
3.10036
3.07635
3.05472
3.03567
3.01839
3.00509
2.99028
2.98932
6.35235
5.95387
5.61751
5.3214
5.0457
4.78543
4.54193
4.31647
4.11169
3.92816
3.76825
3.63195
3.52535
3.44788
3.4477
3.46363
3.52147
3.66864
3.99537
4.67531
5.59413
6.0778
6.14951
6.1248
6.04953
5.88988
5.68362
5.48276
5.29262
5.10963
4.93101
4.75629
4.58634
4.42219
4.26513
4.11612
3.97599
3.84537
3.72478
3.61466
3.51546
3.42787
3.35278
3.29143
3.24473
3.21601
3.20106
3.19814
3.20362
3.22084
3.25845
3.32683
3.42286
3.52707
3.63012
3.72406
3.80425
3.86957
3.92142
3.96164
3.99217
4.01418
4.02802
4.02939
4.02804
4.02383
4.01461
3.99627
3.9725
3.94442
3.91286
3.87836
3.84151
3.80269
3.7624
3.72091
3.67862
3.6357
3.59247
3.54901
3.50562
3.46232
3.41941
3.37691
3.33517
3.2943
3.25488
3.21697
3.18087
3.14652
3.11421
3.0839
3.05588
3.03018
3.00692
2.98651
2.96816
2.95448
2.93965
2.93968
6.39492
6.03216
5.68547
5.38475
5.11248
4.85669
4.6172
4.39382
4.18916
4.00502
3.8433
3.70866
3.60633
3.56861
3.58001
3.62662
3.75143
4.03542
4.63203
5.58586
6.17653
6.31859
6.30394
6.25009
6.12802
5.94234
5.75896
5.58372
5.41159
5.23959
5.06714
4.89534
4.72582
4.56027
4.40031
4.24701
4.10145
3.96422
3.8359
3.71688
3.6077
3.50875
3.42077
3.3445
3.28093
3.23168
3.19765
3.18225
3.17871
3.18287
3.19638
3.22673
3.28226
3.36946
3.47431
3.5836
3.68681
3.7768
3.85025
3.90649
3.94696
3.97395
3.98981
3.99056
3.98897
3.98423
3.97401
3.9547
3.93068
3.90278
3.87153
3.83742
3.80102
3.76277
3.72313
3.68235
3.64076
3.5985
3.55585
3.51286
3.46978
3.42664
3.38371
3.34113
3.29942
3.25873
3.21935
3.18123
3.14464
3.10954
3.07624
3.04476
3.01541
2.98831
2.96365
2.94198
2.92254
2.90823
2.89332
2.89348
6.37445
6.15282
5.77967
5.45852
5.18111
4.92734
4.6907
4.47009
4.26668
4.08363
3.92471
3.79805
3.72243
3.72771
3.76218
3.86671
4.1149
4.64186
5.59363
6.25833
6.46673
6.45941
6.42164
6.32911
6.16631
6.0006
5.84208
5.68551
5.52587
5.36181
5.19415
5.02499
4.85639
4.69043
4.52879
4.37273
4.22335
4.08135
3.94736
3.82188
3.70532
3.59813
3.50078
3.41388
3.33814
3.27454
3.22433
3.18846
3.17036
3.17076
3.17466
3.18581
3.21027
3.2592
3.33219
3.42957
3.53579
3.64051
3.73499
3.81275
3.87117
3.91072
3.93425
3.94002
3.93855
3.93394
3.9239
3.90522
3.88163
3.85439
3.82406
3.79102
3.75578
3.71872
3.68025
3.6406
3.60008
3.55881
3.51701
3.47474
3.4322
3.3895
3.34711
3.30529
3.26431
3.22416
3.18508
3.14703
3.11028
3.07483
3.04099
3.00883
2.97868
2.95072
2.92517
2.90268
2.88259
2.86784
2.85318
2.85341
6.31446
6.17894
5.88628
5.5454
5.25516
4.99919
4.7642
4.54616
4.34605
4.16718
4.02001
3.91072
3.90538
3.93005
4.0187
4.24048
4.71617
5.64153
6.34474
6.60647
6.60312
6.57508
6.5019
6.35864
6.21115
6.07022
5.93083
5.78679
5.63526
5.47658
5.31252
5.14569
4.9783
4.8126
4.65024
4.49259
4.34077
4.19555
4.05763
3.92756
3.80575
3.69272
3.58877
3.4945
3.41033
3.33699
3.2753
3.22616
3.19122
3.17062
3.17086
3.17467
3.18544
3.20751
3.24574
3.30604
3.38842
3.48333
3.58153
3.67305
3.75032
3.80925
3.84888
3.87025
3.8716
3.86945
3.86304
3.84924
3.82691
3.80031
3.77087
3.73913
3.70553
3.67025
3.6335
3.59544
3.55635
3.51635
3.47562
3.43425
3.39261
3.35107
3.30994
3.26926
3.22922
3.18983
3.15129
3.11363
3.07711
3.04177
3.00793
2.97568
2.94538
2.91723
2.89153
2.86891
2.84902
2.83435
2.82127
2.82161
6.21589
6.15213
5.9782
5.64125
5.33668
5.07413
4.83885
4.62399
4.42989
4.26426
4.13723
4.10377
4.12526
4.20706
4.41693
4.86975
5.75865
6.46108
6.74471
6.74241
6.71719
6.65179
6.51901
6.38873
6.26813
6.14873
6.02286
5.88674
5.7401
5.58476
5.42323
5.2583
5.09223
4.9272
4.76482
4.60647
4.4533
4.30607
4.16566
4.03253
3.90727
3.79031
3.68205
3.58292
3.49333
3.41377
3.34463
3.28654
3.24017
3.20638
3.18567
3.18126
3.18325
3.19092
3.20752
3.23528
3.27882
3.34366
3.42174
3.50542
3.588
3.66223
3.72175
3.76307
3.78536
3.78785
3.78584
3.7794
3.76524
3.74134
3.71309
3.6827
3.65081
3.61746
3.58269
3.54657
3.50927
3.47079
3.4314
3.3915
3.35154
3.31162
3.27194
3.23255
3.19361
3.15519
3.1175
3.08059
3.04473
3.01001
2.97673
2.94503
2.91527
2.88771
2.86272
2.84092
2.82237
2.80884
2.79907
2.7997
6.06303
6.06105
5.97473
5.76375
5.43894
5.15842
4.91837
4.70735
4.52703
4.38578
4.33338
4.35238
4.43131
4.63962
5.0915
5.96541
6.64285
6.90897
6.90453
6.87087
6.78856
6.65077
6.53136
6.4313
6.33568
6.23216
6.11501
5.98355
5.83969
5.68644
5.52675
5.36347
5.19877
5.03475
4.87284
4.71455
4.56085
4.41274
4.27096
4.1362
4.00897
3.8898
3.77908
3.67718
3.58444
3.5011
3.42734
3.36361
3.30971
3.26621
3.23264
3.21094
3.19674
3.1954
3.19738
3.20318
3.21677
3.24501
3.2895
3.34514
3.41276
3.48549
3.55502
3.61432
3.65838
3.6841
3.69223
3.69097
3.68589
3.67405
3.65037
3.62307
3.59287
3.56099
3.52789
3.49371
3.45835
3.42177
3.38446
3.34668
3.30865
3.27049
3.2324
3.19447
3.1569
3.11977
3.08329
3.04758
3.01287
2.9793
2.94717
2.9167
2.88825
2.86218
2.83894
2.81918
2.80333
2.79271
2.78773
2.78868
5.66417
5.96172
5.93131
5.80924
5.54865
5.25388
5.00731
4.80614
4.65107
4.58757
4.60652
4.68897
4.90841
5.38479
6.26082
6.9048
7.12533
7.11163
7.05335
6.92474
6.76822
6.65174
6.56513
6.4901
6.41005
6.31541
6.20319
6.07469
5.93296
5.78154
5.62362
5.46193
5.29872
5.13583
4.97487
4.81708
4.66368
4.5155
4.37351
4.23827
4.11049
3.99059
3.87907
3.77613
3.68212
3.59703
3.52098
3.45351
3.39457
3.34369
3.30051
3.26516
3.23672
3.21588
3.19941
3.19258
3.18809
3.18995
3.198
3.21748
3.25749
3.30983
3.37005
3.43349
3.49206
3.53938
3.57065
3.58731
3.58717
3.58448
3.57628
3.55869
3.53201
3.50178
3.46996
3.43735
3.40383
3.36967
3.33487
3.29947
3.26361
3.22744
3.19118
3.15499
3.11907
3.08356
3.04869
3.01458
2.9815
2.94963
2.9193
2.8908
2.86455
2.84105
2.82078
2.80463
2.79299
2.78727
2.78763
2.78975
4.75843
5.73663
5.84051
5.78952
5.64881
5.36618
5.11892
4.93509
4.86256
4.88403
4.97684
5.22145
5.74953
6.64448
7.24715
7.40402
7.37661
7.28323
7.08889
6.90306
6.7712
6.68374
6.61893
6.5566
6.48322
6.39253
6.28334
6.1576
6.01844
5.86946
5.71369
5.55395
5.39242
5.23102
5.07132
4.91463
4.76219
4.61486
4.47364
4.33911
4.21206
4.09283
3.98194
3.87946
3.78563
3.70013
3.62279
3.55293
3.49
3.43317
3.38183
3.33541
3.29371
3.25632
3.2238
3.19469
3.17602
3.15587
3.14145
3.14259
3.14876
3.16491
3.19873
3.24785
3.30334
3.3603
3.41065
3.44894
3.47239
3.48056
3.47945
3.47445
3.4626
3.43857
3.40983
3.37889
3.34703
3.31477
3.28221
3.2492
3.21577
3.18195
3.14793
3.11388
3.08001
3.04654
3.01368
2.98167
2.95076
2.92123
2.89346
2.86783
2.8449
2.82523
2.80951
2.79893
2.79307
2.7933
2.79517
2.80136
3.09947
5.19513
5.71917
5.72467
5.66575
5.51543
5.27836
5.16451
5.18819
5.29542
5.57855
6.18511
7.11368
7.67275
7.74836
7.70198
7.56564
7.29375
7.07046
6.91261
6.80914
6.74064
6.68406
6.62343
6.55014
6.46033
6.35339
6.23087
6.09528
5.94968
5.79693
5.63976
5.48046
5.32099
5.16309
5.0081
4.85732
4.7117
4.57222
4.43955
4.3144
4.19709
4.08804
3.98716
3.89447
3.80937
3.73136
3.65936
3.59259
3.52998
3.47084
3.41442
3.36063
3.30928
3.26091
3.21585
3.17509
3.14261
3.10993
3.08373
3.06971
3.07069
3.07652
3.092
3.12451
3.17217
3.22521
3.27701
3.32099
3.35157
3.36985
3.37093
3.36881
3.36168
3.346
3.31895
3.28917
3.25833
3.22728
3.1962
3.16508
3.13384
3.10244
3.07101
3.03969
3.00876
2.97845
2.94911
2.92103
2.89463
2.87036
2.84873
2.83055
2.81624
2.80752
2.80278
2.8034
2.80661
2.81505
2.83445
2.24676
3.9753
5.38375
5.65552