/*--------------------------------*- C++ -*----------------------------------*\
  =========                 |
  \\      /  F ield         | OpenFOAM: The Open Source CFD Toolbox
   \\    /   O peration     | Website:  https://openfoam.org
    \\  /    A nd           | Version:  10
     \\/     M anipulation  |
\*---------------------------------------------------------------------------*/
FoamFile
{
    format      ascii;
    class       surfaceScalarField;
    location    "5.5";
    object      phi;
}
// * * * * * * * * * * * * * * * * * * * * * * * * * * * * * * * * * * * * * //

dimensions      [1 0 -1 0 0 0 0];

internalField   nonuniform List<scalar> 
10325
(
0.00840003
7.91388e-11
0.00840004
4.8771e-10
0.00839998
2.168e-09
0.00840015
4.6474e-09
0.00839975
1.52515e-08
0.00840058
3.75067e-08
0.00839867
7.7833e-08
0.00840171
2.91449e-07
0.0083947
3.72686e-07
0.00840453
1.85884e-06
0.00838261
2.68239e-06
0.00839683
1.06561e-05
0.00834522
2.93084e-05
0.00824022
0.000113305
0.00765608
0.000573678
0.0069924
0.000664414
0.00636322
0.000629455
0.00571348
0.000649133
0.00503229
0.000680472
0.00431099
0.000720389
0.0035409
0.000769268
0.00272217
0.000817923
0.00185985
0.000861452
0.0009538
0.000905332
0.000953095
0.00840003
1.62214e-10
0.00840001
1.15217e-09
0.00840009
3.61806e-09
0.00839989
1.12382e-08
0.00840033
2.71059e-08
0.00839932
7.19684e-08
0.00840142
1.64645e-07
0.00839653
4.47296e-07
0.00840517
1.02397e-06
0.00838728
2.75281e-06
0.00840917
6.93027e-06
0.00836597
1.97079e-05
0.00836264
6.17648e-05
0.00823268
0.000225951
0.00766595
0.0011349
0.00698797
0.00134407
0.00636664
0.00125102
0.00572621
0.00128891
0.00504943
0.00135653
0.00432066
0.00144823
0.00354155
0.00154755
0.00271445
0.00164421
0.00184062
0.00173441
0.000928052
0.00181717
0.00188044
0.00840003
2.02361e-10
0.00840002
1.71931e-09
0.00840008
4.49116e-09
0.00839991
1.71921e-08
0.00840028
3.40648e-08
0.00839944
1.1117e-07
0.0084009
2.3599e-07
0.00839772
6.46189e-07
0.00840224
1.57555e-06
0.00839161
3.93583e-06
0.00840374
1.0424e-05
0.00837214
2.89166e-05
0.00836236
9.08282e-05
0.00824673
0.000329584
0.00773958
0.00163548
0.00705056
0.00203464
0.00642741
0.00187438
0.00579179
0.00192388
0.00511934
0.00202822
0.00438905
0.00217762
0.00360328
0.00233242
0.00276608
0.00248062
0.00187658
0.00262296
0.000944686
0.00274832
0.00282442
0.00840003
4.45617e-10
0.00840004
1.52172e-09
0.00839999
8.29774e-09
0.00840011
1.45686e-08
0.00839976
6.11256e-08
0.00840065
9.79449e-08
0.00839813
3.91781e-07
0.00840416
6.26435e-07
0.00839
2.38103e-06
0.00841533
4.33722e-06
0.00837247
1.42779e-05
0.00840959
3.51963e-05
0.00834745
0.000115631
0.00828405
0.000410196
0.00789198
0.00201461
0.00719634
0.00273127
0.00656064
0.00251028
0.00592328
0.0025606
0.00525287
0.00269779
0.00452206
0.00290744
0.00373096
0.00312283
0.00287949
0.00333107
0.00196684
0.00353469
0.000996466
0.00371786
0.00382004
0.00840003
3.22645e-10
0.00840003
2.40424e-09
0.00840001
7.22876e-09
0.00840004
2.37072e-08
0.0084
5.36719e-08
0.00839989
1.57524e-07
0.00840021
3.41063e-07
0.00839856
9.6263e-07
0.00840136
2.18685e-06
0.00839526
5.90559e-06
0.00839925
1.47331e-05
0.00839169
4.17062e-05
0.00837749
0.000127594
0.00833019
0.000455747
0.00815641
0.00218043
0.00745548
0.00343287
0.00678469
0.00318157
0.00613407
0.00321059
0.00546029
0.00337081
0.00472788
0.00363882
0.00392829
0.00392131
0.00305913
0.00419922
0.00210965
0.00448333
0.00108125
0.00474525
0.00490032
0.00840003
3.84619e-10
0.00840004
2.02512e-09
0.00839999
8.18577e-09
0.00840014
1.99431e-08
0.0083998
6.10947e-08
0.00840061
1.34864e-07
0.00839886
3.83715e-07
0.00840238
8.68451e-07
0.00839525
2.32523e-06
0.00840811
5.66549e-06
0.00838678
1.49312e-05
0.00841631
4.05937e-05
0.00839181
0.000123983
0.00842807
0.000432369
0.00862513
0.00197272
0.00790954
0.00414837
0.00714309
0.00394839
0.0064573
0.00389577
0.00576719
0.0040601
0.00502974
0.00437517
0.00421533
0.00473457
0.00331807
0.00509583
0.00232297
0.00547702
0.00121236
0.00585463
0.00611184
0.00840003
2.24832e-10
0.00840003
2.49626e-09
0.00840003
5.88044e-09
0.00840003
2.39517e-08
0.00840005
4.43874e-08
0.00839987
1.54152e-07
0.00840047
2.86508e-07
0.00839852
9.3612e-07
0.0084034
1.83206e-06
0.00839454
5.57228e-06
0.00841033
1.23863e-05
0.00840134
3.5945e-05
0.00843255
0.000102162
0.00851013
0.000347367
0.00898079
0.00150075
0.00839861
0.00472688
0.00753753
0.00480857
0.00683251
0.00459977
0.00614937
0.00474229
0.00541274
0.00511047
0.00458954
0.00555668
0.00366729
0.00601672
0.00262265
0.00652002
0.00141327
0.00706283
0.00752405
0.00840003
4.02517e-10
0.00840004
1.61959e-09
0.00839999
7.97485e-09
0.00840012
1.59052e-08
0.00839979
5.74801e-08
0.00840069
1.12079e-07
0.00839853
3.47332e-07
0.00840408
7.25153e-07
0.00839205
2.04019e-06
0.00841783
4.67513e-06
0.00837561
1.24267e-05
0.00843358
3.21384e-05
0.00839039
9.48525e-05
0.008452
0.000312477
0.00861962
0.00132164
0.00833283
0.00500978
0.00764655
0.0054927
0.00709028
0.00515487
0.00647092
0.00536052
0.00579326
0.00578655
0.00500522
0.00634328
0.00409506
0.00692527
0.00302774
0.00758603
0.00172505
0.00836434
0.00924764
0.00840003
2.50238e-10
0.00840002
2.21846e-09
0.00840007
5.84157e-09
0.00839994
2.16658e-08
0.00840028
4.49403e-08
0.00839945
1.38122e-07
0.00840154
2.94584e-07
0.00839689
8.17402e-07
0.00840794
1.88264e-06
0.0083858
4.8451e-06
0.00842311
1.21832e-05
0.00837453
3.20152e-05
0.00842124
9.26056e-05
0.0084046
0.000303237
0.008504
0.00122644
0.00819318
0.00531362
0.00791458
0.00576994
0.00732512
0.00574319
0.00672155
0.00596274
0.0061376
0.00636919
0.00544315
0.00703623
0.0046133
0.00775362
0.00362046
0.0085769
0.00224159
0.00974105
0.0114872
0.00840003
3.31521e-10
0.00840004
1.94495e-09
0.00839999
7.16161e-09
0.00840013
1.90676e-08
0.00839982
5.22775e-08
0.00840057
1.30043e-07
0.00839889
3.14617e-07
0.00840285
8.36378e-07
0.00839417
1.8629e-06
0.00841144
5.23181e-06
0.00838156
1.18545e-05
0.00842138
3.35493e-05
0.00837598
9.21891e-05
0.00841144
0.000302325
0.0084513
0.00116639
0.00829707
0.00546564
0.00788729
0.00617897
0.00746107
0.00616845
0.00700826
0.00641409
0.00650004
0.00687592
0.00594953
0.00758479
0.0053089
0.00839214
0.00441779
0.00946583
0.00311061
0.0110456
0.0145956
0.00840003
3.7116e-10
0.00840002
1.91755e-09
0.00840005
7.59606e-09
0.00839998
1.8595e-08
0.00840011
5.6393e-08
0.00839987
1.21801e-07
0.00840011
3.63185e-07
0.0083999
7.44524e-07
0.00839917
2.24808e-06
0.00840014
4.6522e-06
0.00839856
1.36997e-05
0.00839609
3.23008e-05
0.0084003
9.62843e-05
0.00839542
0.000299734
0.00843681
0.00112505
0.00848073
0.00541421
0.00805861
0.00659995
0.00763768
0.00658852
0.00729531
0.00675491
0.0069171
0.00725217
0.00655209
0.00794763
0.00611559
0.00882637
0.00569391
0.00988471
0.00564363
0.0110931
0.0115035
0.00872974
0.00840003
2.65961e-10
0.00840003
2.23648e-09
0.00840003
6.26153e-09
0.00840001
2.19104e-08
0.00840009
4.7479e-08
0.00839979
1.45792e-07
0.00840067
3.01222e-07
0.00839821
9.01884e-07
0.00840451
1.87348e-06
0.00839026
5.52397e-06
0.00841776
1.22174e-05
0.00837588
3.49415e-05
0.00842342
9.21647e-05
0.00839069
0.00029463
0.00847632
0.00105839
0.00887791
0.00499975
0.00842063
0.00705629
0.0079525
0.00705538
0.00760578
0.00710008
0.00731777
0.00753878
0.00705704
0.00820647
0.00685313
0.00902772
0.00679843
0.00993611
0.0072148
0.0106704
0.010522
0.00818822
0.00840003
3.08644e-10
0.00840003
1.90428e-09
0.00840003
6.62218e-09
0.00840003
1.85608e-08
0.00840003
4.9109e-08
0.00840006
1.23071e-07
0.00839984
3.13071e-07
0.00840069
7.66184e-07
0.00839812
1.95129e-06
0.00840459
4.77483e-06
0.00839321
1.22514e-05
0.00841329
3.12924e-05
0.0084026
8.60825e-05
0.00844815
0.000260883
0.00858323
0.000914356
0.00960326
0.00397381
0.00903242
0.00762562
0.00844076
0.0076459
0.00805334
0.00748666
0.00778473
0.00780457
0.00760098
0.00838765
0.00756031
0.0090652
0.00776527
0.00972722
0.00826513
0.0101661
0.00992481
0.00885145
0.00840003
2.82097e-10
0.00840003
1.48428e-09
0.00840003
5.93431e-09
0.00840004
1.45364e-08
0.00840001
4.37575e-08
0.00840015
9.74125e-08
0.00839977
2.72129e-07
0.00840113
6.04615e-07
0.00839814
1.62992e-06
0.00840773
3.73252e-06
0.00839146
9.86149e-06
0.00843007
2.39157e-05
0.00841332
6.48088e-05
0.00852198
0.000184987
0.00880303
0.000611677
0.0102941
0.0024856
0.009756
0.00815837
0.00926461
0.00813478
0.00866268
0.00808684
0.00833889
0.0081274
0.00820132
0.00852104
0.00823062
0.0090329
0.00847558
0.00947667
0.00890864
0.00972812
0.0094621
0.00936203
0.00840003
2.15631e-10
0.00840003
1.39185e-09
0.00840005
4.59821e-09
0.0084
1.36142e-08
0.00840014
3.41147e-08
0.00839985
8.86368e-08
0.0084006
2.18982e-07
0.00839913
5.28392e-07
0.00840312
1.36894e-06
0.00839557
3.13142e-06
0.00841318
8.44431e-06
0.00838997
1.96166e-05
0.00843875
5.40083e-05
0.00843209
0.00014834
0.00859532
0.000480484
0.00920193
0.00185923
0.0098924
0.0074645
0.00955823
0.00846662
0.0091178
0.0085248
0.00883881
0.00840508
0.0087388
0.00861735
0.00878858
0.00898142
0.00900386
0.0092551
0.00937335
0.00935138
0.00908735
0.00973951
0.00840003
1.8803e-10
0.00840003
1.17444e-09
0.00840002
4.14551e-09
0.00840006
1.15043e-08
0.00839999
3.05281e-08
0.00840015
7.72211e-08
0.0083999
1.87884e-07
0.00840031
4.87358e-07
0.00840012
1.12326e-06
0.00839992
3.03298e-06
0.0084021
6.82025e-06
0.00840239
1.8846e-05
0.00840834
4.54572e-05
0.00843269
0.000131378
0.00850156
0.00040387
0.00887535
0.00148509
0.00985714
0.00647385
0.00972354
0.008598
0.00949561
0.00875017
0.00925363
0.00864583
0.00917799
0.0086894
0.00924626
0.00890958
0.0094253
0.00907029
0.00971602
0.00905449
0.00877818
0.0100164
0.00840003
1.51408e-10
0.00840003
1.09044e-09
0.00840004
3.35766e-09
0.00840001
1.0572e-08
0.00840009
2.53876e-08
0.00839993
6.89652e-08
0.00840035
1.63367e-07
0.0083996
4.19452e-07
0.00840146
1.01661e-06
0.00839833
2.53326e-06
0.00840547
6.36509e-06
0.00839586
1.57739e-05
0.00842118
4.1344e-05
0.00840952
0.00011159
0.00850358
0.000340015
0.00878031
0.00118922
0.0103209
0.00492771
0.0101719
0.00874429
0.00991936
0.00900041
0.00964968
0.00891315
0.00956903
0.00876754
0.009629
0.00884717
0.00977458
0.00891666
0.00999172
0.00883299
0.00854073
0.0102214
0.00840003
1.40364e-10
0.00840003
7.67956e-10
0.00840003
2.97398e-09
0.00840004
7.53583e-09
0.00840001
2.17571e-08
0.00840012
5.04356e-08
0.00839988
1.34244e-07
0.00840073
3.14225e-07
0.00839903
8.01413e-07
0.00840456
1.93016e-06
0.00839521
4.77707e-06
0.0084221
1.18918e-05
0.00839463
2.96617e-05
0.00847854
7.81376e-05
0.00854695
0.000223407
0.00903767
0.000724136
0.0111292
0.00282301
0.0108887
0.00898063
0.0106331
0.00925306
0.0102552
0.00928822
0.0100266
0.00899361
0.0100036
0.00886842
0.010093
0.00881986
0.0102394
0.00868046
0.0083751
0.0103987
0.00840003
1.0559e-10
0.00840003
6.43608e-10
0.00840004
2.24301e-09
0.00840002
6.27449e-09
0.00840007
1.66276e-08
0.00839998
4.0956e-08
0.00840024
1.05464e-07
0.00839982
2.46963e-07
0.00840104
6.42368e-07
0.00839931
1.47878e-06
0.00840416
3.89908e-06
0.00839938
8.96808e-06
0.00841817
2.38947e-05
0.00841635
5.88555e-05
0.00849817
0.000167814
0.00867792
0.000521022
0.00954715
0.00196151
0.0109638
0.0075493
0.0108854
0.0093278
0.0106678
0.00950212
0.0104204
0.00923773
0.010343
0.00894345
0.0103817
0.00877567
0.0104713
0.00858456
0.00827115
0.0105689
0.00840003
7.54544e-11
0.00840003
5.45379e-10
0.00840003
1.70805e-09
0.00840003
5.31062e-09
0.00840004
1.26868e-08
0.00840003
3.5161e-08
0.00840012
7.90669e-08
0.00839989
2.17014e-07
0.00840082
4.80967e-07
0.00839882
1.30799e-06
0.00840533
2.94715e-06
0.0083936
7.93963e-06
0.00842485
1.85784e-05
0.00839136
5.0289e-05
0.0084772
0.000132291
0.00854284
0.000407914
0.0090933
0.00143512
0.0109761
0.00564836
0.0111061
0.00919475
0.0110147
0.00959066
0.0107784
0.00946985
0.0106552
0.0090643
0.0106428
0.00878357
0.0106875
0.00853455
0.00821279
0.0107389
0.00840003
6.76835e-11
0.00840003
3.79365e-10
0.00840003
1.41956e-09
0.00840003
3.70714e-09
0.00840004
1.05176e-08
0.00840004
2.42935e-08
0.00840004
6.61744e-08
0.00840019
1.47577e-07
0.00839991
4.0053e-07
0.0084014
8.92406e-07
0.00839885
2.39158e-06
0.00840925
5.42986e-06
0.0083964
1.44492e-05
0.00844003
3.43958e-05
0.00844468
9.35911e-05
0.00861922
0.000262202
0.0091723
0.000860309
0.0115856
0.00322718
0.0116567
0.00911971
0.0115598
0.00968596
0.0113081
0.00971934
0.0110365
0.00933303
0.0109279
0.00888855
0.0109127
0.0085453
0.00819871
0.0109198
0.00840003
4.37442e-11
0.00840003
3.0991e-10
0.00840003
9.78632e-10
0.00840003
3.02274e-09
0.00840004
7.27042e-09
0.00840003
1.97534e-08
0.00840009
4.57058e-08
0.00839997
1.19165e-07
0.00840052
2.78324e-07
0.00839949
7.06724e-07
0.00840339
1.6944e-06
0.00839708
4.18357e-06
0.00841842
1.03664e-05
0.00839455
2.55898e-05
0.00847008
6.61546e-05
0.00849529
0.000181269
0.00883921
0.000561799
0.00997764
0.00205722
0.0117231
0.00737116
0.0117998
0.00960659
0.0116361
0.00988039
0.0113596
0.00960605
0.0112281
0.0090171
0.0111517
0.00861699
0.00822895
0.0111158
0.00840003
3.5488e-11
0.00840003
2.21172e-10
0.00840003
7.70553e-10
0.00840004
2.16035e-09
0.00840002
5.70134e-09
0.00840006
1.42796e-08
0.0084
3.55981e-08
0.00840018
8.78696e-08
0.00839995
2.14655e-07
0.00840067
5.31454e-07
0.00840016
1.28935e-06
0.008402
3.22319e-06
0.00840308
7.82398e-06
0.00841094
1.98218e-05
0.00842112
4.98108e-05
0.00848014
0.000134199
0.00863057
0.000396252
0.00931771
0.0013751
0.0116913
0.00498227
0.0119613
0.00933218
0.012025
0.00981371
0.0118571
0.00977074
0.0115403
0.00933012
0.0114101
0.00874355
0.00830313
0.0113296
0.00840003
2.66308e-11
0.00840003
1.53349e-10
0.00840003
5.68579e-10
0.00840003
1.50619e-09
0.00840003
4.1803e-09
0.00840005
1.0004e-08
0.00840002
2.58534e-08
0.00840014
6.12459e-08
0.00840001
1.54041e-07
0.00840051
3.69044e-07
0.00840037
9.09825e-07
0.00840164
2.22921e-06
0.00840388
5.39034e-06
0.00840951
1.35223e-05
0.00842498
3.32635e-05
0.0084781
8.67793e-05
0.00862253
0.000240563
0.00924196
0.000760592
0.0115038
0.00271357
0.012417
0.00840847
0.0123892
0.00983732
0.0121921
0.00996394
0.0118527
0.00966626
0.011694
0.00889865
0.00843029
0.0115609
0.00840003
1.70569e-11
0.00840003
1.19035e-10
0.00840003
3.82516e-10
0.00840003
1.15474e-09
0.00840003
2.84143e-09
0.00840004
7.53781e-09
0.00840004
1.77382e-08
0.00840005
4.56767e-08
0.00840014
1.07271e-07
0.00840002
2.72381e-07
0.00840093
6.4533e-07
0.00839964
1.61336e-06
0.00840605
3.89802e-06
0.00839838
9.68036e-06
0.00843024
2.39574e-05
0.00842059
6.09221e-05
0.00853861
0.000163499
0.0087655
0.000493623
0.00975818
0.0017381
0.0121859
0.00596199
0.0124992
0.0095188
0.0125529
0.00990532
0.0123885
0.00982655
0.0120143
0.00927014
0.00863032
0.011809
0.00840003
1.24212e-11
0.00840003
7.90993e-11
0.00840003
2.72872e-10
0.00840003
7.728e-10
0.00840003
2.01358e-09
0.00840004
5.0725e-09
0.00840002
1.24621e-08
0.00840009
3.09157e-08
0.00840002
7.42284e-08
0.00840031
1.84787e-07
0.00840016
4.39394e-07
0.00840107
1.10111e-06
0.0084019
2.60638e-06
0.00840468
6.55944e-06
0.00841312
1.57686e-05
0.00843427
4.01709e-05
0.00848934
0.000102709
0.00869812
0.000290978
0.00949592
0.000931932
0.0122204
0.0032226
0.0128961
0.00883477
0.0129223
0.00987487
0.0127069
0.010038
0.0123578
0.00961628
0.00887885
0.0121053
0.00840003
8.8994e-12
0.00840003
5.30134e-11
0.00840003
1.92746e-10
0.00840003
5.17592e-10
0.00840003
1.41812e-09
0.00840004
3.42301e-09
0.00840003
8.71511e-09
0.00840007
2.09461e-08
0.00840001
5.14791e-08
0.00840028
1.26244e-07
0.00839996
3.02206e-07
0.00840133
7.56664e-07
0.0084
1.7759e-06
0.00840623
4.54158e-06
0.00840303
1.05944e-05
0.00842986
2.75601e-05
0.0084417
6.72264e-05
0.00857753
0.000185311
0.00892511
0.0005532
0.0102228
0.00193636
0.0126887
0.0063491
0.0129636
0.00959499
0.0131094
0.00988781
0.0128402
0.0098823
0.00924176
0.0124742
0.00840003
5.70186e-12
0.00840003
3.703e-11
0.00840003
1.24574e-10
0.00840003
3.61124e-10
0.00840003
9.2064e-10
0.00840003
2.35539e-09
0.00840004
5.7365e-09
0.00840004
1.41576e-08
0.00840006
3.454e-08
0.0084001
8.34643e-08
0.00840012
2.05903e-07
0.00840067
4.92034e-07
0.00840014
1.22375e-06
0.00840482
2.91081e-06
0.00840006
7.29685e-06
0.00842784
1.75369e-05
0.00841787
4.48107e-05
0.0085322
0.000114313
0.00871267
0.000325476
0.00962162
0.00105295
0.0124176
0.00352655
0.0132435
0.00876184
0.0133351
0.00979252
0.0131732
0.0100409
0.00961264
0.0128003
0.00840003
4.06653e-12
0.00840003
2.38452e-11
0.00840003
8.70984e-11
0.00840003
2.33136e-10
0.00840003
6.3657e-10
0.00840003
1.5296e-09
0.00840003
3.93233e-09
0.00840004
9.26416e-09
0.00840003
2.33955e-08
0.00840012
5.51887e-08
0.00840002
1.3743e-07
0.00840067
3.28713e-07
0.00839981
8.06909e-07
0.00840399
1.95121e-06
0.0083992
4.76508e-06
0.00842165
1.17115e-05
0.00840534
2.87484e-05
0.00849707
7.33236e-05
0.00856033
0.000195627
0.00908368
0.000589989
0.0105556
0.00201015
0.0130334
0.00627854
0.0133063
0.00951478
0.013533
0.00981066
0.00983358
0.013309
0.00840003
2.54038e-12
0.00840003
1.61147e-11
0.00840003
5.49339e-11
0.00840003
1.56702e-10
0.00840003
4.06955e-10
0.00840003
1.01387e-09
0.00840003
2.54156e-09
0.00840003
6.0494e-09
0.00840005
1.52375e-08
0.00840005
3.55121e-08
0.00840011
9.04648e-08
0.00840026
2.08059e-07
0.00840027
5.33229e-07
0.00840185
1.22677e-06
0.00840075
3.13391e-06
0.00841223
7.29018e-06
0.00840593
1.8607e-05
0.00846318
4.49809e-05
0.00849986
0.00011829
0.00880221
0.000327469
0.00971975
0.00105933
0.012575
0.0034114
0.0135727
0.00851069
0.0136331
0.00974676
0.00986862
0.0135945
0.00840003
1.60992e-12
0.00840003
1.03905e-11
0.00840003
3.55484e-11
0.00840003
1.01638e-10
0.00840003
2.61017e-10
0.00840003
6.65899e-10
0.00840003
1.59658e-09
0.00840003
4.03046e-09
0.00840004
9.44018e-09
0.00840003
2.39013e-08
0.00840014
5.53921e-08
0.00840001
1.40861e-07
0.00840072
3.2635e-07
0.00839993
8.27071e-07
0.00840399
1.93129e-06
0.00840012
4.86011e-06
0.00842104
1.15812e-05
0.00840945
2.91019e-05
0.00850007
7.24518e-05
0.00856947
0.000194107
0.00911395
0.000576494
0.0105489
0.00192677
0.0132389
0.00581771
0.0136757
0.00930478
0.00969682
0.0138435
0.00840003
1.02602e-12
0.00840003
6.54589e-12
0.00840003
2.2432e-11
0.00840003
6.3831e-11
0.00840003
1.64978e-10
0.00840003
4.14921e-10
0.00840003
1.01775e-09
0.00840003
2.47793e-09
0.00840004
6.0278e-09
0.00840004
1.45316e-08
0.00840008
3.54505e-08
0.00840011
8.4765e-08
0.00840021
2.07465e-07
0.00840067
4.94931e-07
0.00840074
1.21264e-06
0.00840463
2.89512e-06
0.00840351
7.11469e-06
0.00842805
1.71508e-05
0.00843356
4.28796e-05
0.00855101
0.000108522
0.0087915
0.000300398
0.00979415
0.000939351
0.0126469
0.00294208
0.0138914
0.00805034
0.00964597
0.0139382
0.00840003
6.45793e-13
0.00840003
4.15277e-12
0.00840003
1.39914e-11
0.00840003
4.0416e-11
0.00840003
1.02945e-10
0.00840003
2.60627e-10
0.00840003
6.39323e-10
0.00840003
1.54733e-09
0.00840004
3.81299e-09
0.00840003
9.01313e-09
0.00840006
2.24718e-08
0.00840007
5.24421e-08
0.00840015
1.31909e-07
0.0084004
3.05334e-07
0.00840047
7.72319e-07
0.00840271
1.78882e-06
0.00840176
4.51649e-06
0.00841766
1.05995e-05
0.00841222
2.68297e-05
0.00849159
6.56738e-05
0.00856733
0.000174716
0.00904902
0.000505615
0.0102789
0.00167432
0.0132911
0.00502559
0.00892891
0.0140014
0.00840003
3.82264e-13
0.00840003
2.56598e-12
0.00840003
8.52291e-12
0.00840003
2.50552e-11
0.00840003
6.24883e-11
0.00840003
1.62672e-10
0.00840003
3.82376e-10
0.00840003
9.70899e-10
0.00840003
2.25752e-09
0.00840003
5.66543e-09
0.00840006
1.32335e-08
0.00840004
3.27657e-08
0.00840019
7.76927e-08
0.00840006
1.88924e-07
0.00840099
4.55435e-07
0.00840033
1.09035e-06
0.00840533
2.66954e-06
0.00840276
6.32904e-06
0.00842754
1.57623e-05
0.00842974
3.78123e-05
0.00854572
9.75507e-05
0.00874378
0.000259827
0.0096502
0.000796025
0.0121766
0.0024844
0.00707922
0.0140124
0.00840003
2.52583e-13
0.00840003
1.49113e-12
0.00840003
5.44811e-12
0.00840003
1.45769e-11
0.00840003
3.97894e-11
0.00840003
9.5335e-11
0.00840003
2.41546e-10
0.00840003
5.73319e-10
0.00840003
1.40794e-09
0.00840004
3.39193e-09
0.00840003
8.11439e-09
0.00840006
1.99525e-08
0.00840007
4.6711e-08
0.00840015
1.17105e-07
0.00840039
2.6922e-07
0.00840045
6.84061e-07
0.00840261
1.56369e-06
0.00840169
3.98626e-06
0.00841664
9.17071e-06
0.00841169
2.34941e-05
0.00848767
5.60927e-05
0.0085476
0.000148872
0.00898127
0.000414864
0.0100814
0.00134138
0.00401507
0.013132
0.00840003
1.42923e-13
0.00840003
9.47315e-13
0.00840003
3.12932e-12
0.00840003
9.21888e-12
0.00840003
2.29986e-11
0.00840003
5.92669e-11
0.00840003
1.42268e-10
0.00840003
3.49598e-10
0.00840003
8.45245e-10
0.00840003
2.0199e-09
0.00840004
4.97313e-09
0.00840004
1.16266e-08
0.00840006
2.91313e-08
0.00840012
6.70191e-08
0.00840016
1.69751e-07
0.00840065
3.88772e-07
0.00840055
9.86026e-07
0.00840417
2.26394e-06
0.00840244
5.738e-06
0.00842512
1.3362e-05
0.0084213
3.39526e-05
0.00852742
8.28309e-05
0.00867209
0.000222721
0.00938952
0.000653987
0.00206344
0.0113186
0.00840003
8.69973e-14
0.00840003
5.46373e-13
0.00840003
1.90545e-12
0.00840003
5.33247e-12
0.00840003
1.39252e-11
0.00840003
3.47308e-11
0.00840003
8.43326e-11
0.00840003
2.07681e-10
0.00840003
4.90365e-10
0.00840003
1.21633e-09
0.00840003
2.82855e-09
0.00840004
7.06238e-09
0.00840005
1.63073e-08
0.00840006
4.083e-08
0.0084002
9.43556e-08
0.00840015
2.34637e-07
0.00840118
5.47687e-07
0.00840049
1.34554e-06
0.00840715
3.186e-06
0.0084033
7.75048e-06
0.0084397
1.87381e-05
0.00843586
4.59439e-05
0.00860248
0.000116556
0.00886765
0.000317199
0.000975003
0.0099952
0.00840003
5.3248e-14
0.00840003
3.1509e-13
0.00840003
1.14375e-12
0.00840003
3.06879e-12
0.00840003
8.33454e-12
0.00840003
1.9843e-11
0.00840003
5.09379e-11
0.00840003
1.17641e-10
0.00840003
2.97447e-10
0.00840003
6.85348e-10
0.00840003
1.71243e-09
0.00840004
3.99097e-09
0.00840003
9.80468e-09
0.00840008
2.3214e-08
0.00840006
5.61038e-08
0.00840029
1.35165e-07
0.00840026
3.20103e-07
0.0084012
7.87714e-07
0.00840206
1.83119e-06
0.00840502
4.58676e-06
0.00841434
1.05849e-05
0.00842856
2.69928e-05
0.00848711
6.41743e-05
0.00862557
0.000170813
0.000478467
0.00912693
0.00840003
2.81945e-14
0.00840003
1.92672e-13
0.00840003
6.2701e-13
0.00840003
1.87644e-12
0.00840003
4.59539e-12
0.00840003
1.20396e-11
0.00840003
2.80636e-11
0.00840003
7.09078e-11
0.00840003
1.6512e-10
0.00840003
4.07519e-10
0.00840003
9.61988e-10
0.00840003
2.32874e-09
0.00840004
5.60085e-09
0.00840004
1.32674e-08
0.00840008
3.24973e-08
0.00840011
7.58015e-08
0.00840027
1.88205e-07
0.00840064
4.33441e-07
0.00840104
1.08648e-06
0.00840427
2.49663e-06
0.00840479
6.27241e-06
0.00842627
1.45439e-05
0.00843465
3.68942e-05
0.00854362
8.93457e-05
0.000240573
0.00874861
0.00840003
1.7548e-14
0.00840003
1.03323e-13
0.00840003
3.77712e-13
0.00840003
1.00543e-12
0.00840003
2.74792e-12
0.00840003
6.52413e-12
0.00840003
1.65685e-11
0.00840003
3.87887e-11
0.00840003
9.54352e-11
0.00840003
2.26583e-10
0.00840003
5.43248e-10
0.00840003
1.31383e-09
0.00840003
3.08117e-09
0.00840004
7.60578e-09
0.00840006
1.7495e-08
0.00840007
4.37052e-08
0.00840021
9.98223e-08
0.00840021
2.50081e-07
0.00840126
5.71273e-07
0.00840084
1.42399e-06
0.00840769
3.28715e-06
0.00840487
8.13869e-06
0.00844373
1.91142e-05
0.00844355
4.7758e-05
0.000118449
0.00863009
0.00840003
8.93415e-15
0.00840003
6.10653e-14
0.00840003
1.98498e-13
0.00840003
5.93588e-13
0.00840003
1.45495e-12
0.00840003
3.78579e-12
0.00840003
8.85844e-12
0.00840003
2.20913e-11
0.00840003
5.1824e-11
0.00840003
1.25918e-10
0.00840003
2.99521e-10
0.00840003
7.12138e-10
0.00840003
1.72901e-09
0.00840004
4.02462e-09
0.00840004
9.92215e-09
0.00840007
2.2781e-08
0.00840008
5.68133e-08
0.00840031
1.29384e-07
0.00840023
3.23242e-07
0.00840181
7.38496e-07
0.00840099
1.83647e-06
0.0084104
4.23165e-06
0.00840668
1.04795e-05
0.00845583
2.47182e-05
6.19538e-05
0.00846331
0.00840003
5.11752e-15
0.00840003
3.1374e-14
0.00840003
1.10865e-13
0.00840003
3.05436e-13
0.00840003
8.0333e-13
0.00840003
1.96442e-12
0.00840003
4.81866e-12
0.00840003
1.152e-11
0.00840003
2.76659e-11
0.00840003
6.57891e-11
0.00840003
1.56869e-10
0.00840003
3.74149e-10
0.00840003
8.8418e-10
0.00840003
2.1137e-09
0.00840004
4.98303e-09
0.00840005
1.1938e-08
0.00840007
2.79895e-08
0.00840013
6.71316e-08
0.00840034
1.57352e-07
0.00840048
3.76785e-07
0.00840203
8.8207e-07
0.00840224
2.11341e-06
0.0084127
4.95857e-06
0.00841302
1.19382e-05
2.84861e-05
0.00847061
0.00840003
2.80055e-15
0.00840003
1.56728e-14
0.00840003
5.78849e-14
0.00840003
1.51788e-13
0.00840003
4.16832e-13
0.00840003
9.6167e-13
0.00840003
2.49561e-12
0.00840003
5.53763e-12
0.00840003
1.41255e-11
0.00840003
3.12871e-11
0.00840003
7.84688e-11
0.00840003
1.75352e-10
0.00840003
4.30758e-10
0.00840003
9.82892e-10
0.00840003
2.34055e-09
0.00840004
5.49235e-09
0.00840005
1.25949e-08
0.00840009
3.05492e-08
0.0084002
6.73638e-08
0.00840025
1.68426e-07
0.00840121
3.57886e-07
0.00840094
9.16296e-07
0.00840776
1.90754e-06
0.00840473
4.91952e-06
1.03329e-05
0.00844441
0.00840003
1.07195e-15
0.00840003
7.87158e-15
0.00840003
2.62941e-14
0.00840003
7.67158e-14
0.00840003
1.89675e-13
0.00840003
4.80917e-13
0.00840003
1.12471e-12
0.00840003
2.72936e-12
0.00840003
6.33176e-12
0.00840003
1.49737e-11
0.00840003
3.48744e-11
0.00840003
8.1538e-11
0.00840003
1.89782e-10
0.00840003
4.40139e-10
0.00840003
1.02321e-09
0.00840003
2.35861e-09
0.00840005
5.47516e-09
0.00840004
1.25241e-08
0.00840014
2.90142e-08
0.00840012
6.59526e-08
0.0084004
1.5195e-07
0.00840089
3.42448e-07
0.00840123
7.87902e-07
0.00840568
1.76468e-06
4.04199e-06
0.00840747
0.00840003
5.47468e-16
0.00840003
3.42199e-15
0.00840003
1.24341e-14
0.00840003
3.31775e-14
0.00840003
8.8567e-14
0.00840003
2.13376e-13
0.00840003
4.95344e-13
0.00840003
1.25708e-12
0.00840003
2.59919e-12
0.00840003
7.15459e-12
0.00840003
1.34437e-11
0.00840003
3.94252e-11
0.00840003
6.98651e-11
0.00840003
2.11888e-10
0.00840003
3.672e-10
0.00840003
1.10335e-09
0.00840005
1.98599e-09
0.00840002
5.57578e-09
0.0084001
1.08265e-08
0.00840002
2.71893e-08
0.00840019
6.09976e-08
0.00840034
1.28883e-07
0.00839994
3.34069e-07
0.00840272
6.03017e-07
1.79288e-06
0.00839933
0.00840003
2.16054e-16
0.00840003
1.93712e-15
0.00840003
4.22663e-15
0.00840003
1.76877e-14
0.00840003
2.95918e-14
0.00840003
1.0647e-13
0.00840003
1.76533e-13
0.00840003
5.68027e-13
0.00840003
1.03223e-12
0.00840003
2.86031e-12
0.00840003
6.06811e-12
0.00840003
1.38129e-11
0.00840003
3.53926e-11
0.00840003
6.38635e-11
0.00840003
2.06321e-10
0.00840003
2.93803e-10
0.00840002
1.16027e-09
0.00840006
1.26261e-09
0.00839996
6.52478e-09
0.00840026
4.83308e-09
0.00839957
3.59081e-08
0.00840136
1.63818e-08
0.0083975
1.89348e-07
0.00840694
7.01428e-08
9.06998e-07
0.00838799
0.00840003
8.96364e-17
0.00840003
6.72368e-16
0.00840003
2.08527e-15
0.00840003
6.19264e-15
0.00840003
1.54298e-14
0.00840003
3.66151e-14
0.00840003
9.63505e-14
0.00840003
1.89017e-13
0.00840003
5.50026e-13
0.00840003
9.68334e-13
0.00840003
3.10187e-12
0.00840003
4.67077e-12
0.00840003
1.73976e-11
0.00840003
2.4158e-11
0.00840003
9.54219e-11
0.00840003
1.12848e-10
0.00840002
5.24942e-10
0.00840004
6.34996e-10
0.00840002
2.56307e-09
0.00840001
3.86505e-09
0.00840009
1.18365e-08
0.00839953
2.56059e-08
0.0084011
4.96474e-08
0.00839626
1.55422e-07
2.28184e-07
0.00840575
0.00840003
8.1261e-17
0.00840003
1.93801e-16
0.00840003
6.65673e-16
0.00840003
2.07608e-15
0.00840003
6.6035e-15
0.00840003
1.34017e-14
0.00840003
4.1304e-14
0.00840003
7.26443e-14
0.00840003
2.43482e-13
0.00840003
4.1511e-13
0.00840003
1.35006e-12
0.00840003
2.21923e-12
0.00840003
7.53781e-12
0.00840003
1.09475e-11
0.00840003
4.14057e-11
0.00840003
6.41082e-11
0.00840003
2.02134e-10
0.00840002
3.43154e-10
0.00840005
1.02366e-09
0.00839991
2.1537e-09
0.0084003
4.81792e-09
0.00839908
1.16737e-08
0.00840209
2.60848e-08
0.00839438
7.10696e-08
1.41928e-07
0.00841022
0.00840003
1.15711e-16
0.00840003
-1.06035e-16
0.00840003
1.31828e-15
0.00840003
-3.88497e-16
0.00840003
7.68472e-15
0.00840003
5.65926e-16
0.00840003
3.32995e-14
0.00840003
4.02909e-14
0.00840003
8.5248e-14
0.00840003
4.75086e-13
0.00840003
-6.67663e-14
0.00840003
3.88051e-12
0.00840003
-3.81038e-12
0.00840003
2.89737e-11
0.00840003
-3.67831e-11
0.00840003
1.80228e-10
0.00840003
-2.53556e-10
0.00840001
1.05705e-09
0.00840007
-1.37727e-09
0.00839987
5.32868e-09
0.00840037
-7.00833e-09
0.00839894
2.58005e-08
0.0084024
-1.99455e-08
0.00839391
1.0524e-07
1.42778e-08
0.00841106
0.00840003
0.00840003
0.00840003
0.00840003
0.00840003
0.00840003
0.00840003
0.00840003
0.00840003
0.00840003
0.00840003
0.00840003
0.00840003
0.00840003
0.00840003
0.00840003
0.00840002
0.00840006
0.00839995
0.0084002
0.00839964
0.00840086
0.00839808
0.00840316
0.0083921
0.00454626
0.00417207
0.00257985
0.00193994
0.00140281
0.00114061
-0.000183138
0.00152791
-0.0012061
0.0010185
-0.00174456
0.000534506
-0.00214483
0.000388313
-0.00239234
0.000235765
-0.00247989
7.57932e-05
-0.00249475
5.70845e-06
-0.00253478
3.4137e-05
-0.00260344
6.48179e-05
-0.00268173
7.49052e-05
-0.00274765
6.3926e-05
-0.00280238
5.27281e-05
-0.00285578
5.30033e-05
-0.0029093
5.48126e-05
-0.00296361
5.64918e-05
-0.00301667
5.65315e-05
-0.00306526
5.26684e-05
-0.00310547
4.43069e-05
-0.00313645
3.574e-05
-0.00317308
4.11394e-05
-0.00320893
4.04645e-05
-0.00323741
3.31639e-05
-0.00325686
2.36187e-05
-0.00326339
9.77163e-06
-0.00324642
-1.52234e-05
-0.00319006
-5.57825e-05
-0.0030888
-0.000101944
-0.00294648
-0.000143745
-0.00276741
-0.000181153
-0.00255808
-0.000211625
-0.00232255
-0.000238238
-0.00207148
-0.000254023
-0.0018127
-0.000261921
-0.00155039
-0.00026567
-0.0012869
-0.000266851
-0.00101673
-0.000273517
-0.000747618
-0.000272566
-0.000481659
-0.000269384
-0.000213603
-0.000271402
6.0435e-05
-0.000277251
0.000317067
-0.000259729
0.000557766
-0.000243707
0.000789251
-0.000234364
0.00101157
-0.000225089
0.00122444
-0.000215546
0.00142694
-0.000205157
0.00162045
-0.000196176
0.00180923
-0.000191534
0.00199339
-0.000187148
0.0021695
-0.000179359
0.00233581
-0.000170002
0.00249391
-0.000162155
0.00264305
-0.000154184
0.00278527
-0.000147335
0.00291909
-0.000140386
0.00304609
-0.00013402
0.00316566
-0.000127935
0.00327844
-0.000122218
0.00338474
-0.000116949
0.00348454
-0.000112052
0.00357842
-0.000107608
0.00366653
-0.000103625
0.0037491
-0.000100096
0.00382661
-9.70434e-05