/*--------------------------------*- C++ -*----------------------------------*\
  =========                 |
  \\      /  F ield         | OpenFOAM: The Open Source CFD Toolbox
   \\    /   O peration     | Website:  https://openfoam.org
    \\  /    A nd           | Version:  10
     \\/     M anipulation  |
\*---------------------------------------------------------------------------*/
FoamFile
{
    format      ascii;
    class       volVectorField;
    location    "5.5";
    object      U;
}
// * * * * * * * * * * * * * * * * * * * * * * * * * * * * * * * * * * * * * //

dimensions      [0 1 -1 0 0 0 0];

internalField   nonuniform List<vector> 
5250
(
(3 2.43735e-09 0)
(2.99999 8.04093e-08 0)
(2.99996 2.1719e-07 0)
(2.99991 7.15856e-07 0)
(2.99978 1.56996e-06 0)
(2.99946 5.61164e-06 0)
(2.99865 7.26941e-06 0)
(2.99671 4.39619e-05 0)
(2.99177 3.23324e-05 0)
(2.97954 0.000268003 0)
(2.94765 0.000345925 0)
(2.86015 0.0013636 0)
(2.60717 0.00329567 0)
(1.86403 0.00980672 0)
(0.864862 0.0264518 0)
(0.44383 0.0243414 0)
(0.534553 0.0244028 0)
(0.558995 0.0262318 0)
(0.504292 0.0280763 0)
(0.413661 0.0299453 0)
(0.329061 0.0321595 0)
(0.260636 0.0347335 0)
(0.192064 0.0373946 0)
(0.114494 0.040419 0)
(0.0493631 0.0444915 0)
(3 2.75188e-08 0)
(2.99999 2.5441e-07 0)
(2.99997 7.71011e-07 0)
(2.99991 2.43587e-06 0)
(2.99978 5.72763e-06 0)
(2.99946 1.66409e-05 0)
(2.99869 3.22959e-05 0)
(2.99673 0.000111393 0)
(2.99195 0.000184606 0)
(2.97981 0.000671473 0)
(2.94852 0.00132278 0)
(2.86275 0.00396324 0)
(2.61374 0.0104265 0)
(1.88319 0.030337 0)
(0.875225 0.0806347 0)
(0.440405 0.0702912 0)
(0.53451 0.0672328 0)
(0.560146 0.0701849 0)
(0.505137 0.0731959 0)
(0.414525 0.0763447 0)
(0.329913 0.0798665 0)
(0.260912 0.083685 0)
(0.191332 0.0871515 0)
(0.112454 0.090387 0)
(0.0466962 0.0931772 0)
(3 5.62975e-08 0)
(2.99999 4.22849e-07 0)
(2.99997 1.21731e-06 0)
(2.99992 4.23189e-06 0)
(2.99979 9.17704e-06 0)
(2.99948 2.74201e-05 0)
(2.99873 6.00562e-05 0)
(2.99684 0.000163516 0)
(2.99223 0.000385117 0)
(2.9805 0.000984264 0)
(2.95036 0.00244805 0)
(2.86787 0.00647448 0)
(2.62886 0.0177676 0)
(1.92456 0.0513739 0)
(0.900622 0.138431 0)
(0.437558 0.119425 0)
(0.538257 0.112968 0)
(0.566664 0.118071 0)
(0.511511 0.123772 0)
(0.421198 0.13034 0)
(0.336581 0.137037 0)
(0.266781 0.144009 0)
(0.195817 0.1506 0)
(0.115032 0.156413 0)
(0.0469186 0.159935 0)
(3 9.64501e-08 0)
(2.99999 4.79138e-07 0)
(2.99997 1.90682e-06 0)
(2.99992 4.69894e-06 0)
(2.9998 1.41521e-05 0)
(2.99951 3.10858e-05 0)
(2.9988 9.3291e-05 0)
(2.997 0.000189745 0)
(2.99264 0.000585641 0)
(2.98152 0.00121463 0)
(2.95313 0.00351821 0)
(2.87542 0.0085765 0)
(2.6517 0.0243905 0)
(1.98788 0.0699916 0)
(0.9414 0.19263 0)
(0.437321 0.168007 0)
(0.546878 0.158208 0)
(0.579573 0.165295 0)
(0.52452 0.17384 0)
(0.434597 0.184421 0)
(0.349549 0.194756 0)
(0.278606 0.205424 0)
(0.205719 0.215909 0)
(0.121796 0.225105 0)
(0.0493757 0.229858 0)
(3 1.1462e-07 0)
(2.99999 5.93595e-07 0)
(2.99997 2.34219e-06 0)
(2.99993 5.79997e-06 0)
(2.99981 1.73402e-05 0)
(2.99955 3.87089e-05 0)
(2.99887 0.000110315 0)
(2.99725 0.000239889 0)
(2.99309 0.000682255 0)
(2.98294 0.0015157 0)
(2.95652 0.00417266 0)
(2.88521 0.0103943 0)
(2.68076 0.0292818 0)
(2.07122 0.0844328 0)
(0.999138 0.239 0)
(0.445325 0.217861 0)
(0.562212 0.205682 0)
(0.599774 0.213393 0)
(0.545046 0.223888 0)
(0.455513 0.238334 0)
(0.369392 0.252599 0)
(0.296746 0.267491 0)
(0.221236 0.282647 0)
(0.1327 0.296304 0)
(0.0539335 0.303292 0)
(3 1.0573e-07 0)
(2.99999 6.64543e-07 0)
(2.99997 2.31716e-06 0)
(2.99993 6.5757e-06 0)
(2.99983 1.7325e-05 0)
(2.99958 4.41319e-05 0)
(2.99897 0.00010957 0)
(2.99748 0.000275877 0)
(2.9937 0.000678315 0)
(2.98443 0.0017179 0)
(2.96054 0.00430032 0)
(2.8964 0.0112603 0)
(2.71408 0.0309231 0)
(2.17149 0.0896946 0)
(1.08037 0.26165 0)
(0.476345 0.263388 0)
(0.589596 0.25595 0)
(0.629728 0.26387 0)
(0.575354 0.275518 0)
(0.486232 0.293546 0)
(0.398245 0.312328 0)
(0.32303 0.332393 0)
(0.243988 0.353582 0)
(0.149247 0.373775 0)
(0.0614388 0.385358 0)
(3 9.05983e-08 0)
(2.99999 6.72341e-07 0)
(2.99998 2.09564e-06 0)
(2.99994 6.52934e-06 0)
(2.99985 1.57105e-05 0)
(2.99962 4.29527e-05 0)
(2.99906 9.97987e-05 0)
(2.99772 0.000267652 0)
(2.99429 0.000616331 0)
(2.98596 0.00164593 0)
(2.96447 0.00391782 0)
(2.9075 0.0104318 0)
(2.74663 0.0278724 0)
(2.27176 0.0800212 0)
(1.18083 0.236813 0)
(0.526828 0.296203 0)
(0.623551 0.307976 0)
(0.663132 0.315743 0)
(0.611204 0.328298 0)
(0.524835 0.350318 0)
(0.436034 0.374721 0)
(0.358484 0.401272 0)
(0.275877 0.430464 0)
(0.173917 0.460522 0)
(0.0737561 0.481665 0)
(3 9.0969e-08 0)
(2.99999 6.10633e-07 0)
(2.99998 2.04129e-06 0)
(2.99994 5.89811e-06 0)
(2.99986 1.50014e-05 0)
(2.99965 3.92874e-05 0)
(2.99915 9.30867e-05 0)
(2.99791 0.000244012 0)
(2.99485 0.000564133 0)
(2.98718 0.00148428 0)
(2.96786 0.00351729 0)
(2.91638 0.00921599 0)
(2.77204 0.0242932 0)
(2.34545 0.0683616 0)
(1.28254 0.201599 0)
(0.570985 0.335971 0)
(0.638712 0.369284 0)
(0.678602 0.367893 0)
(0.63905 0.38037 0)
(0.562979 0.406708 0)
(0.478285 0.438651 0)
(0.401713 0.473831 0)
(0.31825 0.514006 0)
(0.210658 0.559232 0)
(0.0946306 0.601059 0)
(3 9.55836e-08 0)
(2.99999 5.63588e-07 0)
(2.99998 2.03061e-06 0)
(2.99995 5.51556e-06 0)
(2.99987 1.50437e-05 0)
(2.99969 3.68486e-05 0)
(2.99923 9.43546e-05 0)
(2.99811 0.000226489 0)
(2.99532 0.000574252 0)
(2.98842 0.0013822 0)
(2.97089 0.00351826 0)
(2.92484 0.00878235 0)
(2.79545 0.0235594 0)
(2.41595 0.0656046 0)
(1.41158 0.193583 0)
(0.650257 0.385959 0)
(0.646686 0.418822 0)
(0.676853 0.414824 0)
(0.659343 0.430798 0)
(0.599359 0.460171 0)
(0.523864 0.501222 0)
(0.452641 0.547668 0)
(0.373662 0.601934 0)
(0.267793 0.672202 0)
(0.132548 0.758358 0)
(3 8.5987e-08 0)
(2.99999 6.14923e-07 0)
(2.99998 1.929e-06 0)
(2.99995 6.01843e-06 0)
(2.99989 1.44329e-05 0)
(2.99972 3.96768e-05 0)
(2.99931 9.02716e-05 0)
(2.99831 0.000244238 0)
(2.99581 0.000552115 0)
(2.98964 0.0014744 0)
(2.97402 0.00345414 0)
(2.93307 0.00910305 0)
(2.81928 0.0235643 0)
(2.48587 0.0663521 0)
(1.5652 0.193667 0)
(0.750027 0.434138 0)
(0.653717 0.451067 0)
(0.681642 0.453237 0)
(0.679051 0.475908 0)
(0.635119 0.509288 0)
(0.574177 0.55895 0)
(0.512713 0.617302 0)
(0.448198 0.692422 0)
(0.362374 0.80698 0)
(0.204181 1.01417 0)
(3 1.0357e-07 0)
(2.99999 5.75401e-07 0)
(2.99998 2.20062e-06 0)
(2.99996 5.60792e-06 0)
(2.9999 1.61974e-05 0)
(2.99975 3.74711e-05 0)
(2.9994 0.000100819 0)
(2.9985 0.00023476 0)
(2.99635 0.000608817 0)
(2.99084 0.00145383 0)
(2.97725 0.00371242 0)
(2.94158 0.00920127 0)
(2.84317 0.0245321 0)
(2.55753 0.0677777 0)
(1.73891 0.197332 0)
(0.868653 0.482426 0)
(0.662514 0.485131 0)
(0.693534 0.48772 0)
(0.703873 0.51255 0)
(0.673999 0.551904 0)
(0.6293 0.607317 0)
(0.586324 0.676847 0)
(0.555821 0.771987 0)
(0.553687 0.917284 0)
(0.592507 1.16282 0)
(3 9.55574e-08 0)
(2.99999 6.18872e-07 0)
(2.99999 2.07222e-06 0)
(2.99997 6.05011e-06 0)
(2.99991 1.55247e-05 0)
(2.99979 4.00251e-05 0)
(2.99948 9.93544e-05 0)
(2.99873 0.00024611 0)
(2.99683 0.000614351 0)
(2.99222 0.00151004 0)
(2.98047 0.00378807 0)
(2.95046 0.00954197 0)
(2.86801 0.0249944 0)
(2.63051 0.0692418 0)
(1.93499 0.200476 0)
(1.0095 0.525854 0)
(0.681504 0.522776 0)
(0.714014 0.523284 0)
(0.735714 0.54358 0)
(0.718463 0.586811 0)
(0.689751 0.645609 0)
(0.669245 0.722762 0)
(0.674268 0.826577 0)
(0.733277 0.969179 0)
(0.878176 1.15524 0)
(3 8.54054e-08 0)
(3 6.20118e-07 0)
(2.99999 1.93035e-06 0)
(2.99997 6.07881e-06 0)
(2.99993 1.45243e-05 0)
(2.99982 4.04308e-05 0)
(2.99957 9.24476e-05 0)
(2.99893 0.000250933 0)
(2.9974 0.00057458 0)
(2.99348 0.001542 0)
(2.98395 0.00362084 0)
(2.95925 0.00958013 0)
(2.89307 0.0243171 0)
(2.70452 0.0677908 0)
(2.14655 0.195779 0)
(1.18099 0.54728 0)
(0.730292 0.565369 0)
(0.75118 0.568838 0)
(0.777948 0.576905 0)
(0.771833 0.617074 0)
(0.755697 0.676306 0)
(0.754855 0.753581 0)
(0.785013 0.852332 0)
(0.869288 0.971695 0)
(1.03338 1.08854 0)
(3 8.78938e-08 0)
(3 5.05291e-07 0)
(2.99999 1.87522e-06 0)
(2.99998 4.94082e-06 0)
(2.99994 1.38731e-05 0)
(2.99986 3.29187e-05 0)
(2.99965 8.74005e-05 0)
(2.99913 0.000204343 0)
(2.9979 0.000533667 0)
(2.99476 0.00126138 0)
(2.98718 0.0032531 0)
(2.9677 0.00795337 0)
(2.91671 0.0207202 0)
(2.77447 0.0556733 0)
(2.36047 0.159488 0)
(1.40085 0.470861 0)
(0.830946 0.588731 0)
(0.811308 0.612301 0)
(0.829482 0.61829 0)
(0.834471 0.648733 0)
(0.826791 0.702159 0)
(0.837008 0.772201 0)
(0.880063 0.856653 0)
(0.969624 0.949466 0)
(1.12432 1.02503 0)
(3 7.38611e-08 0)
(3 4.25705e-07 0)
(2.99999 1.55752e-06 0)
(2.99998 4.15857e-06 0)
(2.99995 1.14902e-05 0)
(2.99988 2.74495e-05 0)
(2.99971 7.2383e-05 0)
(2.9993 0.000166648 0)
(2.99828 0.000440304 0)
(2.99575 0.00100193 0)
(2.98953 0.00265228 0)
(2.97381 0.0061892 0)
(2.93278 0.0162271 0)
(2.81959 0.04184 0)
(2.49104 0.116965 0)
(1.61518 0.347674 0)
(0.92707 0.622512 0)
(0.852345 0.654847 0)
(0.869204 0.665956 0)
(0.887659 0.682969 0)
(0.89288 0.725447 0)
(0.911119 0.78416 0)
(0.959422 0.852447 0)
(1.04631 0.922901 0)
(1.18449 0.975948 0)
(3 5.97329e-08 0)
(3 3.80418e-07 0)
(2.99999 1.29434e-06 0)
(2.99998 3.71923e-06 0)
(2.99996 9.56428e-06 0)
(2.99991 2.4535e-05 0)
(2.99977 6.0116e-05 0)
(2.99944 0.000150106 0)
(2.9986 0.000367628 0)
(2.9966 0.000907757 0)
(2.9915 0.00223255 0)
(2.979 0.00555317 0)
(2.94632 0.0138874 0)
(2.85715 0.0364251 0)
(2.60093 0.100001 0)
(1.86868 0.292257 0)
(1.07531 0.665416 0)
(0.881652 0.690691 0)
(0.895582 0.70265 0)
(0.92541 0.710862 0)
(0.948256 0.743815 0)
(0.974886 0.792087 0)
(1.02524 0.846585 0)
(1.10711 0.900048 0)
(1.22841 0.939186 0)
(3 5.033e-08 0)
(3 3.3758e-07 0)
(3 1.11931e-06 0)
(2.99999 3.29342e-06 0)
(2.99997 8.35711e-06 0)
(2.99993 2.18335e-05 0)
(2.99982 5.25395e-05 0)
(2.99955 0.00013558 0)
(2.99891 0.00032015 0)
(2.9973 0.000831506 0)
(2.9934 0.00196345 0)
(2.98351 0.00509863 0)
(2.95848 0.0124721 0)
(2.89103 0.0329468 0)
(2.69891 0.0898244 0)
(2.13475 0.26046 0)
(1.26765 0.68381 0)
(0.929873 0.723208 0)
(0.929032 0.731147 0)
(0.961266 0.734414 0)
(0.997505 0.75669 0)
(1.03084 0.796103 0)
(1.08107 0.840443 0)
(1.15692 0.881838 0)
(1.2631 0.911393 0)
(3 4.34783e-08 0)
(3 2.76792e-07 0)
(3 9.42885e-07 0)
(2.99999 2.69952e-06 0)
(2.99998 7.02086e-06 0)
(2.99994 1.781e-05 0)
(2.99986 4.43466e-05 0)
(2.99966 0.000109456 0)
(2.99918 0.000270809 0)
(2.99797 0.000664724 0)
(2.99506 0.0016519 0)
(2.98775 0.00407335 0)
(2.96954 0.0102241 0)
(2.92161 0.0261726 0)
(2.78992 0.0704671 0)
(2.40746 0.201595 0)
(1.53683 0.582335 0)
(1.0393 0.730236 0)
(0.988652 0.753764 0)
(1.00679 0.762004 0)
(1.04648 0.772382 0)
(1.08441 0.801021 0)
(1.13202 0.836021 0)
(1.20039 0.868198 0)
(1.29298 0.890599 0)
(3 3.63246e-08 0)
(3 2.08775e-07 0)
(3 7.70198e-07 0)
(2.99999 2.03468e-06 0)
(2.99998 5.6571e-06 0)
(2.99996 1.34417e-05 0)
(2.9999 3.52677e-05 0)
(2.99974 8.23091e-05 0)
(2.99937 0.000211862 0)
(2.99845 0.000497922 0)
(2.99624 0.00126488 0)
(2.99066 0.00301094 0)
(2.97689 0.007616 0)
(2.9411 0.0187452 0)
(2.84339 0.0495043 0)
(2.5641 0.135543 0)
(1.80576 0.404156 0)
(1.15685 0.735245 0)
(1.03721 0.774944 0)
(1.04552 0.791902 0)
(1.0854 0.794552 0)
(1.13022 0.810551 0)
(1.17721 0.83564 0)
(1.23901 0.859737 0)
(1.32006 0.876185 0)
(3 2.6858e-08 0)
(3 1.76524e-07 0)
(3 5.85427e-07 0)
(2.99999 1.71904e-06 0)
(2.99999 4.34188e-06 0)
(2.99997 1.12932e-05 0)
(2.99992 2.73357e-05 0)
(2.99981 6.88673e-05 0)
(2.99953 0.000166414 0)
(2.99885 0.000413404 0)
(2.99715 0.00101181 0)
(2.99304 0.00249402 0)
(2.98263 0.00618154 0)
(2.95636 0.015495 0)
(2.88525 0.0400372 0)
(2.68405 0.109326 0)
(2.09881 0.318708 0)
(1.33585 0.755261 0)
(1.08538 0.80688 0)
(1.07978 0.8198 0)
(1.11499 0.818566 0)
(1.16643 0.82145 0)
(1.21599 0.837393 0)
(1.27326 0.854933 0)
(1.3449 0.866696 0)
(3 2.11824e-08 0)
(3 1.37155e-07 0)
(3 4.63793e-07 0)
(3 1.33584e-06 0)
(2.99999 3.44341e-06 0)
(2.99998 8.81269e-06 0)
(2.99994 2.15621e-05 0)
(2.99986 5.40813e-05 0)
(2.99966 0.000130918 0)
(2.99916 0.000326505 0)
(2.99798 0.000791854 0)
(2.99496 0.00197631 0)
(2.98773 0.00484198 0)
(2.96924 0.0121807 0)
(2.92128 0.0310219 0)
(2.78925 0.0835663 0)
(2.4045 0.23931 0)
(1.60797 0.659605 0)
(1.18673 0.811055 0)
(1.13406 0.835163 0)
(1.15136 0.841105 0)
(1.20005 0.836222 0)
(1.25248 0.842288 0)
(1.30588 0.853278 0)
(1.36924 0.861023 0)
(3 1.65149e-08 0)
(3 1.01848e-07 0)
(3 3.53739e-07 0)
(3 9.92042e-07 0)
(2.99999 2.61797e-06 0)
(2.99998 6.4876e-06 0)
(2.99996 1.64562e-05 0)
(2.9999 3.92358e-05 0)
(2.99975 9.97239e-05 0)
(2.9994 0.000234643 0)
(2.99852 0.000598641 0)
(2.99642 0.0014021 0)
(2.99114 0.00359874 0)
(2.97815 0.00855053 0)
(2.94452 0.022023 0)
(2.85401 0.0566162 0)
(2.59582 0.157099 0)
(1.90705 0.462194 0)
(1.31666 0.799902 0)
(1.18759 0.845786 0)
(1.18845 0.863712 0)
(1.2287 0.85867 0)
(1.28318 0.852728 0)
(1.33566 0.855393 0)
(1.39304 0.858708 0)
(3 1.17534e-08 0)
(3 7.86982e-08 0)
(3 2.58708e-07 0)
(3 7.65909e-07 0)
(3 1.91675e-06 0)
(2.99999 5.02613e-06 0)
(2.99997 1.20072e-05 0)
(2.99993 3.05811e-05 0)
(2.99982 7.27876e-05 0)
(2.99957 0.000182897 0)
(2.99895 0.000440045 0)
(2.99746 0.00109174 0)
(2.99369 0.00266765 0)
(2.98457 0.00659654 0)
(2.96113 0.0164392 0)
(2.89912 0.042233 0)
(2.72584 0.114083 0)
(2.22117 0.332404 0)
(1.51443 0.779121 0)
(1.25144 0.864837 0)
(1.22917 0.882437 0)
(1.25288 0.880876 0)
(1.30496 0.868201 0)
(1.36056 0.862413 0)
(1.41552 0.860626 0)
(3 9.21585e-09 0)
(3 5.54469e-08 0)
(3 1.98019e-07 0)
(3 5.4084e-07 0)
(3 1.45926e-06 0)
(2.99999 3.58055e-06 0)
(2.99998 9.07592e-06 0)
(2.99995 2.19854e-05 0)
(2.99988 5.44688e-05 0)
(2.99971 0.000132731 0)
(2.99928 0.000324746 0)
(2.99827 0.000802388 0)
(2.99572 0.00194321 0)
(2.98962 0.00485576 0)
(2.97416 0.0119227 0)
(2.93461 0.0303723 0)
(2.82775 0.0803706 0)
(2.51857 0.227985 0)
(1.81041 0.631133 0)
(1.36753 0.855584 0)
(1.28601 0.887304 0)
(1.28932 0.897393 0)
(1.32977 0.886213 0)
(1.38407 0.872993 0)
(1.43728 0.866429 0)
(3 6.4749e-09 0)
(3 4.02673e-08 0)
(3 1.40195e-07 0)
(3 3.9172e-07 0)
(3 1.03292e-06 0)
(2.99999 2.58014e-06 0)
(2.99999 6.40782e-06 0)
(2.99997 1.57157e-05 0)
(2.99992 3.83626e-05 0)
(2.9998 9.41658e-05 0)
(2.99951 0.000227902 0)
(2.99881 0.000562759 0)
(2.99706 0.0013549 0)
(2.99288 0.00336636 0)
(2.98233 0.00819575 0)
(2.95588 0.0205092 0)
(2.8851 0.0527014 0)
(2.68684 0.142942 0)
(2.13234 0.417567 0)
(1.52579 0.834016 0)
(1.34135 0.899502 0)
(1.32608 0.91281 0)
(1.35118 0.90561 0)
(1.4028 0.887257 0)
(1.45723 0.875099 0)
(3 4.3704e-09 0)
(3 2.93034e-08 0)
(3 9.65884e-08 0)
(3 2.84017e-07 0)
(3 7.14077e-07 0)
(3 1.85623e-06 0)
(2.99999 4.43865e-06 0)
(2.99998 1.12747e-05 0)
(2.99994 2.66739e-05 0)
(2.99987 6.73267e-05 0)
(2.99967 0.000159389 0)
(2.99921 0.000399553 0)
(2.99806 0.000954376 0)
(2.99532 0.00237936 0)
(2.98842 0.00576862 0)
(2.97152 0.014401 0)
(2.92749 0.0363165 0)
(2.80833 0.0966787 0)
(2.4632 0.276519 0)
(1.79286 0.708263 0)
(1.43807 0.885274 0)
(1.37695 0.91444 0)
(1.38236 0.920683 0)
(1.42322 0.905016 0)
(1.47651 0.885282 0)
(3 3.15633e-09 0)
(3 1.94946e-08 0)
(3 6.84999e-08 0)
(3 1.89245e-07 0)
(3 5.03563e-07 0)
(3 1.24421e-06 0)
(2.99999 3.10476e-06 0)
(2.99998 7.59103e-06 0)
(2.99996 1.84134e-05 0)
(2.99991 4.5485e-05 0)
(2.99978 0.000108492 0)
(2.99947 0.000271318 0)
(2.99871 0.000639539 0)
(2.99689 0.00161421 0)
(2.99234 0.00381324 0)
(2.98128 0.00965576 0)
(2.95298 0.0235068 0)
(2.878 0.061415 0)
(2.66741 0.16682 0)
(2.10676 0.478269 0)
(1.57813 0.85257 0)
(1.43132 0.917379 0)
(1.41723 0.93164 0)
(1.44118 0.923688 0)
(1.49045 0.900368 0)
(3 2.16218e-09 0)
(3 1.32797e-08 0)
(3 4.6623e-08 0)
(3 1.28867e-07 0)
(3 3.42772e-07 0)
(3 8.46544e-07 0)
(3 2.1173e-06 0)
(2.99999 5.14055e-06 0)
(2.99998 1.25993e-05 0)
(2.99994 3.07033e-05 0)
(2.99986 7.44138e-05 0)
(2.99966 0.000182799 0)
(2.99918 0.000438985 0)
(2.99797 0.00108888 0)
(2.99511 0.00260644 0)
(2.98791 0.00651431 0)
(2.97029 0.0158653 0)
(2.92428 0.0404988 0)
(2.79982 0.106989 0)
(2.44051 0.306888 0)
(1.82079 0.740455 0)
(1.51539 0.903809 0)
(1.46181 0.932983 0)
(1.46706 0.938742 0)
(1.5054 0.920957 0)
(3 1.44496e-09 0)
(3 8.96298e-09 0)
(3 3.1044e-08 0)
(3 8.69982e-08 0)
(3 2.2764e-07 0)
(3 5.67882e-07 0)
(3 1.41205e-06 0)
(2.99999 3.42235e-06 0)
(2.99998 8.45943e-06 0)
(2.99996 2.02538e-05 0)
(2.99991 5.01144e-05 0)
(2.99978 0.000119828 0)
(2.99947 0.000296233 0)
(2.9987 0.000708767 0)
(2.99686 0.00175334 0)
(2.99232 0.00423097 0)
(2.9812 0.0104941 0)
(2.95294 0.0259914 0)
(2.87859 0.0671579 0)
(2.66856 0.184445 0)
(2.13201 0.516123 0)
(1.65195 0.868473 0)
(1.5166 0.934344 0)
(1.5003 0.948735 0)
(1.51939 0.940639 0)
(3 9.76676e-10 0)
(3 5.88257e-09 0)
(3 2.08442e-08 0)
(3 5.70409e-08 0)
(3 1.52668e-07 0)
(3 3.71682e-07 0)
(3 9.46511e-07 0)
(3 2.23641e-06 0)
(2.99999 5.64708e-06 0)
(2.99998 1.324e-05 0)
(2.99994 3.33035e-05 0)
(2.99986 7.83181e-05 0)
(2.99967 0.00019571 0)
(2.99918 0.000463209 0)
(2.99805 0.0011505 0)
(2.99519 0.0027558 0)
(2.98838 0.00680936 0)
(2.97117 0.0166827 0)
(2.92734 0.0421814 0)
(2.80879 0.111348 0)
(2.46899 0.317875 0)
(1.89181 0.743646 0)
(1.60035 0.914353 0)
(1.54408 0.946232 0)
(1.54412 0.952505 0)
(3 6.11873e-10 0)
(3 3.89283e-09 0)
(3 1.32226e-08 0)
(3 3.7687e-08 0)
(3 9.73315e-08 0)
(3 2.44729e-07 0)
(3 6.02569e-07 0)
(3 1.46761e-06 0)
(2.99999 3.59183e-06 0)
(2.99999 8.64912e-06 0)
(2.99996 2.1228e-05 0)
(2.99991 5.0777e-05 0)
(2.99979 0.000125049 0)
(2.9995 0.00029874 0)
(2.99877 0.000735821 0)
(2.99703 0.00176165 0)
(2.99279 0.00435079 0)
(2.98232 0.0105574 0)
(2.95603 0.0263366 0)
(2.88718 0.0673803 0)
(2.69378 0.184048 0)
(2.20135 0.508076 0)
(1.73953 0.871586 0)
(1.59818 0.943985 0)
(1.57674 0.959118 0)
(3 3.87793e-10 0)
(3 2.48588e-09 0)
(3 8.47066e-09 0)
(3 2.40918e-08 0)
(3 6.20693e-08 0)
(3 1.57147e-07 0)
(3 3.80412e-07 0)
(3 9.45876e-07 0)
(3 2.24937e-06 0)
(2.99999 5.58628e-06 0)
(2.99998 1.32013e-05 0)
(2.99995 3.27991e-05 0)
(2.99987 7.75199e-05 0)
(2.99969 0.000192152 0)
(2.99927 0.000455896 0)
(2.9982 0.00112508 0)
(2.9957 0.00269754 0)
(2.98944 0.00663847 0)
(2.97434 0.0162098 0)
(2.93549 0.0408414 0)
(2.83244 0.106912 0)
(2.53875 0.302815 0)
(1.99239 0.716605 0)
(1.68875 0.910766 0)
(1.62326 0.950783 0)
(3 2.47018e-10 0)
(3 1.56833e-09 0)
(3 5.31137e-09 0)
(3 1.51731e-08 0)
(3 3.88821e-08 0)
(3 9.8108e-08 0)
(3 2.40273e-07 0)
(3 5.83982e-07 0)
(3 1.42626e-06 0)
(2.99999 3.41167e-06 0)
(2.99999 8.3916e-06 0)
(2.99997 1.98596e-05 0)
(2.99992 4.91341e-05 0)
(2.99981 0.000115651 0)
(2.99955 0.000286974 0)
(2.9989 0.000675258 0)
(2.99738 0.00167391 0)
(2.99356 0.00396788 0)
(2.98444 0.00984555 0)
(2.9613 0.0239306 0)
(2.90167 0.061049 0)
(2.73652 0.163687 0)
(2.30239 0.451113 0)
(1.83813 0.840645 0)
(1.67772 0.937291 0)
(3 1.51507e-10 0)
(3 9.8517e-10 0)
(3 3.28087e-09 0)
(3 9.52528e-09 0)
(3 2.40122e-08 0)
(3 6.1455e-08 0)
(3 1.48153e-07 0)
(3 3.65429e-07 0)
(3 8.8033e-07 0)
(3 2.12964e-06 0)
(2.99999 5.17861e-06 0)
(2.99998 1.23584e-05 0)
(2.99995 3.04116e-05 0)
(2.99989 7.16625e-05 0)
(2.99973 0.000178157 0)
(2.99936 0.00041723 0)
(2.99845 0.00104137 0)
(2.99625 0.00244453 0)
(2.99093 0.00611447 0)
(2.97782 0.0146216 0)
(2.9449 0.0370076 0)
(2.85844 0.0950696 0)
(2.61259 0.265935 0)
(2.10509 0.658225 0)
(1.77806 0.897407 0)
(3 9.30667e-11 0)
(3 5.93213e-10 0)
(3 2.02944e-09 0)
(3 5.73804e-09 0)
(3 1.48047e-08 0)
(3 3.72853e-08 0)
(3 9.01711e-08 0)
(3 2.22946e-07 0)
(3 5.29186e-07 0)
(3 1.30696e-06 0)
(3 3.07932e-06 0)
(2.99999 7.60174e-06 0)
(2.99997 1.79243e-05 0)
(2.99993 4.4094e-05 0)
(2.99984 0.000104265 0)
(2.99962 0.000255271 0)
(2.99907 0.000607699 0)
(2.99779 0.00147812 0)
(2.99458 0.00355271 0)
(2.98695 0.00864739 0)
(2.96773 0.0211391 0)
(2.91892 0.0531499 0)
(2.786 0.140268 0)
(2.42502 0.389024 0)
(1.95755 0.790341 0)
(3 5.81063e-11 0)
(3 3.56132e-10 0)
(3 1.24598e-09 0)
(3 3.44503e-09 0)
(3 9.08179e-09 0)
(3 2.23416e-08 0)
(3 5.54671e-08 0)
(3 1.33293e-07 0)
(3 3.25564e-07 0)
(3 7.81452e-07 0)
(3 1.89103e-06 0)
(2.99999 4.56008e-06 0)
(2.99998 1.09614e-05 0)
(2.99996 2.6599e-05 0)
(2.99991 6.34596e-05 0)
(2.99977 0.000155062 0)
(2.99947 0.000368622 0)
(2.9987 0.000902956 0)
(2.99691 0.00215013 0)
(2.99244 0.00528866 0)
(2.98175 0.012758 0)
(2.95475 0.031795 0)
(2.88488 0.0810202 0)
(2.68889 0.221727 0)
(2.23952 0.574209 0)
(3 3.3731e-11 0)
(3 2.17865e-10 0)
(3 7.293e-10 0)
(3 2.10424e-09 0)
(3 5.32256e-09 0)
(3 1.35607e-08 0)
(3 3.26254e-08 0)
(3 8.03429e-08 0)
(3 1.9222e-07 0)
(3 4.66226e-07 0)
(3 1.12251e-06 0)
(3 2.69134e-06 0)
(2.99999 6.53807e-06 0)
(2.99998 1.55196e-05 0)
(2.99995 3.80025e-05 0)
(2.99987 8.96406e-05 0)
(2.99969 0.000220598 0)
(2.99927 0.000518146 0)
(2.99823 0.0012806 0)
(2.99578 0.00301441 0)
(2.98976 0.00747364 0)
(2.97517 0.0178974 0)
(2.93826 0.0451229 0)
(2.84101 0.116747 0)
(2.57032 0.325125 0)
(3 2.04946e-11 0)
(3 1.25488e-10 0)
(3 4.4144e-10 0)
(3 1.21051e-09 0)
(3 3.20857e-09 0)
(3 7.84688e-09 0)
(3 1.9467e-08 0)
(3 4.67387e-08 0)
(3 1.13245e-07 0)
(3 2.7307e-07 0)
(3 6.52266e-07 0)
(3 1.58657e-06 0)
(2.99999 3.7463e-06 0)
(2.99999 9.18802e-06 0)
(2.99997 2.15657e-05 0)
(2.99993 5.29985e-05 0)
(2.99982 0.000124183 0)
(2.99958 0.000305263 0)
(2.99899 0.000716145 0)
(2.9976 0.00175739 0)
(2.99413 0.00415168 0)
(2.98595 0.0102069 0)
(2.96533 0.0246122 0)
(2.91316 0.062238 0)
(2.77065 0.164623 0)
(3 1.19421e-11 0)
(3 7.3847e-11 0)
(3 2.5598e-10 0)
(3 7.12446e-10 0)
(3 1.85945e-09 0)
(3 4.58268e-09 0)
(3 1.1349e-08 0)
(3 2.70874e-08 0)
(3 6.64572e-08 0)
(3 1.56967e-07 0)
(3 3.84206e-07 0)
(3 9.07438e-07 0)
(3 2.21358e-06 0)
(2.99999 5.23734e-06 0)
(2.99998 1.27318e-05 0)
(2.99996 3.02951e-05 0)
(2.9999 7.30537e-05 0)
(2.99976 0.000175378 0)
(2.99944 0.000419283 0)
(2.99864 0.0010168 0)
(2.99679 0.0024155 0)
(2.99218 0.0059182 0)
(2.98123 0.0142094 0)
(2.95365 0.0353202 0)
(2.88258 0.0898075 0)
(3 6.67619e-12 0)
(3 4.30084e-11 0)
(3 1.44806e-10 0)
(3 4.1429e-10 0)
(3 1.05359e-09 0)
(3 2.66238e-09 0)
(3 6.39445e-09 0)
(3 1.57179e-08 0)
(3 3.73001e-08 0)
(3 9.0813e-08 0)
(3 2.1532e-07 0)
(3 5.21339e-07 0)
(3 1.24105e-06 0)
(3 2.98568e-06 0)
(2.99999 7.14232e-06 0)
(2.99998 1.70818e-05 0)
(2.99995 4.11402e-05 0)
(2.99987 9.76116e-05 0)
(2.99969 0.000236608 0)
(2.99926 0.000558891 0)
(2.99822 0.00136096 0)
(2.99576 0.00321439 0)
(2.98975 0.00787439 0)
(2.97527 0.0188879 0)
(2.93881 0.0471525 0)
(3 3.86305e-12 0)
(3 2.38279e-11 0)
(3 8.29624e-11 0)
(3 2.29165e-10 0)
(3 6.01912e-10 0)
(3 1.47424e-09 0)
(3 3.63615e-09 0)
(3 8.69587e-09 0)
(3 2.10336e-08 0)
(3 5.03052e-08 0)
(3 1.20266e-07 0)
(3 2.88899e-07 0)
(3 6.85688e-07 0)
(3 1.65755e-06 0)
(2.99999 3.90531e-06 0)
(2.99999 9.46952e-06 0)
(2.99997 2.22942e-05 0)
(2.99993 5.40104e-05 0)
(2.99983 0.000127174 0)
(2.99958 0.000307299 0)
(2.999 0.000726836 0)
(2.9976 0.00175046 0)
(2.99427 0.00416438 0)
(2.98615 0.0100759 0)
(2.9663 0.0244053 0)
(3 2.05087e-12 0)
(3 1.3376e-11 0)
(3 4.43751e-11 0)
(3 1.28735e-10 0)
(3 3.22182e-10 0)
(3 8.20789e-10 0)
(3 1.94782e-09 0)
(3 4.79132e-09 0)
(3 1.13127e-08 0)
(3 2.73042e-08 0)
(3 6.49146e-08 0)
(3 1.54569e-07 0)
(3 3.71601e-07 0)
(3 8.72744e-07 0)
(3 2.11938e-06 0)
(2.99999 4.93402e-06 0)
(2.99998 1.20599e-05 0)
(2.99996 2.79123e-05 0)
(2.9999 6.83469e-05 0)
(2.99976 0.000158341 0)
(2.99942 0.000386448 0)
(2.99863 0.000899315 0)
(2.99668 0.00218676 0)
(2.9921 0.00515086 0)
(2.98079 0.012542 0)
(3 1.1522e-12 0)
(3 6.77378e-12 0)
(3 2.40989e-11 0)
(3 6.4806e-11 0)
(3 1.72927e-10 0)
(3 4.13218e-10 0)
(3 1.03391e-09 0)
(3 2.40411e-09 0)
(3 5.89409e-09 0)
(3 1.3655e-08 0)
(3 3.31139e-08 0)
(3 7.71522e-08 0)
(3 1.84442e-07 0)
(3 4.337e-07 0)
(3 1.02373e-06 0)
(3 2.43441e-06 0)
(2.99999 5.6467e-06 0)
(2.99997 1.35928e-05 0)
(2.99993 3.11087e-05 0)
(2.99984 7.54885e-05 0)
(2.99962 0.000170448 0)
(2.9991 0.000416413 0)
(2.99781 0.000934517 0)
(2.99477 0.00228172 0)
(2.98722 0.00515591 0)
(3 5.56374e-13 0)
(3 3.34874e-12 0)
(3 1.19055e-11 0)
(3 3.20504e-11 0)
(3 8.50117e-11 0)
(3 2.01218e-10 0)
(3 5.05365e-10 0)
(3 1.14808e-09 0)
(3 2.84408e-09 0)
(3 6.39699e-09 0)
(3 1.56795e-08 0)
(3 3.53359e-08 0)
(3 8.53115e-08 0)
(3 1.94689e-07 0)
(3 4.58541e-07 0)
(3 1.0668e-06 0)
(2.99999 2.43881e-06 0)
(2.99998 5.80468e-06 0)
(2.99995 1.28359e-05 0)
(2.99988 3.12589e-05 0)
(2.9997 6.68044e-05 0)
(2.99926 0.000165288 0)
(2.99823 0.00034546 0)
(2.99561 0.000855258 0)
(2.98933 0.00177227 0)
(3 2.23574e-13 0)
(3 1.5829e-12 0)
(3 5.35813e-12 0)
(3 1.52025e-11 0)
(3 3.82686e-11 0)
(3 9.55706e-11 0)
(3 2.21728e-10 0)
(3 5.46832e-10 0)
(3 1.21551e-09 0)
(3 3.02229e-09 0)
(3 6.53701e-09 0)
(3 1.64495e-08 0)
(3 3.49391e-08 0)
(3 8.81612e-08 0)
(3 1.86169e-07 0)
(3 4.65033e-07 0)
(2.99999 9.94179e-07 0)
(2.99998 2.41053e-06 0)
(2.99996 5.28046e-06 0)
(2.99989 1.22656e-05 0)
(2.99973 2.80754e-05 0)
(2.99933 6.12968e-05 0)
(2.99839 0.000147014 0)
(2.99596 0.000302711 0)
(2.9901 0.00075311 0)
(3 1.08779e-13 0)
(3 7.49728e-13 0)
(3 2.25201e-12 0)
(3 6.89727e-12 0)
(3 1.57599e-11 0)
(3 4.29712e-11 0)
(3 8.86781e-11 0)
(3 2.43434e-10 0)
(3 4.72815e-10 0)
(3 1.32003e-09 0)
(3 2.51419e-09 0)
(3 6.94153e-09 0)
(3 1.34823e-08 0)
(3 3.5413e-08 0)
(3 7.32732e-08 0)
(3 1.76402e-07 0)
(2.99999 4.01676e-07 0)
(2.99998 8.4495e-07 0)
(2.99996 2.2041e-06 0)
(2.9999 3.84934e-06 0)
(2.99974 1.22362e-05 0)
(2.99936 1.67033e-05 0)
(2.99843 6.5147e-05 0)
(2.99611 7.27042e-05 0)
(2.99035 0.0003281 0)
(3 4.46688e-14 0)
(3 3.57709e-13 0)
(3 8.49698e-13 0)
(3 3.26341e-12 0)
(3 5.92907e-12 0)
(3 1.91443e-11 0)
(3 3.5647e-11 0)
(3 9.90759e-11 0)
(3 2.06076e-10 0)
(3 4.85729e-10 0)
(3 1.19226e-09 0)
(3 2.26237e-09 0)
(3 6.89823e-09 0)
(3 1.03135e-08 0)
(3 3.93815e-08 0)
(3 4.52273e-08 0)
(2.99999 2.20029e-07 0)
(2.99998 2.02365e-07 0)
(2.99996 1.17255e-06 0)
(2.9999 9.33782e-07 0)
(2.99974 6.02522e-06 0)
(2.99938 4.52244e-06 0)
(2.99843 2.94242e-05 0)
(2.99617 2.49439e-05 0)
(2.99037 0.000134463 0)
(3 2.1249e-14 0)
(3 1.04987e-13 0)
(3 3.42737e-13 0)
(3 9.88907e-13 0)
(3 2.8398e-12 0)
(3 5.99901e-12 0)
(3 1.81421e-11 0)
(3 3.14188e-11 0)
(3 1.06141e-10 0)
(3 1.60775e-10 0)
(3 6.02898e-10 0)
(3 8.19821e-10 0)
(3 3.39204e-09 0)
(3 4.23697e-09 0)
(3 1.87907e-08 0)
(3 2.30631e-08 0)
(2.99999 9.93991e-08 0)
(2.99998 1.35416e-07 0)
(2.99996 4.79774e-07 0)
(2.9999 8.79985e-07 0)
(2.99975 2.18466e-06 0)
(2.99938 5.58777e-06 0)
(2.99845 9.56264e-06 0)
(2.9962 3.43061e-05 0)
(2.99046 4.8304e-05 0)
(3 2.94183e-14 0)
(3 1.09676e-14 0)
(3 2.52536e-13 0)
(3 1.93891e-13 0)
(3 1.72677e-12 0)
(3 1.71002e-12 0)
(3 8.38974e-12 0)
(3 1.54242e-11 0)
(3 3.17289e-11 0)
(3 1.23364e-10 0)
(3 9.43067e-11 0)
(3 8.80941e-10 0)
(3 3.18537e-11 0)
(3 5.73322e-09 0)
(3 -1.99096e-09 0)
(3 3.5231e-08 0)
(2.99999 -2.0091e-08 0)
(2.99998 1.9667e-07 0)
(2.99996 -1.11214e-07 0)
(2.9999 1.00925e-06 0)
(2.99975 -3.25969e-07 0)
(2.99938 4.7499e-06 0)
(2.99846 9.40159e-07 0)
(2.99621 2.04925e-05 0)
(2.99049 2.40585e-05 0)
(3 2.02918e-14 0)
(3 -7.77769e-15 0)
(3 1.92664e-13 0)
(3 4.97456e-14 0)
(3 9.95148e-13 0)
(3 7.12203e-13 0)
(3 3.53081e-12 0)
(3 9.67492e-12 0)
(3 1.97448e-12 0)
(3 9.49341e-11 0)
(3 -7.23731e-11 0)
(3 6.99475e-10 0)
(3 -8.80582e-10 0)
(3 4.89317e-09 0)
(3 -7.03718e-09 0)
(3 2.83156e-08 0)
(2.99999 -4.37114e-08 0)
(2.99998 1.55886e-07 0)
(2.99996 -2.15724e-07 0)
(2.9999 7.21129e-07 0)
(2.99975 -7.82803e-07 0)
(2.99938 3.19488e-06 0)
(2.99846 -6.93894e-07 0)
(2.99622 1.08324e-05 0)
(2.99051 1.48525e-05 0)
(1.22409 1.05594 0)
(1.42602 0.819621 0)
(0.965241 0.483821 0)
(0.213117 0.392376 0)
(-0.35246 0.103131 0)
(-0.42758 -0.00161231 0)
(-0.641325 -0.0203345 0)
(-0.745106 -0.0371438 0)
(-0.785023 -0.0389341 0)
(-0.798879 -0.0215461 0)
(-0.813408 0.000543416 0)
(-0.840424 0.0130625 0)
(-0.873103 0.0155686 0)
(-0.903297 0.012686 0)
(-0.929212 0.00830464 0)
(-0.953929 0.00537298 0)
(-0.979456 0.00403868 0)
(-1.0056 0.00362696 0)
(-1.03155 0.00343066 0)
(-1.05661 0.00303933 0)
(-1.08131 0.00247781 0)
(-1.10672 0.00252999 0)
(-1.1286 0.00397652 0)
(-1.14242 0.00414367 0)
(-1.15019 0.00334651 0)
(-1.15334 0.00219106 0)
(-1.14578 0.000338201 0)
(-1.11953 -0.00311952 0)
(-1.07272 -0.00787596 0)
(-1.00864 -0.0129807 0)
(-0.932692 -0.017471 0)
(-0.849697 -0.0211965 0)
(-0.763259 -0.0240104 0)
(-0.675709 -0.0262664 0)
(-0.589875 -0.0276912 0)
(-0.507449 -0.0285219 0)
(-0.429016 -0.0293054 0)
(-0.354354 -0.0303981 0)
(-0.281004 -0.032822 0)
(-0.211417 -0.0335413 0)
(-0.144509 -0.0337625 0)
(-0.0801434 -0.0351303 0)
(-0.0176429 -0.0374798 0)
(0.0491408 -0.0327007 0)
(0.104296 -0.029379 0)
(0.158952 -0.028 0)
(0.210265 -0.0267254 0)
(0.259232 -0.0254891 0)
(0.30461 -0.024095 0)
(0.347632 -0.0230403 0)
(0.392099 -0.0227696 0)
(0.436878 -0.0225306 0)
(0.479354 -0.0216177 0)
(0.519635 -0.0205026 0)
(0.558308 -0.0195816 0)
(0.595489 -0.0187122 0)
(0.631366 -0.0179547 0)
(0.665842 -0.0171985 0)
(0.699025 -0.016492 0)
(0.730867 -0.0158158 0)
(0.761386 -0.0151752 0)
(0.790564 -0.014576 0)
(0.818372 -0.0140118 0)
(0.844785 -0.0134893 0)
(0.869759 -0.0130086 0)
(0.893252 -0.01257 0)
(0.915224 -0.0121751 0)
(0.935639 -0.0118233 0)
(0.954471 -0.011509 0)
(0.971707 -0.0112212 0)
(0.987329 -0.0109462 0)
(1.00163 -0.0107091 0)
(1.01516 -0.0104943 0)
(1.02804 -0.0103096 0)
(1.04003 -0.0101442 0)
(1.05111 -0.00997161 0)
(1.0617 -0.00973146 0)
(1.07255 -0.00945558 0)
(1.08377 -0.00911416 0)
(1.09508 -0.00877204 0)
(1.10664 -0.00842749 0)
(1.11877 -0.00807513 0)
(1.13188 -0.00763702 0)
(1.14619 -0.00716669 0)
(1.16146 -0.00673195 0)
(1.17742 -0.00631492 0)
(1.19397 -0.00592816 0)
(1.21093 -0.00555901 0)
(1.2282 -0.00519514 0)
(1.24566 -0.00482317 0)
(1.26318 -0.00443808 0)
(1.28063 -0.00403454 0)
(1.29788 -0.00360854 0)
(1.31474 -0.003149 0)
(1.33097 -0.00264286 0)
(1.34625 -0.00207045 0)
(1.36008 -0.00140722 0)
(1.37186 -0.000667946 0)
(1.38067 0.000164366 0)
(1.38734 0.00105942 0)
(1.29987 0.964772 0)
(1.45086 0.675718 0)
(1.28928 0.415894 0)
(0.917871 0.390944 0)
(0.64169 0.337582 0)
(0.547622 0.264432 0)
(0.404715 0.204146 0)
(0.21725 0.149985 0)
(0.0371788 0.0870725 0)
(-0.180488 0.028546 0)
(-0.321452 0.0237736 0)
(-0.441132 0.0243083 0)
(-0.52548 0.0218359 0)
(-0.578236 0.0181142 0)
(-0.611948 0.017163 0)
(-0.639596 0.0216116 0)
(-0.668244 0.0249359 0)