/*--------------------------------*- C++ -*----------------------------------*\
  =========                 |
  \\      /  F ield         | OpenFOAM: The Open Source CFD Toolbox
   \\    /   O peration     | Website:  https://openfoam.org
    \\  /    A nd           | Version:  10
     \\/     M anipulation  |
\*---------------------------------------------------------------------------*/
FoamFile
{
    format      ascii;
    class       volVectorField;
    location    "5";
    object      U;
}
// * * * * * * * * * * * * * * * * * * * * * * * * * * * * * * * * * * * * * //

dimensions      [0 1 -1 0 0 0 0];

internalField   nonuniform List<vector> 
5250
(
(3 1.21539e-08 0)
(2.99999 7.10914e-08 0)
(2.99997 2.77187e-07 0)
(2.99991 6.71678e-07 0)
(2.99978 2.22739e-06 0)
(2.99945 4.93105e-06 0)
(2.99868 1.38918e-05 0)
(2.99668 3.19253e-05 0)
(2.99188 8.06442e-05 0)
(2.97955 0.000193164 0)
(2.94799 0.000480474 0)
(2.86109 0.00125342 0)
(2.60954 0.00341268 0)
(1.87217 0.00976762 0)
(0.869537 0.0265142 0)
(0.443159 0.0243905 0)
(0.535109 0.0244379 0)
(0.560162 0.0262767 0)
(0.505562 0.0281325 0)
(0.414922 0.0300207 0)
(0.33012 0.0322455 0)
(0.261471 0.0348328 0)
(0.192666 0.0375188 0)
(0.114978 0.0405679 0)
(0.0495479 0.0446585 0)
(3 5.41972e-08 0)
(2.99999 1.72562e-07 0)
(2.99997 9.67642e-07 0)
(2.99991 1.75128e-06 0)
(2.99979 7.11567e-06 0)
(2.99946 1.19732e-05 0)
(2.9987 4.70018e-05 0)
(2.99674 7.1157e-05 0)
(2.99201 0.000291395 0)
(2.97989 0.000470833 0)
(2.94887 0.00163327 0)
(2.86355 0.00363617 0)
(2.6165 0.0107098 0)
(1.89092 0.0301988 0)
(0.88019 0.0807783 0)
(0.439878 0.0704037 0)
(0.535198 0.0673097 0)
(0.561448 0.0702986 0)
(0.506544 0.07335 0)
(0.415918 0.0765529 0)
(0.331077 0.0801122 0)
(0.261824 0.0839746 0)
(0.191977 0.0874876 0)
(0.11295 0.0907703 0)
(0.0468878 0.0936013 0)
(3 8.57383e-08 0)
(2.99999 3.08191e-07 0)
(2.99997 1.63501e-06 0)
(2.99992 3.03201e-06 0)
(2.99979 1.17462e-05 0)
(2.99949 2.02043e-05 0)
(2.99873 7.45065e-05 0)
(2.99688 0.000126408 0)
(2.99221 0.000453347 0)
(2.98067 0.00084263 0)
(2.95064 0.00265504 0)
(2.86858 0.00617982 0)
(2.63198 0.0179739 0)
(1.93186 0.0511831 0)
(0.905943 0.13854 0)
(0.437212 0.119596 0)
(0.539094 0.113111 0)
(0.568117 0.118277 0)
(0.513067 0.124056 0)
(0.42273 0.130725 0)
(0.337875 0.137487 0)
(0.267812 0.144535 0)
(0.19655 0.151203 0)
(0.115602 0.157069 0)
(0.0471516 0.160632 0)
(3 8.04945e-08 0)
(2.99999 5.22476e-07 0)
(2.99997 1.86484e-06 0)
(2.99992 5.069e-06 0)
(2.9998 1.37018e-05 0)
(2.99952 3.4538e-05 0)
(2.99879 8.29312e-05 0)
(2.99705 0.000222855 0)
(2.99261 0.000498558 0)
(2.98173 0.00139022 0)
(2.95331 0.00324851 0)
(2.87634 0.00884248 0)
(2.65435 0.0240943 0)
(1.9957 0.0698771 0)
(0.94686 0.192434 0)
(0.437407 0.168216 0)
(0.547953 0.15845 0)
(0.581229 0.165615 0)
(0.52627 0.174254 0)
(0.436317 0.184982 0)
(0.350993 0.195427 0)
(0.27978 0.206213 0)
(0.206584 0.216818 0)
(0.122415 0.226117 0)
(0.049632 0.230954 0)
(3 7.68414e-08 0)
(2.99999 6.90356e-07 0)
(2.99997 1.86454e-06 0)
(2.99993 6.77619e-06 0)
(2.99982 1.43218e-05 0)
(2.99955 4.51075e-05 0)
(2.99888 9.13132e-05 0)
(2.99723 0.000280121 0)
(2.99318 0.000575506 0)
(2.98297 0.00170044 0)
(2.95682 0.0038331 0)
(2.88613 0.0107129 0)
(2.6829 0.0287959 0)
(2.07958 0.0840702 0)
(1.00467 0.238175 0)
(0.446361 0.218138 0)
(0.563689 0.206195 0)
(0.601707 0.213959 0)
(0.547051 0.224521 0)
(0.457471 0.239092 0)
(0.371078 0.253502 0)
(0.298145 0.268577 0)
(0.222283 0.283896 0)
(0.133497 0.297727 0)
(0.0542797 0.304868 0)
(3 1.10608e-07 0)
(2.99999 6.47972e-07 0)
(2.99997 2.34768e-06 0)
(2.99993 6.36655e-06 0)
(2.99983 1.76767e-05 0)
(2.99958 4.22364e-05 0)
(2.99898 0.000113527 0)
(2.99746 0.000262314 0)
(2.99379 0.000703841 0)
(2.98444 0.00164168 0)
(2.96084 0.00435521 0)
(2.89718 0.0110133 0)
(2.71606 0.0306333 0)
(2.1793 0.088288 0)
(1.08668 0.25802 0)
(0.479185 0.263077 0)
(0.591801 0.256658 0)
(0.632045 0.264699 0)
(0.577685 0.276417 0)
(0.488512 0.29455 0)
(0.400244 0.313511 0)
(0.324745 0.333811 0)
(0.245319 0.355248 0)
(0.150242 0.375695 0)
(0.0619064 0.387512 0)
(3 1.06294e-07 0)
(2.99999 6.09639e-07 0)
(2.99998 2.28322e-06 0)
(2.99994 5.97958e-06 0)
(2.99985 1.68325e-05 0)
(2.99963 4.01763e-05 0)
(2.99907 0.00010527 0)
(2.99772 0.00025195 0)
(2.99433 0.00064134 0)
(2.98601 0.00156666 0)
(2.96464 0.00396466 0)
(2.90806 0.0101497 0)
(2.74793 0.027572 0)
(2.27646 0.0785124 0)
(1.18627 0.232452 0)
(0.528536 0.296165 0)
(0.624522 0.3092 0)
(0.664528 0.316889 0)
(0.613074 0.329427 0)
(0.527012 0.351532 0)
(0.438186 0.376193 0)
(0.360466 0.403068 0)
(0.277547 0.432586 0)
(0.175231 0.463085 0)
(0.074401 0.484652 0)
(3 9.36097e-08 0)
(2.99999 5.99864e-07 0)
(2.99998 2.00551e-06 0)
(2.99994 5.86226e-06 0)
(2.99986 1.49313e-05 0)
(2.99965 3.82879e-05 0)
(2.99916 9.51768e-05 0)
(2.9979 0.000231882 0)
(2.99489 0.000585213 0)
(2.98721 0.00140996 0)
(2.96799 0.00358352 0)
(2.91687 0.00901612 0)
(2.77296 0.0241919 0)
(2.34948 0.0676692 0)
(1.28869 0.199724 0)
(0.574441 0.336621 0)
(0.63943 0.370271 0)
(0.679239 0.368805 0)
(0.640431 0.381494 0)
(0.564968 0.407941 0)
(0.480532 0.440298 0)
(0.403964 0.475986 0)
(0.320325 0.516619 0)
(0.212457 0.562599 0)
(0.0956002 0.605253 0)
(3 9.17204e-08 0)
(2.99999 6.02025e-07 0)
(2.99998 1.96346e-06 0)
(2.99995 5.8484e-06 0)
(2.99987 1.4593e-05 0)
(2.99969 3.76645e-05 0)
(2.99923 9.39896e-05 0)
(2.99813 0.000225639 0)
(2.99531 0.000581779 0)
(2.98851 0.00136531 0)
(2.97099 0.00352722 0)
(2.92516 0.00876002 0)
(2.79666 0.023412 0)
(2.41887 0.0653548 0)
(1.41868 0.192516 0)
(0.65469 0.386385 0)
(0.647447 0.419035 0)
(0.677698 0.415234 0)
(0.660769 0.431718 0)
(0.601382 0.461356 0)
(0.526391 0.502991 0)
(0.455263 0.550006 0)
(0.376364 0.605092 0)
(0.270443 0.676647 0)
(0.134112 0.764374 0)
(3 8.34652e-08 0)
(2.99999 6.14309e-07 0)
(2.99998 1.9229e-06 0)
(2.99995 5.98203e-06 0)
(2.99989 1.43148e-05 0)
(2.99972 3.98412e-05 0)
(2.99932 8.87618e-05 0)
(2.99831 0.000248384 0)
(2.99584 0.000537 0)
(2.98966 0.00150769 0)
(2.97416 0.00338469 0)
(2.93336 0.00916704 0)
(2.82022 0.0234402 0)
(2.48885 0.0661981 0)
(1.57235 0.193053 0)
(0.755283 0.434616 0)
(0.654746 0.451357 0)
(0.682849 0.453621 0)
(0.680796 0.476643 0)
(0.637433 0.510504 0)
(0.577045 0.560697 0)
(0.515947 0.619862 0)
(0.451976 0.696374 0)
(0.366462 0.81304 0)
(0.206822 1.02383 0)
(3 1.01917e-07 0)
(2.99999 5.74008e-07 0)
(2.99998 2.14402e-06 0)
(2.99996 5.63861e-06 0)
(2.9999 1.58849e-05 0)
(2.99975 3.78066e-05 0)
(2.9994 0.00010006 0)
(2.99851 0.000233349 0)
(2.99636 0.000611335 0)
(2.99088 0.00143534 0)
(2.97737 0.0037321 0)
(2.94189 0.00915415 0)
(2.84407 0.0245091 0)
(2.56034 0.0676603 0)
(1.74653 0.196948 0)
(0.874659 0.482915 0)
(0.664044 0.485549 0)
(0.695149 0.488267 0)
(0.706075 0.51321 0)
(0.67673 0.553131 0)
(0.632728 0.6091 0)
(0.590592 0.679793 0)
(0.561283 0.776781 0)
(0.560992 0.925066 0)
(0.602522 1.17564 0)
(3 9.52539e-08 0)
(2.99999 6.24797e-07 0)
(2.99999 2.06358e-06 0)
(2.99997 6.09821e-06 0)
(2.99991 1.53573e-05 0)
(2.99979 4.02201e-05 0)
(2.99948 9.82174e-05 0)
(2.99874 0.000246559 0)
(2.99684 0.000612105 0)
(2.99226 0.00150817 0)
(2.98059 0.00378401 0)
(2.95069 0.00953202 0)
(2.869 0.0249393 0)
(2.63298 0.0691626 0)
(1.94307 0.20005 0)
(1.01627 0.52611 0)
(0.684002 0.523576 0)
(0.716256 0.524334 0)
(0.738431 0.544443 0)
(0.721818 0.588079 0)
(0.693984 0.647642 0)
(0.674841 0.726067 0)
(0.681996 0.831978 0)
(0.744765 0.977894 0)
(0.899454 1.16953 0)
(3 9.27724e-08 0)
(3 5.96069e-07 0)
(2.99999 2.03413e-06 0)
(2.99997 5.83026e-06 0)
(2.99993 1.51608e-05 0)
(2.99982 3.897e-05 0)
(2.99957 9.59292e-05 0)
(2.99893 0.000243677 0)
(2.99741 0.000591409 0)
(2.99353 0.00150243 0)
(2.98406 0.00369749 0)
(2.95952 0.00939116 0)
(2.89393 0.0244312 0)
(2.70696 0.0672277 0)
(2.15478 0.194644 0)
(1.18938 0.544798 0)
(0.734854 0.565907 0)
(0.754373 0.570489 0)
(0.781199 0.578204 0)
(0.775987 0.618494 0)
(0.760957 0.678533 0)
(0.761907 0.756984 0)
(0.795069 0.857735 0)
(0.884853 0.980141 0)
(1.06235 1.10107 0)
(3 8.76793e-08 0)
(3 4.96385e-07 0)
(2.99999 1.86621e-06 0)
(2.99998 4.85003e-06 0)
(2.99994 1.3836e-05 0)
(2.99986 3.24843e-05 0)
(2.99965 8.72989e-05 0)
(2.99915 0.000201986 0)
(2.99789 0.00053142 0)
(2.99485 0.00124787 0)
(2.98717 0.0032377 0)
(2.968 0.00787611 0)
(2.91729 0.0205893 0)
(2.77601 0.0552017 0)
(2.36613 0.157926 0)
(1.40913 0.46669 0)
(0.836245 0.589409 0)
(0.814438 0.613892 0)
(0.832451 0.620112 0)
(0.838979 0.650309 0)
(0.832921 0.704301 0)
(0.845327 0.775405 0)
(0.892171 0.861361 0)
(0.988253 0.9565 0)
(1.15643 1.03401 0)
(3 7.10936e-08 0)
(3 4.31344e-07 0)
(2.99999 1.54028e-06 0)
(2.99998 4.19825e-06 0)
(2.99995 1.13638e-05 0)
(2.99988 2.76814e-05 0)
(2.99972 7.06523e-05 0)
(2.9993 0.00017037 0)
(2.99829 0.000423918 0)
(2.99578 0.00103625 0)
(2.98958 0.00254622 0)
(2.974 0.00631858 0)
(2.93324 0.0159254 0)
(2.82094 0.041789 0)
(2.49527 0.11611 0)
(1.62504 0.345152 0)
(0.934043 0.623445 0)
(0.855557 0.655904 0)
(0.872152 0.667646 0)
(0.892031 0.684529 0)
(0.899577 0.727311 0)
(0.920433 0.786887 0)
(0.972786 0.856139 0)
(1.06655 0.927681 0)
(1.2169 0.98108 0)
(3 5.93026e-08 0)
(3 3.82016e-07 0)
(2.99999 1.29107e-06 0)
(2.99998 3.72785e-06 0)
(2.99996 9.58794e-06 0)
(2.99991 2.45198e-05 0)
(2.99977 6.01948e-05 0)
(2.99944 0.000149944 0)
(2.99861 0.000365998 0)
(2.99662 0.000905986 0)
(2.99157 0.00222348 0)
(2.97914 0.00553226 0)
(2.9467 0.0138589 0)
(2.85846 0.0362167 0)
(2.60433 0.0996685 0)
(1.87905 0.290614 0)
(1.0838 0.66549 0)
(0.885773 0.691521 0)
(0.899094 0.704038 0)
(0.930017 0.712325 0)
(0.955278 0.745363 0)
(0.984836 0.794095 0)
(1.03924 0.849147 0)
(1.12766 0.902728 0)
(1.25953 0.941004 0)
(3 4.98793e-08 0)
(3 3.38876e-07 0)
(3 1.10178e-06 0)
(2.99999 3.30542e-06 0)
(2.99997 8.2461e-06 0)
(2.99993 2.183e-05 0)
(2.99982 5.23435e-05 0)
(2.99956 0.000134218 0)
(2.99892 0.000322607 0)
(2.99733 0.000815433 0)
(2.99343 0.001992 0)
(2.98368 0.00500078 0)
(2.9588 0.012537 0)
(2.8921 0.0326028 0)
(2.70223 0.0893716 0)
(2.14467 0.258476 0)
(1.27849 0.680843 0)
(0.936154 0.723571 0)
(0.933589 0.732366 0)
(0.966254 0.735971 0)
(1.00473 0.757879 0)
(1.04106 0.79731 0)
(1.09526 0.841796 0)
(1.17706 0.882805 0)
(1.29235 0.910814 0)
(3 4.19515e-08 0)
(3 2.81435e-07 0)
(3 9.18564e-07 0)
(2.99999 2.74873e-06 0)
(2.99998 6.83898e-06 0)
(2.99994 1.81128e-05 0)
(2.99986 4.31887e-05 0)
(2.99967 0.00011095 0)
(2.99918 0.000265592 0)
(2.99801 0.000670334 0)
(2.99506 0.00162804 0)
(2.98792 0.00408466 0)
(2.96974 0.0100931 0)
(2.9224 0.0260841 0)
(2.7922 0.0697433 0)
(2.41405 0.199695 0)
(1.54861 0.577145 0)
(1.04677 0.730719 0)
(0.993685 0.754976 0)
(1.01186 0.76373 0)
(1.0534 0.773505 0)
(1.0945 0.801658 0)
(1.14601 0.836355 0)
(1.21975 0.867806 0)
(1.32013 0.88841 0)
(3 3.49354e-08 0)
(3 2.09294e-07 0)
(3 7.53868e-07 0)
(2.99999 2.04631e-06 0)
(2.99998 5.53631e-06 0)
(2.99996 1.36091e-05 0)
(2.9999 3.42853e-05 0)
(2.99974 8.36958e-05 0)
(2.99938 0.000204897 0)
(2.99846 0.000508569 0)
(2.99628 0.00122125 0)
(2.99074 0.00307128 0)
(2.97714 0.00742984 0)
(2.94164 0.0188582 0)
(2.84528 0.0489357 0)
(2.5692 0.134769 0)
(1.81901 0.400737 0)
(1.16678 0.735882 0)
(1.04257 0.775842 0)
(1.05058 0.793102 0)
(1.09185 0.795497 0)
(1.13973 0.810657 0)
(1.19058 0.83512 0)
(1.25731 0.858294 0)
(1.34503 0.872916 0)
(3 2.87101e-08 0)
(3 1.67023e-07 0)
(3 6.10746e-07 0)
(2.99999 1.63223e-06 0)
(2.99999 4.49651e-06 0)
(2.99997 1.07992e-05 0)
(2.99992 2.81789e-05 0)
(2.99981 6.62917e-05 0)
(2.99953 0.000170581 0)
(2.99886 0.000402096 0)
(2.99719 0.00102481 0)
(2.9931 0.00245226 0)
(2.98286 0.0062147 0)
(2.95687 0.0153277 0)
(2.88674 0.0400278 0)
(2.68877 0.108605 0)
(2.11173 0.317036 0)
(1.34799 0.755062 0)
(1.09206 0.807565 0)
(1.08559 0.820382 0)
(1.12143 0.819061 0)
(1.17538 0.821152 0)
(1.22867 0.836245 0)
(1.29041 0.852714 0)
(1.36792 0.862699 0)
(3 2.09749e-08 0)
(3 1.37213e-07 0)
(3 4.56471e-07 0)
(3 1.33618e-06 0)
(2.99999 3.39801e-06 0)
(2.99998 8.7587e-06 0)
(2.99994 2.14182e-05 0)
(2.99986 5.34162e-05 0)
(2.99966 0.000130799 0)
(2.99918 0.000321134 0)
(2.99799 0.00079398 0)
(2.99506 0.00193924 0)
(2.98787 0.00484807 0)
(2.96979 0.0119883 0)
(2.92259 0.0308227 0)
(2.79361 0.082487 0)
(2.41783 0.236396 0)
(1.62392 0.653312 0)
(1.1964 0.809979 0)
(1.14131 0.835109 0)
(1.15848 0.84138 0)
(1.20887 0.835926 0)
(1.2645 0.84085 0)
(1.32191 0.850582 0)
(1.39037 0.856525 0)
(3 1.5385e-08 0)
(3 1.04231e-07 0)
(3 3.38174e-07 0)
(3 1.01366e-06 0)
(2.99999 2.51246e-06 0)
(2.99998 6.62239e-06 0)
(2.99996 1.57617e-05 0)
(2.9999 4.01027e-05 0)
(2.99975 9.55789e-05 0)
(2.99941 0.000238722 0)
(2.99854 0.000576929 0)
(2.99647 0.00141698 0)
(2.99124 0.00348236 0)
(2.97847 0.00854356 0)
(2.94534 0.0214616 0)
(2.85631 0.0557548 0)
(2.60287 0.153393 0)
(1.92265 0.451597 0)
(1.32723 0.797585 0)
(1.19472 0.845546 0)
(1.19539 0.864055 0)
(1.23684 0.858703 0)
(1.29422 0.851536 0)
(1.35043 0.852771 0)
(1.41241 0.854426 0)
(3 1.20179e-08 0)
(3 7.61015e-08 0)
(3 2.62774e-07 0)
(3 7.43532e-07 0)
(3 1.93823e-06 0)
(2.99999 4.92198e-06 0)
(2.99997 1.20537e-05 0)
(2.99993 3.00926e-05 0)
(2.99983 7.24809e-05 0)
(2.99958 0.000180975 0)
(2.99897 0.000433801 0)
(2.99748 0.00108562 0)
(2.99381 0.00261332 0)
(2.98474 0.00656014 0)
(2.96178 0.0161431 0)
(2.90077 0.0417315 0)
(2.73086 0.112218 0)
(2.23593 0.326434 0)
(1.52876 0.773033 0)
(1.26048 0.863454 0)
(1.23666 0.882419 0)
(1.26074 0.881268 0)
(1.31495 0.867727 0)
(1.37409 0.860471 0)
(1.4332 0.857129 0)
(3 9.29594e-09 0)
(3 5.47828e-08 0)
(3 1.98959e-07 0)
(3 5.33591e-07 0)
(3 1.46265e-06 0)
(2.99999 3.52692e-06 0)
(2.99998 9.09126e-06 0)
(2.99995 2.16052e-05 0)
(2.99988 5.44233e-05 0)
(2.99971 0.000130483 0)
(2.99929 0.000323418 0)
(2.99829 0.000788488 0)
(2.9958 0.00192987 0)
(2.98974 0.00478598 0)
(2.97457 0.0117804 0)
(2.93571 0.0299585 0)
(2.83057 0.0791652 0)
(2.52811 0.22387 0)
(1.82614 0.622387 0)
(1.37856 0.854279 0)
(1.29399 0.887255 0)
(1.297 0.897955 0)
(1.3388 0.886268 0)
(1.39625 0.871352 0)
(1.45316 0.863112 0)
(3 6.29226e-09 0)
(3 4.06849e-08 0)
(3 1.36564e-07 0)
(3 3.95321e-07 0)
(3 1.00805e-06 0)
(2.99999 2.58417e-06 0)
(2.99999 6.27906e-06 0)
(2.99997 1.56595e-05 0)
(2.99992 3.7827e-05 0)
(2.9998 9.3337e-05 0)
(2.99952 0.000225837 0)
(2.99882 0.000554964 0)
(2.99714 0.00135085 0)
(2.99295 0.00331414 0)
(2.98271 0.00815688 0)
(2.95661 0.0202765 0)
(2.88734 0.0521948 0)
(2.6938 0.141211 0)
(2.14953 0.41257 0)
(1.54116 0.833044 0)
(1.3505 0.899867 0)
(1.33411 0.913226 0)
(1.35937 0.905723 0)
(1.41336 0.885739 0)
(1.47133 0.871407 0)
(3 4.44804e-09 0)
(3 2.88299e-08 0)
(3 9.62756e-08 0)
(3 2.80466e-07 0)
(3 7.11387e-07 0)
(3 1.8267e-06 0)
(2.99999 4.44536e-06 0)
(2.99998 1.10075e-05 0)
(2.99995 2.68585e-05 0)
(2.99987 6.52806e-05 0)
(2.99968 0.000160995 0)
(2.99923 0.000386206 0)
(2.9981 0.000963497 0)
(2.99541 0.00230099 0)
(2.9887 0.00578397 0)
(2.97219 0.0140445 0)
(2.92934 0.0359765 0)
(2.81423 0.0947628 0)
(2.48036 0.271562 0)
(1.81379 0.698766 0)
(1.45086 0.8825 0)
(1.38667 0.912961 0)
(1.39102 0.919759 0)
(1.43279 0.903497 0)
(1.4889 0.881355 0)
(3 2.97725e-09 0)
(3 1.99008e-08 0)
(3 6.56231e-08 0)
(3 1.92898e-07 0)
(3 4.83678e-07 0)
(3 1.25978e-06 0)
(2.99999 2.99413e-06 0)
(2.99999 7.6208e-06 0)
(2.99996 1.78993e-05 0)
(2.99991 4.51886e-05 0)
(2.99979 0.000106407 0)
(2.99949 0.000266067 0)
(2.99873 0.000633159 0)
(2.99696 0.0015677 0)
(2.9925 0.00378488 0)
(2.98169 0.00935115 0)
(2.95401 0.0231455 0)
(2.88111 0.0595871 0)
(2.67622 0.162106 0)
(2.12748 0.463435 0)
(1.59238 0.848192 0)
(1.44103 0.915009 0)
(1.42598 0.929885 0)
(1.44986 0.922006 0)
(1.50108 0.89705 0)
(3 2.0614e-09 0)
(3 1.33657e-08 0)
(3 4.52075e-08 0)
(3 1.2955e-07 0)
(3 3.32664e-07 0)
(3 8.481e-07 0)
(3 2.05441e-06 0)
(2.99999 5.14399e-06 0)
(2.99998 1.22381e-05 0)
(2.99994 3.0567e-05 0)
(2.99986 7.25723e-05 0)
(2.99966 0.000180824 0)
(2.99919 0.000430129 0)
(2.99803 0.00106899 0)
(2.99518 0.00256741 0)
(2.98828 0.00636255 0)
(2.97097 0.0156043 0)
(2.92644 0.0395172 0)
(2.8063 0.104487 0)
(2.45891 0.298361 0)
(1.84101 0.72924 0)
(1.52768 0.899151 0)
(1.47163 0.929924 0)
(1.4759 0.936249 0)
(1.5151 0.918182 0)
(3 1.45569e-09 0)
(3 8.68883e-09 0)
(3 3.10946e-08 0)
(3 8.42436e-08 0)
(3 2.27914e-07 0)
(3 5.50929e-07 0)
(3 1.40907e-06 0)
(2.99999 3.32952e-06 0)
(2.99998 8.38187e-06 0)
(2.99996 1.97806e-05 0)
(2.99991 4.93603e-05 0)
(2.99979 0.000117509 0)
(2.99947 0.000289571 0)
(2.99874 0.00069789 0)
(2.99691 0.00170376 0)
(2.99255 0.00416441 0)
(2.98155 0.0101922 0)
(2.95423 0.0253933 0)
(2.88174 0.0652996 0)
(2.67835 0.178387 0)
(2.15268 0.500744 0)
(1.66606 0.862936 0)
(1.52625 0.931116 0)
(1.50894 0.946003 0)
(1.5283 0.938131 0)
(3 9.52834e-10 0)
(3 5.82528e-09 0)
(3 2.04565e-08 0)
(3 5.65345e-08 0)
(3 1.49835e-07 0)
(3 3.69363e-07 0)
(3 9.23587e-07 0)
(3 2.22635e-06 0)
(2.99999 5.48042e-06 0)
(2.99998 1.3201e-05 0)
(2.99994 3.22191e-05 0)
(2.99987 7.80373e-05 0)
(2.99967 0.000188964 0)
(2.99921 0.00046082 0)
(2.99807 0.00111036 0)
(2.99535 0.0027282 0)
(2.98861 0.00660003 0)
(2.97209 0.0163908 0)
(2.92944 0.0410565 0)
(2.81538 0.10846 0)
(2.4879 0.308719 0)
(1.91193 0.731781 0)
(1.61279 0.909237 0)
(1.55367 0.942776 0)
(1.55312 0.949648 0)
(3 5.88435e-10 0)
(3 3.89168e-09 0)
(3 1.29515e-08 0)
(3 3.76014e-08 0)
(3 9.51941e-08 0)
(3 2.44565e-07 0)
(3 5.85121e-07 0)
(3 1.4725e-06 0)
(2.99999 3.46811e-06 0)
(2.99999 8.70399e-06 0)
(2.99996 2.04137e-05 0)
(2.99992 5.10417e-05 0)
(2.99979 0.000120237 0)
(2.99951 0.000298691 0)
(2.99879 0.000709104 0)
(2.99712 0.00174958 0)
(2.99292 0.00420604 0)
(2.98283 0.0103781 0)
(2.95718 0.0255505 0)
(2.89049 0.0655147 0)
(2.70393 0.177781 0)
(2.22232 0.492291 0)
(1.75472 0.865273 0)
(1.60789 0.940369 0)
(1.58556 0.956023 0)
(3 3.87182e-10 0)
(3 2.43179e-09 0)
(3 8.40817e-09 0)
(3 2.35589e-08 0)
(3 6.15518e-08 0)
(3 1.54047e-07 0)
(3 3.7647e-07 0)
(3 9.28355e-07 0)
(3 2.2162e-06 0)
(2.99999 5.4967e-06 0)
(2.99998 1.29603e-05 0)
(2.99995 3.22691e-05 0)
(2.99988 7.58553e-05 0)
(2.9997 0.000189136 0)
(2.99928 0.000444605 0)
(2.99826 0.00110633 0)
(2.9958 0.0026241 0)
(2.98983 0.00651196 0)
(2.97507 0.0157805 0)
(2.93778 0.0397911 0)
(2.83916 0.103763 0)
(2.55766 0.293251 0)
(2.01421 0.702691 0)
(1.70179 0.90441 0)
(1.63336 0.946521 0)
(3 2.4966e-10 0)
(3 1.50608e-09 0)
(3 5.33439e-09 0)
(3 1.45713e-08 0)
(3 3.88723e-08 0)
(3 9.45928e-08 0)
(3 2.38719e-07 0)
(3 5.65701e-07 0)
(3 1.4072e-06 0)
(2.99999 3.32359e-06 0)
(2.99999 8.19335e-06 0)
(2.99997 1.94869e-05 0)
(2.99992 4.75158e-05 0)
(2.99982 0.000113968 0)
(2.99956 0.000275393 0)
(2.99894 0.000666727 0)
(2.99742 0.0015976 0)
(2.99379 0.00390783 0)
(2.9848 0.00939356 0)
(2.96255 0.0233103 0)
(2.90483 0.0584322 0)
(2.74586 0.156807 0)
(2.32463 0.431215 0)
(1.85445 0.827994 0)
(1.68845 0.93056 0)
(3 1.55456e-10 0)
(3 9.43782e-10 0)
(3 3.31475e-09 0)
(3 9.12716e-09 0)
(3 2.41767e-08 0)
(3 5.9005e-08 0)
(3 1.48666e-07 0)
(3 3.51508e-07 0)
(3 8.78284e-07 0)
(3 2.05833e-06 0)
(2.99999 5.11919e-06 0)
(2.99998 1.20478e-05 0)
(2.99996 2.97119e-05 0)
(2.99989 7.04653e-05 0)
(2.99974 0.000172254 0)
(2.99937 0.000412842 0)
(2.99849 0.000998904 0)
(2.99632 0.00242455 0)
(2.9912 0.00584644 0)
(2.97837 0.0144158 0)
(2.94653 0.0355688 0)
(2.86269 0.0923581 0)
(2.62532 0.255485 0)
(2.1244 0.642147 0)
(1.79142 0.890633 0)
(3 9.04027e-11 0)
(3 5.93058e-10 0)
(3 1.96577e-09 0)
(3 5.72975e-09 0)
(3 1.44006e-08 0)
(3 3.6923e-08 0)
(3 8.82966e-08 0)
(3 2.19064e-07 0)
(3 5.21599e-07 0)
(3 1.2731e-06 0)
(3 3.05214e-06 0)
(2.99999 7.35287e-06 0)
(2.99997 1.78304e-05 0)
(2.99994 4.24365e-05 0)
(2.99984 0.000103776 0)
(2.99963 0.000245415 0)
(2.9991 0.000602978 0)
(2.99782 0.00142349 0)
(2.99478 0.00350826 0)
(2.98725 0.00835022 0)
(2.96883 0.0207597 0)
(2.92161 0.0514364 0)
(2.79387 0.13627 0)
(2.4462 0.377429 0)
(1.97751 0.778529 0)
(3 5.59442e-11 0)
(3 3.54225e-10 0)
(3 1.21473e-09 0)
(3 3.42459e-09 0)
(3 8.8537e-09 0)
(3 2.22182e-08 0)
(3 5.39235e-08 0)
(3 1.32493e-07 0)
(3 3.1626e-07 0)
(3 7.7494e-07 0)
(3 1.83875e-06 0)
(2.99999 4.49895e-06 0)
(2.99998 1.07013e-05 0)
(2.99996 2.60674e-05 0)
(2.99991 6.21858e-05 0)
(2.99978 0.000150989 0)
(2.99948 0.000362315 0)
(2.99874 0.000874723 0)
(2.99696 0.00211396 0)
(2.99271 0.00511098 0)
(2.98222 0.0124821 0)
(2.95624 0.0307942 0)
(2.8889 0.0784475 0)
(2.70038 0.213938 0)
(2.26252 0.556258 0)
(3 3.41754e-11 0)
(3 2.10573e-10 0)
(3 7.32564e-10 0)
(3 2.03419e-09 0)
(3 5.32841e-09 0)
(3 1.31169e-08 0)
(3 3.25984e-08 0)
(3 7.77864e-08 0)
(3 1.91475e-07 0)
(3 4.52172e-07 0)
(3 1.11129e-06 0)
(3 2.62326e-06 0)
(2.99999 6.42604e-06 0)
(2.99998 1.5188e-05 0)
(2.99995 3.70958e-05 0)
(2.99988 8.80835e-05 0)
(2.9997 0.000213838 0)
(2.99928 0.000510541 0)
(2.9983 0.00123369 0)
(2.99588 0.00297498 0)
(2.99018 0.00717901 0)
(2.97599 0.0175551 0)
(2.94083 0.0435531 0)
(2.84819 0.112989 0)
(2.5905 0.313524 0)
(3 1.95395e-11 0)
(3 1.26547e-10 0)
(3 4.24512e-10 0)
(3 1.21994e-09 0)
(3 3.09177e-09 0)
(3 7.85946e-09 0)
(3 1.88279e-08 0)
(3 4.6505e-08 0)
(3 1.10136e-07 0)
(3 2.69029e-07 0)
(3 6.39164e-07 0)
(3 1.54677e-06 0)
(2.99999 3.69325e-06 0)
(2.99999 8.87348e-06 0)
(2.99997 2.13463e-05 0)
(2.99993 5.08099e-05 0)
(2.99983 0.000123029 0)
(2.99959 0.000291001 0)
(2.99902 0.000709116 0)
(2.99766 0.00166769 0)
(2.99435 0.00408667 0)
(2.98639 0.00969386 0)
(2.9666 0.0239259 0)
(2.91657 0.0592393 0)
(2.78041 0.157073 0)
(3 1.19026e-11 0)
(3 7.19092e-11 0)
(3 2.54e-10 0)
(3 6.93357e-10 0)
(3 1.84482e-09 0)
(3 4.48165e-09 0)
(3 1.11873e-08 0)
(3 2.65744e-08 0)
(3 6.50224e-08 0)
(3 1.54791e-07 0)
(3 3.7356e-07 0)
(3 8.96349e-07 0)
(3 2.14084e-06 0)
(2.99999 5.18789e-06 0)
(2.99998 1.22487e-05 0)
(2.99996 2.99674e-05 0)
(2.9999 7.03559e-05 0)
(2.99977 0.0001724 0)
(2.99945 0.000405175 0)
(2.9987 0.000991794 0)
(2.99687 0.00234252 0)
(2.99248 0.00573636 0)
(2.98178 0.0137518 0)
(2.95535 0.0341496 0)
(2.88695 0.0863535 0)
(3 6.58425e-12 0)
(3 4.20014e-11 0)
(3 1.43512e-10 0)
(3 4.0363e-10 0)
(3 1.04372e-09 0)
(3 2.59834e-09 0)
(3 6.31546e-09 0)
(3 1.53894e-08 0)
(3 3.66093e-08 0)
(3 8.92991e-08 0)
(3 2.10045e-07 0)
(3 5.14556e-07 0)
(3 1.20446e-06 0)
(3 2.95359e-06 0)
(2.99999 6.90673e-06 0)
(2.99998 1.69131e-05 0)
(2.99995 3.97004e-05 0)
(2.99987 9.66246e-05 0)
(2.9997 0.000228023 0)
(2.99928 0.00055216 0)
(2.9983 0.00131377 0)
(2.99588 0.00316021 0)
(2.99023 0.00762545 0)
(2.9762 0.0184428 0)
(2.9417 0.0457557 0)
(3 3.71733e-12 0)
(3 2.39824e-11 0)
(3 8.08647e-11 0)
(3 2.30727e-10 0)
(3 5.87043e-10 0)
(3 1.48e-09 0)
(3 3.55249e-09 0)
(3 8.71494e-09 0)
(3 2.06217e-08 0)
(3 5.00979e-08 0)
(3 1.1861e-07 0)
(3 2.86235e-07 0)
(3 6.79459e-07 0)
(3 1.63041e-06 0)
(2.99999 3.89247e-06 0)
(2.99999 9.26922e-06 0)
(2.99997 2.22343e-05 0)
(2.99993 5.26825e-05 0)
(2.99983 0.000127037 0)
(2.9996 0.000299072 0)
(2.99904 0.000723697 0)
(2.99773 0.00170449 0)
(2.9945 0.00412675 0)
(2.9869 0.00981804 0)
(2.96793 0.0239494 0)
(3 2.11329e-12 0)
(3 1.32449e-11 0)
(3 4.54302e-11 0)
(3 1.2741e-10 0)
(3 3.29513e-10 0)
(3 8.13935e-10 0)
(3 1.9956e-09 0)
(3 4.76262e-09 0)
(3 1.15604e-08 0)
(3 2.7331e-08 0)
(3 6.61717e-08 0)
(3 1.55893e-07 0)
(3 3.77157e-07 0)
(3 8.89402e-07 0)
(3 2.1442e-06 0)
(2.99999 5.07172e-06 0)
(2.99998 1.21732e-05 0)
(2.99996 2.8934e-05 0)
(2.99991 6.90271e-05 0)
(2.99978 0.000165115 0)
(2.99947 0.000391659 0)
(2.99872 0.000942856 0)
(2.99698 0.00222967 0)
(2.99268 0.0054074 0)
(2.98252 0.0129307 0)
(3 1.13411e-12 0)
(3 7.1036e-12 0)
(3 2.43718e-11 0)
(3 6.82492e-11 0)
(3 1.7588e-10 0)
(3 4.36273e-10 0)
(3 1.05398e-09 0)
(3 2.55394e-09 0)
(3 6.0455e-09 0)
(3 1.46148e-08 0)
(3 3.4282e-08 0)
(3 8.2892e-08 0)
(3 1.93771e-07 0)
(3 4.68675e-07 0)
(3 1.09436e-06 0)
(3 2.64106e-06 0)
(2.99999 6.17907e-06 0)
(2.99998 1.48489e-05 0)
(2.99994 3.48674e-05 0)
(2.99987 8.32223e-05 0)
(2.99969 0.000196856 0)
(2.99926 0.000465322 0)
(2.99822 0.00111242 0)
(2.99581 0.00260937 0)
(2.98984 0.00630227 0)
(3 5.957e-13 0)
(3 3.62103e-12 0)
(3 1.26301e-11 0)
(3 3.46155e-11 0)
(3 9.06873e-11 0)
(3 2.18598e-10 0)
(3 5.42867e-10 0)
(3 1.25711e-09 0)
(3 3.09929e-09 0)
(3 7.06512e-09 0)
(3 1.73456e-08 0)
(3 3.95404e-08 0)
(3 9.62322e-08 0)
(3 2.20361e-07 0)
(3 5.29794e-07 0)
(3 1.22713e-06 0)
(2.99999 2.89449e-06 0)
(2.99998 6.79477e-06 0)
(2.99996 1.5721e-05 0)
(2.99991 3.74845e-05 0)
(2.99979 8.46175e-05 0)
(2.99948 0.000204561 0)
(2.99877 0.000454128 0)
(2.997 0.0011042 0)
(2.99281 0.0024255 0)
(3 2.59811e-13 0)
(3 1.84306e-12 0)
(3 5.90472e-12 0)
(3 1.73533e-11 0)
(3 4.25069e-11 0)
(3 1.09005e-10 0)
(3 2.51837e-10 0)
(3 6.19666e-10 0)
(3 1.4181e-09 0)
(3 3.41407e-09 0)
(3 7.87422e-09 0)
(3 1.84821e-08 0)
(3 4.34362e-08 0)
(3 9.91939e-08 0)
(3 2.37181e-07 0)
(3 5.27975e-07 0)
(2.99999 1.28545e-06 0)
(2.99999 2.78988e-06 0)
(2.99997 6.85237e-06 0)
(2.99993 1.46601e-05 0)
(2.99983 3.59004e-05 0)
(2.99957 7.66087e-05 0)
(2.99897 0.00018362 0)
(2.99745 0.000396428 0)
(2.99384 0.00091936 0)
(3 1.27993e-13 0)
(3 8.31284e-13 0)
(3 2.78585e-12 0)
(3 8.12084e-12 0)
(3 1.96462e-11 0)
(3 5.0945e-11 0)
(3 1.13459e-10 0)
(3 2.89769e-10 0)
(3 6.20266e-10 0)
(3 1.57991e-09 0)
(3 3.35085e-09 0)
(3 8.41807e-09 0)
(3 1.80265e-08 0)
(3 4.38966e-08 0)
(3 9.68423e-08 0)
(3 2.24e-07 0)
(3 5.20544e-07 0)
(2.99999 1.11733e-06 0)
(2.99997 2.76439e-06 0)
(2.99993 5.46372e-06 0)
(2.99984 1.44966e-05 0)
(2.99961 2.6238e-05 0)
(2.99903 7.39939e-05 0)
(2.99762 0.000123594 0)
(2.99416 0.00036307 0)
(3 9.3144e-14 0)
(3 3.43518e-13 0)
(3 1.38632e-12 0)
(3 3.28556e-12 0)
(3 9.56624e-12 0)
(3 2.01241e-11 0)
(3 5.41739e-11 0)
(3 1.12588e-10 0)
(3 2.86049e-10 0)
(3 6.14032e-10 0)
(3 1.4545e-09 0)
(3 3.35043e-09 0)
(3 7.22132e-09 0)
(3 1.79506e-08 0)
(3 3.55461e-08 0)
(3 9.49861e-08 0)
(3 1.74168e-07 0)
(2.99999 4.93628e-07 0)
(2.99997 8.43217e-07 0)
(2.99994 2.5299e-06 0)
(2.99984 4.06519e-06 0)
(2.99962 1.25255e-05 0)
(2.99905 1.94343e-05 0)
(2.99769 5.92308e-05 0)
(2.99422 9.31108e-05 0)
(3 2.96503e-14 0)
(3 1.29833e-13 0)
(3 6.54151e-13 0)
(3 1.11643e-12 0)
(3 4.61626e-12 0)
(3 7.23989e-12 0)
(3 2.68698e-11 0)
(3 3.91457e-11 0)
(3 1.44742e-10 0)
(3 2.09163e-10 0)
(3 7.44473e-10 0)
(3 1.1458e-09 0)
(3 3.56935e-09 0)
(3 6.54471e-09 0)
(3 1.60598e-08 0)
(3 3.86401e-08 0)
(3 6.40497e-08 0)
(2.99999 2.27572e-07 0)
(2.99997 2.25853e-07 0)
(2.99994 1.33041e-06 0)
(2.99985 5.59366e-07 0)
(2.99962 7.47637e-06 0)
(2.99907 4.48641e-07 0)
(2.99768 4.03688e-05 0)
(2.99433 -3.74145e-06 0)
(3 -2.3463e-14 0)
(3 9.62077e-14 0)
(3 1.10539e-13 0)
(3 9.46724e-13 0)
(3 8.05476e-13 0)
(3 5.99099e-12 0)
(3 4.42813e-12 0)
(3 3.36601e-11 0)
(3 2.49905e-11 0)
(3 1.72121e-10 0)
(3 1.60408e-10 0)
(3 8.03287e-10 0)
(3 1.12758e-09 0)
(3 3.35668e-09 0)
(3 8.08856e-09 0)
(3 1.11672e-08 0)
(3 5.42735e-08 0)
(2.99999 2.19751e-08 0)
(2.99997 3.62783e-07 0)
(2.99994 -9.24634e-08 0)
(2.99985 2.27273e-06 0)
(2.99962 -1.46553e-06 0)
(2.99908 1.35497e-05 0)
(2.99769 -1.02903e-05 0)
(2.99435 7.14087e-05 0)
(3 4.43188e-16 0)
(3 5.4973e-14 0)
(3 -3.23921e-14 0)
(3 4.94599e-13 0)
(3 -3.62227e-13 0)
(3 2.79642e-12 0)
(3 -2.62175e-12 0)
(3 1.5825e-11 0)
(3 -1.56974e-11 0)
(3 8.13389e-11 0)
(3 -7.2936e-11 0)
(3 3.42511e-10 0)
(3 -1.16669e-10 0)
(3 1.06385e-09 0)
(3 1.4835e-09 0)
(3 -2.76924e-10 0)
(3 2.30836e-08 0)
(2.99999 -3.34816e-08 0)
(2.99997 2.05535e-07 0)
(2.99994 -3.71178e-07 0)
(2.99985 1.56602e-06 0)
(2.99963 -2.80166e-06 0)
(2.99907 9.79939e-06 0)
(2.99773 -1.7393e-05 0)
(2.9943 5.31011e-05 0)
(1.27474 1.08026 0)
(1.66656 0.876666 0)
(1.7813 0.621583 0)
(1.65391 0.340958 0)
(1.22843 0.133023 0)
(0.637075 0.151244 0)
(0.21589 0.220377 0)
(0.00376049 0.191542 0)
(-0.215796 0.100631 0)
(-0.35036 0.0577873 0)
(-0.470044 0.0333607 0)
(-0.573918 0.0105588 0)
(-0.653259 -0.00488975 0)
(-0.708035 -0.0104382 0)
(-0.744581 -0.0051217 0)
(-0.775201 0.00271658 0)
(-0.807849 0.00903297 0)
(-0.844931 0.0123804 0)
(-0.883288 0.0120042 0)
(-0.919952 0.0093775 0)
(-0.954493 0.0062927 0)
(-0.987691 0.00313572 0)
(-1.02178 0.000860262 0)
(-1.0533 0.00157618 0)
(-1.07397 0.00204821 0)
(-1.08364 0.00125768 0)
(-1.0872 -0.000205562 0)
(-1.07964 -0.00222349 0)
(-1.05214 -0.0058085 0)
(-1.00439 -0.0105092 0)
(-0.938997 -0.0154244 0)
(-0.861301 -0.0196776 0)
(-0.77621 -0.0230195 0)
(-0.687321 -0.0258315 0)
(-0.599031 -0.0275747 0)
(-0.513797 -0.0286367 0)
(-0.432716 -0.0297518 0)
(-0.355078 -0.031082 0)
(-0.279464 -0.033406 0)
(-0.207523 -0.0341248 0)
(-0.138591 -0.034533 0)
(-0.0728218 -0.0364143 0)
(-0.00588654 -0.0375682 0)
(0.0597155 -0.0326882 0)
(0.117062 -0.0298285 0)
(0.172473 -0.0283103 0)
(0.224855 -0.0270078 0)
(0.274424 -0.0256912 0)
(0.320421 -0.0242452 0)
(0.364959 -0.0233904 0)
(0.411116 -0.0234132 0)
(0.456832 -0.0226957 0)
(0.500278 -0.02167 0)
(0.541749 -0.0205898 0)
(0.5818 -0.0196615 0)
(0.620552 -0.0187711 0)
(0.658163 -0.0179632 0)
(0.694636 -0.0171462 0)
(0.730083 -0.016394 0)
(0.764493 -0.0156367 0)
(0.797969 -0.0149334 0)
(0.830508 -0.0142331 0)
(0.862187 -0.013581 0)
(0.893002 -0.012937 0)
(0.923017 -0.0123361 0)
(0.95223 -0.0117474 0)
(0.980689 -0.0111973 0)
(1.00839 -0.0106617 0)
(1.03538 -0.0101611 0)
(1.06164 -0.00967702 0)
(1.08722 -0.00922634 0)
(1.11208 -0.00879599 0)
(1.13626 -0.00840041 0)
(1.15972 -0.00803171 0)
(1.18247 -0.00770196 0)
(1.20446 -0.00740835 0)
(1.22567 -0.00716105 0)
(1.24604 -0.00696521 0)
(1.26552 -0.00682633 0)
(1.28404 -0.00675063 0)
(1.30153 -0.00674674 0)
(1.3179 -0.00682286 0)
(1.33307 -0.00698583 0)
(1.34692 -0.0072364 0)
(1.35933 -0.0075737 0)
(1.3698 -0.0079588 0)
(1.37867 -0.00840269 0)
(1.38683 -0.00887243 0)
(1.39418 -0.00938326 0)
(1.40016 -0.00991698 0)
(1.40457 -0.0103855 0)
(1.40779 -0.0106957 0)
(1.41027 -0.0107969 0)
(1.41246 -0.0106459 0)
(1.41482 -0.0102571 0)
(1.4177 -0.00966631 0)
(1.42127 -0.00890443 0)
(1.42562 -0.00803692 0)
(1.42976 -0.00706739 0)
(1.441 -0.0065398 0)
(1.36711 0.991364 0)
(1.66902 0.707928 0)
(1.79512 0.40662 0)
(1.78914 0.171964 0)
(1.70368 0.0189569 0)
(1.42972 0.0586978 0)
(1.02985 0.209936 0)
(0.767401 0.237608 0)
(0.591745 0.21525 0)
(0.446692 0.184288 0)
(0.308768 0.159663 0)
(0.180995 0.139132 0)
(0.0671037 0.118635 0)
(-0.0545764 0.0927433 0)
(-0.174199 0.0651561 0)
(-0.283111 0.0499333 0)
(-0.38359 0.0442862 0)
(-0.467824 0.0410483 0)