/*--------------------------------*- C++ -*----------------------------------*\
  =========                 |
  \\      /  F ield         | OpenFOAM: The Open Source CFD Toolbox
   \\    /   O peration     | Website:  https://openfoam.org
    \\  /    A nd           | Version:  10
     \\/     M anipulation  |
\*---------------------------------------------------------------------------*/
FoamFile
{
    format      ascii;
    class       volScalarField;
    location    "0.86";
    object      N1;
}
// * * * * * * * * * * * * * * * * * * * * * * * * * * * * * * * * * * * * * //

dimensions      [0 0 0 0 0 0 0];

internalField   nonuniform List<scalar> 
8000
(
3.31434e-14
9.92958e-14
1.65094e-13
2.30357e-13
2.94931e-13
3.58681e-13
4.21488e-13
4.83247e-13
5.43868e-13
6.03273e-13
6.61392e-13
7.18171e-13
7.73561e-13
8.27527e-13
8.80038e-13
9.31075e-13
9.80624e-13
1.02868e-12
1.07524e-12
1.12031e-12
1.16389e-12
1.20601e-12
1.24669e-12
1.28593e-12
1.32377e-12
1.36023e-12
1.39534e-12
1.42914e-12
1.46164e-12
1.49288e-12
1.52291e-12
1.55173e-12
1.57941e-12
1.60595e-12
1.63141e-12
1.6558e-12
1.67917e-12
1.70155e-12
1.72296e-12
1.74344e-12
1.76302e-12
1.78173e-12
1.79959e-12
1.81664e-12
1.83289e-12
1.84839e-12
1.86314e-12
1.87719e-12
1.89054e-12
1.90322e-12
1.91526e-12
1.92667e-12
1.93748e-12
1.9477e-12
1.95736e-12
1.96646e-12
1.97503e-12
1.98309e-12
1.99064e-12
1.99771e-12
2.00431e-12
2.01045e-12
2.01614e-12
2.0214e-12
2.02625e-12
2.03068e-12
2.03472e-12
2.03837e-12
2.04164e-12
2.04455e-12
2.0471e-12
2.0493e-12
2.05116e-12
2.05269e-12
2.0539e-12
2.05479e-12
2.05537e-12
2.05565e-12
2.05563e-12
2.05533e-12
2.05474e-12
2.05388e-12
2.05274e-12
2.05134e-12
2.04969e-12
2.04777e-12
2.04561e-12
2.04321e-12
2.04057e-12
2.03769e-12
2.03458e-12
2.03125e-12
2.02769e-12
2.02392e-12
2.01993e-12
2.01574e-12
2.01134e-12
2.00674e-12
2.00194e-12
1.99695e-12
1.99177e-12
1.9864e-12
1.98085e-12
1.97511e-12
1.9692e-12
1.96312e-12
1.95687e-12
1.95045e-12
1.94387e-12
1.93713e-12
1.93022e-12
1.92317e-12
1.91596e-12
1.90861e-12
1.90111e-12
1.89347e-12
1.88568e-12
1.87777e-12
1.86971e-12
1.86153e-12
1.85322e-12
1.84478e-12
1.83622e-12
1.82755e-12
1.81875e-12
1.80984e-12
1.80082e-12
1.79169e-12
1.78245e-12
1.77311e-12
1.76367e-12
1.75413e-12
1.7445e-12
1.73477e-12
1.72495e-12
1.71505e-12
1.70506e-12
1.69498e-12
1.68483e-12
1.6746e-12
1.66429e-12
1.65391e-12
1.64347e-12
1.63295e-12
1.62237e-12
1.61173e-12
1.60102e-12
1.59026e-12
1.57945e-12
1.56858e-12
1.55766e-12
1.54669e-12
1.53568e-12
1.52462e-12
1.51352e-12
1.50238e-12
1.49121e-12
1.48e-12
1.46876e-12
1.45749e-12
1.44619e-12
1.43487e-12
1.42352e-12
1.41215e-12
1.40077e-12
1.38936e-12
1.37794e-12
1.36651e-12
1.35507e-12
1.34362e-12
1.33216e-12
1.32069e-12
1.30923e-12
1.29776e-12
1.2863e-12
1.27483e-12
1.26337e-12
1.25192e-12
1.24048e-12
1.22905e-12
1.21763e-12
1.20622e-12
1.19483e-12
1.18345e-12
1.1721e-12
1.16076e-12
1.14945e-12
1.13816e-12
1.1269e-12
1.11566e-12
1.10445e-12
1.09327e-12
1.08213e-12
1.07101e-12
1.05993e-12
1.04889e-12
1.03788e-12
1.02691e-12
1.01598e-12
1.00509e-12
9.94245e-13
9.83441e-13
9.72683e-13
9.6197e-13
9.51304e-13
9.40687e-13
9.30119e-13
9.19601e-13
9.09134e-13
8.9872e-13
8.88359e-13
8.78052e-13
8.67801e-13
8.57606e-13
8.47469e-13
8.37389e-13
8.27368e-13
8.17407e-13
8.07507e-13
7.97667e-13
7.8789e-13
7.78176e-13
7.68525e-13
7.58938e-13
7.49416e-13
7.39959e-13
7.30568e-13
7.21244e-13
7.11987e-13
7.02798e-13
6.93677e-13
6.84624e-13
6.75641e-13
6.66727e-13
6.57883e-13
6.4911e-13
6.40407e-13
6.31776e-13
6.23216e-13
6.14728e-13
6.06311e-13
5.97967e-13
5.89696e-13
5.81497e-13
5.73372e-13
5.65319e-13
5.5734e-13
5.49435e-13
5.41603e-13
5.33845e-13
5.26161e-13
5.1855e-13
5.11014e-13
5.03552e-13
4.96163e-13
4.88849e-13
4.81609e-13
4.74443e-13
4.6735e-13
4.60332e-13
4.53388e-13
4.46517e-13
4.3972e-13
4.32997e-13
4.26347e-13
4.1977e-13
4.13266e-13
4.06836e-13
4.00478e-13
3.94193e-13
3.8798e-13
3.81839e-13
3.7577e-13
3.69773e-13
3.63847e-13
3.57992e-13
3.52208e-13
3.46495e-13
3.40852e-13
3.3528e-13
3.29776e-13
3.24342e-13
3.18978e-13
3.13681e-13
3.08454e-13
3.03294e-13
2.98201e-13
2.93176e-13
2.88218e-13
2.83327e-13
2.78501e-13
2.73741e-13
2.69047e-13
2.64417e-13
2.59852e-13
2.5535e-13
2.50913e-13
2.46538e-13
2.42227e-13
2.37977e-13
2.3379e-13
2.29664e-13
2.25599e-13
2.21595e-13
2.1765e-13
2.13765e-13
2.0994e-13
2.06173e-13
2.02464e-13
1.98814e-13
1.9522e-13
1.91683e-13
1.88203e-13
1.84779e-13
1.8141e-13
1.78096e-13
1.74837e-13
1.71631e-13
1.6848e-13
1.65381e-13
1.62335e-13
1.59341e-13
1.56399e-13
1.53508e-13
1.50668e-13
1.47879e-13
1.45139e-13
1.42449e-13
1.39807e-13
1.37214e-13
1.34669e-13
1.32172e-13
1.29722e-13
1.27319e-13
1.24962e-13
1.22651e-13
1.20386e-13
1.18165e-13
1.15989e-13
1.13857e-13
1.11769e-13
1.09725e-13
1.07723e-13
1.05764e-13
1.03847e-13
1.01971e-13
1.00138e-13
9.83448e-14
9.65926e-14
9.48806e-14
9.32086e-14
9.15761e-14
8.99827e-14
8.84282e-14
8.69121e-14
8.54342e-14
8.39942e-14
8.25916e-14
8.12262e-14
7.98976e-14
7.86056e-14
7.73499e-14
7.61301e-14
7.4946e-14
7.37973e-14
7.26837e-14
7.16049e-14
7.05608e-14
6.9551e-14
6.85753e-14
6.76335e-14
6.67253e-14
6.58505e-14
6.50088e-14
6.42002e-14
6.34243e-14
6.2681e-14
6.19701e-14
6.12914e-14
6.06448e-14
6.003e-14
5.94469e-14
5.88954e-14
5.83753e-14
5.78865e-14
5.74289e-14
5.70023e-14
5.66066e-14
5.62418e-14
5.59077e-14
5.56043e-14
5.53314e-14
5.5089e-14
5.48771e-14
5.46955e-14
5.45443e-14
5.44233e-14
5.43327e-14
5.42722e-14
5.4242e-14
3.34827e-14
1.00343e-13
1.66905e-13
2.32995e-13
2.9846e-13
3.63166e-13
4.26991e-13
4.89828e-13
5.51584e-13
6.12174e-13
6.71528e-13
7.29584e-13
7.86291e-13
8.41607e-13
8.95498e-13
9.47939e-13
9.98911e-13
1.0484e-12
1.09641e-12
1.14293e-12
1.18797e-12
1.23154e-12
1.27365e-12
1.31433e-12
1.35359e-12
1.39145e-12
1.42794e-12
1.46309e-12
1.49693e-12
1.52948e-12
1.56078e-12
1.59086e-12
1.61975e-12
1.64748e-12
1.67409e-12
1.69961e-12
1.72406e-12
1.74749e-12
1.76992e-12
1.79139e-12
1.81191e-12
1.83154e-12
1.85028e-12
1.86818e-12
1.88525e-12
1.90153e-12
1.91704e-12
1.9318e-12
1.94584e-12
1.95918e-12
1.97185e-12
1.98386e-12
1.99524e-12
2.00601e-12
2.01618e-12
2.02578e-12
2.03482e-12
2.04332e-12
2.05129e-12
2.05875e-12
2.06572e-12
2.07221e-12
2.07824e-12
2.08381e-12
2.08894e-12
2.09365e-12
2.09794e-12
2.10182e-12
2.10531e-12
2.10841e-12
2.11115e-12
2.11351e-12
2.11552e-12
2.11719e-12
2.11851e-12
2.11951e-12
2.12018e-12
2.12054e-12
2.12059e-12
2.12034e-12
2.11979e-12
2.11896e-12
2.11784e-12
2.11645e-12
2.11478e-12
2.11286e-12
2.11067e-12
2.10823e-12
2.10554e-12
2.1026e-12
2.09943e-12
2.09602e-12
2.09238e-12
2.08852e-12
2.08443e-12
2.08013e-12
2.07561e-12
2.07089e-12
2.06596e-12
2.06083e-12
2.0555e-12
2.04997e-12
2.04426e-12
2.03836e-12
2.03228e-12
2.02601e-12
2.01957e-12
2.01296e-12
2.00618e-12
1.99923e-12
1.99212e-12
1.98485e-12
1.97742e-12
1.96984e-12
1.96211e-12
1.95423e-12
1.9462e-12
1.93804e-12
1.92973e-12
1.92129e-12
1.91272e-12
1.90402e-12
1.89519e-12
1.88623e-12
1.87716e-12
1.86797e-12
1.85866e-12
1.84924e-12
1.83971e-12
1.83007e-12
1.82033e-12
1.81049e-12
1.80055e-12
1.79051e-12
1.78038e-12
1.77016e-12
1.75985e-12
1.74946e-12
1.73898e-12
1.72842e-12
1.71779e-12
1.70708e-12
1.69629e-12
1.68544e-12
1.67452e-12
1.66354e-12
1.65249e-12
1.64138e-12
1.63022e-12
1.619e-12
1.60773e-12
1.59641e-12
1.58505e-12
1.57364e-12
1.56218e-12
1.55069e-12
1.53915e-12
1.52759e-12
1.51598e-12
1.50435e-12
1.49269e-12
1.481e-12
1.46929e-12
1.45756e-12
1.44581e-12
1.43403e-12
1.42225e-12
1.41045e-12
1.39864e-12
1.38682e-12
1.37499e-12
1.36316e-12
1.35133e-12
1.33949e-12
1.32766e-12
1.31583e-12
1.304e-12
1.29218e-12
1.28037e-12
1.26857e-12
1.25678e-12
1.24501e-12
1.23325e-12
1.22151e-12
1.20979e-12
1.19809e-12
1.18641e-12
1.17476e-12
1.16314e-12
1.15154e-12
1.13997e-12
1.12843e-12
1.11692e-12
1.10545e-12
1.09402e-12
1.08262e-12
1.07125e-12
1.05993e-12
1.04865e-12
1.03741e-12
1.02622e-12
1.01507e-12
1.00396e-12
9.92905e-13
9.81896e-13
9.70937e-13
9.60029e-13
9.49173e-13
9.3837e-13
9.27621e-13
9.16927e-13
9.06289e-13
8.95708e-13
8.85185e-13
8.74722e-13
8.64318e-13
8.53975e-13
8.43693e-13
8.33474e-13
8.23319e-13
8.13227e-13
8.032e-13
7.93239e-13
7.83344e-13
7.73515e-13
7.63754e-13
7.54062e-13
7.44438e-13
7.34883e-13
7.25398e-13
7.15984e-13
7.0664e-13
6.97368e-13
6.88168e-13
6.7904e-13
6.69984e-13
6.61002e-13
6.52093e-13
6.43257e-13
6.34496e-13
6.25809e-13
6.17197e-13
6.0866e-13
6.00197e-13
5.9181e-13
5.83499e-13
5.75263e-13
5.67104e-13
5.5902e-13
5.51012e-13
5.43081e-13
5.35226e-13
5.27447e-13
5.19745e-13
5.12119e-13
5.04569e-13
4.97096e-13
4.897e-13
4.8238e-13
4.75136e-13
4.67968e-13
4.60876e-13
4.53861e-13
4.46921e-13
4.40057e-13
4.33269e-13
4.26556e-13
4.19919e-13
4.13356e-13
4.06869e-13
4.00456e-13
3.94118e-13
3.87854e-13
3.81664e-13
3.75548e-13
3.69505e-13
3.63535e-13
3.57638e-13
3.51814e-13
3.46062e-13
3.40381e-13
3.34773e-13
3.29235e-13
3.23769e-13
3.18373e-13
3.13047e-13
3.07791e-13
3.02605e-13
2.97487e-13
2.92438e-13
2.87457e-13
2.82544e-13
2.77699e-13
2.7292e-13
2.68208e-13
2.63562e-13
2.58982e-13
2.54467e-13
2.50016e-13
2.4563e-13
2.41308e-13
2.3705e-13
2.32854e-13
2.28721e-13
2.24649e-13
2.2064e-13
2.16691e-13
2.12803e-13
2.08975e-13
2.05207e-13
2.01498e-13
1.97848e-13
1.94255e-13
1.90721e-13
1.87244e-13
1.83823e-13
1.80459e-13
1.77151e-13
1.73898e-13
1.70699e-13
1.67555e-13
1.64465e-13
1.61429e-13
1.58445e-13
1.55514e-13
1.52634e-13
1.49806e-13
1.47029e-13
1.44303e-13
1.41627e-13
1.39e-13
1.36423e-13
1.33894e-13
1.31413e-13
1.28981e-13
1.26595e-13
1.24257e-13
1.21965e-13
1.19719e-13
1.17519e-13
1.15363e-13
1.13253e-13
1.11187e-13
1.09165e-13
1.07186e-13
1.05251e-13
1.03358e-13
1.01507e-13
9.96988e-14
9.79318e-14
9.6206e-14
9.4521e-14
9.28764e-14
9.12719e-14
8.97071e-14
8.81817e-14
8.66953e-14
8.52476e-14
8.38383e-14
8.2467e-14
8.11334e-14
7.98373e-14
7.85783e-14
7.73561e-14
7.61705e-14
7.50211e-14
7.39076e-14
7.28299e-14
7.17877e-14
7.07806e-14
6.98085e-14
6.8871e-14
6.79681e-14
6.70994e-14
6.62648e-14
6.54639e-14
6.46967e-14
6.3963e-14
6.32624e-14
6.2595e-14
6.19604e-14
6.13586e-14
6.07894e-14
6.02526e-14
5.9748e-14
5.92757e-14
5.88354e-14
5.8427e-14
5.80505e-14
5.77056e-14
5.73924e-14
5.71108e-14
5.68606e-14
5.66418e-14
5.64544e-14
5.62983e-14
5.61735e-14
5.60799e-14
5.60175e-14
5.59864e-14
3.38155e-14
1.01356e-13
1.68632e-13
2.35482e-13
3.01758e-13
3.67325e-13
4.32064e-13
4.95865e-13
5.58632e-13
6.20279e-13
6.80731e-13
7.39924e-13
7.97802e-13
8.54319e-13
9.09436e-13
9.63124e-13
1.01536e-12
1.06613e-12
1.11542e-12
1.16324e-12
1.20957e-12
1.25443e-12
1.29783e-12
1.33978e-12
1.3803e-12
1.41941e-12
1.45714e-12
1.4935e-12
1.52853e-12
1.56225e-12
1.5947e-12
1.62589e-12
1.65587e-12
1.68467e-12
1.71231e-12
1.73883e-12
1.76426e-12
1.78863e-12
1.81198e-12
1.83433e-12
1.85571e-12
1.87615e-12
1.89569e-12
1.91435e-12
1.93215e-12
1.94914e-12
1.96532e-12
1.98073e-12
1.99539e-12
2.00933e-12
2.02256e-12
2.03511e-12
2.04701e-12
2.05827e-12
2.06891e-12
2.07895e-12
2.08841e-12
2.0973e-12
2.10565e-12
2.11347e-12
2.12078e-12
2.12759e-12
2.13391e-12
2.13976e-12
2.14516e-12
2.1501e-12
2.15462e-12
2.15871e-12
2.1624e-12
2.16568e-12
2.16858e-12
2.17109e-12
2.17324e-12
2.17503e-12
2.17646e-12
2.17755e-12
2.17831e-12
2.17874e-12
2.17885e-12
2.17864e-12
2.17814e-12
2.17733e-12
2.17623e-12
2.17484e-12
2.17317e-12
2.17123e-12
2.16902e-12
2.16655e-12
2.16381e-12
2.16083e-12
2.1576e-12
2.15412e-12
2.15041e-12
2.14646e-12
2.14229e-12
2.13789e-12
2.13327e-12
2.12843e-12
2.12338e-12
2.11813e-12
2.11266e-12
2.107e-12
2.10115e-12
2.0951e-12
2.08886e-12
2.08243e-12
2.07582e-12
2.06904e-12
2.06208e-12
2.05495e-12
2.04764e-12
2.04018e-12
2.03255e-12
2.02477e-12
2.01683e-12
2.00873e-12
2.00049e-12
1.9921e-12
1.98357e-12
1.9749e-12
1.9661e-12
1.95716e-12
1.94809e-12
1.93889e-12
1.92956e-12
1.92012e-12
1.91055e-12
1.90087e-12
1.89108e-12
1.88118e-12
1.87117e-12
1.86105e-12
1.85084e-12
1.84052e-12
1.83011e-12
1.8196e-12
1.80901e-12
1.79833e-12
1.78756e-12
1.77671e-12
1.76577e-12
1.75477e-12
1.74368e-12
1.73253e-12
1.72131e-12
1.71002e-12
1.69866e-12
1.68725e-12
1.67577e-12
1.66424e-12
1.65266e-12
1.64102e-12
1.62934e-12
1.61761e-12
1.60584e-12
1.59402e-12
1.58217e-12
1.57028e-12
1.55835e-12
1.54639e-12
1.53441e-12
1.52239e-12
1.51035e-12
1.49829e-12
1.48621e-12
1.47411e-12
1.462e-12
1.44987e-12
1.43773e-12
1.42558e-12
1.41342e-12
1.40126e-12
1.3891e-12
1.37693e-12
1.36476e-12
1.3526e-12
1.34045e-12
1.3283e-12
1.31616e-12
1.30403e-12
1.29191e-12
1.27981e-12
1.26772e-12
1.25565e-12
1.2436e-12
1.23158e-12
1.21957e-12
1.2076e-12
1.19565e-12
1.18372e-12
1.17183e-12
1.15997e-12
1.14814e-12
1.13635e-12
1.12459e-12
1.11288e-12
1.1012e-12
1.08956e-12
1.07796e-12
1.06641e-12
1.0549e-12
1.04344e-12
1.03202e-12
1.02066e-12
1.00934e-12
9.98076e-13
9.86863e-13
9.75703e-13
9.64598e-13
9.53549e-13
9.42556e-13
9.31621e-13
9.20744e-13
9.09927e-13
8.99171e-13
8.88477e-13
8.77844e-13
8.67276e-13
8.56771e-13
8.46332e-13
8.35958e-13
8.25651e-13
8.15411e-13
8.05239e-13
7.95136e-13
7.85102e-13
7.75139e-13
7.65246e-13
7.55424e-13
7.45674e-13
7.35997e-13
7.26392e-13
7.16861e-13
7.07403e-13
6.9802e-13
6.88711e-13
6.79478e-13
6.70319e-13
6.61237e-13
6.52231e-13
6.43301e-13
6.34448e-13
6.25672e-13
6.16974e-13
6.08352e-13
5.99809e-13
5.91343e-13
5.82955e-13
5.74645e-13
5.66414e-13
5.58261e-13
5.50186e-13
5.4219e-13
5.34272e-13
5.26433e-13
5.18673e-13
5.10991e-13
5.03388e-13
4.95863e-13
4.88416e-13
4.81048e-13
4.73758e-13
4.66547e-13
4.59413e-13
4.52357e-13
4.4538e-13
4.38479e-13
4.31656e-13
4.2491e-13
4.18242e-13
4.1165e-13
4.05134e-13
3.98695e-13
3.92332e-13
3.86045e-13
3.79833e-13
3.73696e-13
3.67634e-13
3.61647e-13
3.55734e-13
3.49895e-13
3.4413e-13
3.38438e-13
3.32819e-13
3.27272e-13
3.21797e-13
3.16394e-13
3.11063e-13
3.05802e-13
3.00612e-13
2.95492e-13
2.90442e-13
2.85461e-13
2.80549e-13
2.75705e-13
2.70929e-13
2.66221e-13
2.61579e-13
2.57005e-13
2.52496e-13
2.48053e-13
2.43676e-13
2.39363e-13
2.35114e-13
2.30929e-13
2.26807e-13
2.22748e-13
2.18751e-13
2.14816e-13
2.10943e-13
2.0713e-13
2.03378e-13
1.99685e-13
1.96052e-13
1.92477e-13
1.88961e-13
1.85503e-13
1.82102e-13
1.78758e-13
1.75471e-13
1.72239e-13
1.69062e-13
1.65941e-13
1.62874e-13
1.5986e-13
1.56901e-13
1.53994e-13
1.51139e-13
1.48337e-13
1.45586e-13
1.42885e-13
1.40236e-13
1.37636e-13
1.35087e-13
1.32586e-13
1.30134e-13
1.2773e-13
1.25374e-13
1.23065e-13
1.20803e-13
1.18588e-13
1.16419e-13
1.14295e-13
1.12216e-13
1.10182e-13
1.08193e-13
1.06247e-13
1.04345e-13
1.02486e-13
1.00669e-13
9.88951e-14
9.7163e-14
9.54724e-14
9.3823e-14
9.22145e-14
9.06465e-14
8.91185e-14
8.76304e-14
8.61817e-14
8.4772e-14
8.34012e-14
8.20689e-14
8.07747e-14
7.95183e-14
7.82995e-14
7.7118e-14
7.59735e-14
7.48656e-14
7.37942e-14
7.2759e-14
7.17597e-14
7.07961e-14
6.98679e-14
6.89749e-14
6.81169e-14
6.72937e-14
6.65051e-14
6.57508e-14
6.50307e-14
6.43446e-14
6.36923e-14
6.30737e-14
6.24885e-14
6.19367e-14
6.14181e-14
6.09325e-14
6.04799e-14
6.00601e-14
5.9673e-14
5.93186e-14
5.89966e-14
5.87071e-14
5.84499e-14
5.8225e-14
5.80324e-14
5.78719e-14
5.77436e-14
5.76474e-14
5.75833e-14
5.75512e-14
3.41262e-14
1.02297e-13
1.70226e-13
2.37762e-13
3.04761e-13
3.71094e-13
4.36639e-13
5.01289e-13
5.64944e-13
6.27518e-13
6.88933e-13
7.49121e-13
8.08024e-13
8.65591e-13
9.21782e-13
9.76562e-13
1.02991e-12
1.08179e-12
1.13221e-12
1.18116e-12
1.22863e-12
1.27462e-12
1.31914e-12
1.36222e-12
1.40385e-12
1.44406e-12
1.48286e-12
1.52029e-12
1.55637e-12
1.59112e-12
1.62457e-12
1.65675e-12
1.68769e-12
1.71742e-12
1.74597e-12
1.77338e-12
1.79967e-12
1.82487e-12
1.84902e-12
1.87215e-12
1.89428e-12
1.91545e-12
1.93569e-12
1.95502e-12
1.97348e-12
1.99108e-12
2.00786e-12
2.02384e-12
2.03905e-12
2.05351e-12
2.06725e-12
2.08028e-12
2.09263e-12
2.10432e-12
2.11537e-12
2.12581e-12
2.13564e-12
2.14489e-12
2.15357e-12
2.16171e-12
2.16932e-12
2.1764e-12
2.18299e-12
2.18909e-12
2.19471e-12
2.19988e-12
2.2046e-12
2.20888e-12
2.21273e-12
2.21618e-12
2.21922e-12
2.22187e-12
2.22414e-12
2.22603e-12
2.22756e-12
2.22874e-12
2.22957e-12
2.23006e-12
2.23023e-12
2.23007e-12
2.22959e-12
2.22881e-12
2.22772e-12
2.22634e-12
2.22467e-12
2.22271e-12
2.22048e-12
2.21798e-12
2.21521e-12
2.21219e-12
2.2089e-12
2.20537e-12
2.20159e-12
2.19757e-12
2.19332e-12
2.18883e-12
2.18412e-12
2.17919e-12
2.17403e-12
2.16867e-12
2.16309e-12
2.15731e-12
2.15132e-12
2.14514e-12
2.13876e-12
2.13219e-12
2.12544e-12
2.1185e-12
2.11138e-12
2.10409e-12
2.09662e-12
2.08899e-12
2.08118e-12
2.07322e-12
2.06509e-12
2.05681e-12
2.04838e-12
2.0398e-12
2.03107e-12
2.02219e-12
2.01318e-12
2.00403e-12
1.99475e-12
1.98533e-12
1.97579e-12
1.96612e-12
1.95633e-12
1.94642e-12
1.9364e-12
1.92626e-12
1.91601e-12
1.90565e-12
1.8952e-12
1.88463e-12
1.87397e-12
1.86322e-12
1.85237e-12
1.84143e-12
1.83041e-12
1.8193e-12
1.80811e-12
1.79684e-12
1.78549e-12
1.77407e-12
1.76258e-12
1.75102e-12
1.73939e-12
1.7277e-12
1.71596e-12
1.70415e-12
1.69229e-12
1.68037e-12
1.66841e-12
1.6564e-12
1.64434e-12
1.63225e-12
1.62011e-12
1.60793e-12
1.59572e-12
1.58348e-12
1.5712e-12
1.5589e-12
1.54658e-12
1.53423e-12
1.52186e-12
1.50947e-12
1.49706e-12
1.48464e-12
1.47221e-12
1.45977e-12
1.44732e-12
1.43487e-12
1.42241e-12
1.40995e-12
1.3975e-12
1.38504e-12
1.3726e-12
1.36015e-12
1.34772e-12
1.3353e-12
1.32289e-12
1.3105e-12
1.29813e-12
1.28577e-12
1.27343e-12
1.26112e-12
1.24883e-12
1.23656e-12
1.22432e-12
1.21212e-12
1.19994e-12
1.18779e-12
1.17568e-12
1.16361e-12
1.15157e-12
1.13957e-12
1.12761e-12
1.11569e-12
1.10382e-12
1.09199e-12
1.0802e-12
1.06847e-12
1.05678e-12
1.04514e-12
1.03355e-12
1.02202e-12
1.01053e-12
9.99106e-13
9.87735e-13
9.7642e-13
9.65164e-13
9.53966e-13
9.42829e-13
9.31753e-13
9.20738e-13
9.09787e-13
8.989e-13
8.88078e-13
8.77321e-13
8.66631e-13
8.56009e-13
8.45455e-13
8.34969e-13
8.24553e-13
8.14208e-13
8.03934e-13
7.93731e-13
7.83601e-13
7.73544e-13
7.6356e-13
7.5365e-13
7.43815e-13
7.34055e-13
7.24371e-13
7.14762e-13
7.0523e-13
6.95775e-13
6.86398e-13
6.77098e-13
6.67875e-13
6.58732e-13
6.49666e-13
6.4068e-13
6.31772e-13
6.22944e-13
6.14196e-13
6.05527e-13
5.96938e-13
5.88429e-13
5.8e-13
5.71651e-13
5.63383e-13
5.55195e-13
5.47087e-13
5.3906e-13
5.31114e-13
5.23248e-13
5.15462e-13
5.07756e-13
5.00131e-13
4.92587e-13
4.85122e-13
4.77737e-13
4.70433e-13
4.63208e-13
4.56062e-13
4.48996e-13
4.4201e-13
4.35102e-13
4.28274e-13
4.21523e-13
4.14852e-13
4.08258e-13
4.01742e-13
3.95304e-13
3.88943e-13
3.8266e-13
3.76453e-13
3.70322e-13
3.64267e-13
3.58288e-13
3.52384e-13
3.46556e-13
3.40802e-13
3.35122e-13
3.29516e-13
3.23983e-13
3.18524e-13
3.13137e-13
3.07823e-13
3.0258e-13
2.97408e-13
2.92308e-13
2.87278e-13
2.82318e-13
2.77427e-13
2.72606e-13
2.67854e-13
2.63169e-13
2.58553e-13
2.54003e-13
2.4952e-13
2.45104e-13
2.40753e-13
2.36468e-13
2.32247e-13
2.28091e-13
2.23998e-13
2.19969e-13
2.16003e-13
2.12098e-13
2.08256e-13
2.04475e-13
2.00754e-13
1.97094e-13
1.93494e-13
1.89953e-13
1.8647e-13
1.83046e-13
1.79679e-13
1.7637e-13
1.73117e-13
1.69921e-13
1.6678e-13
1.63695e-13
1.60664e-13
1.57687e-13
1.54764e-13
1.51895e-13
1.49078e-13
1.46313e-13
1.436e-13
1.40938e-13
1.38327e-13
1.35766e-13
1.33255e-13
1.30794e-13
1.28381e-13
1.26017e-13
1.23701e-13
1.21433e-13
1.19211e-13
1.17036e-13
1.14908e-13
1.12825e-13
1.10788e-13
1.08795e-13
1.06847e-13
1.04944e-13
1.03084e-13
1.01267e-13
9.94935e-14
9.77624e-14
9.60735e-14
9.44264e-14
9.28207e-14
9.12561e-14
8.97323e-14
8.82488e-14
8.68054e-14
8.54017e-14
8.40374e-14
8.27121e-14
8.14256e-14
8.01776e-14
7.89678e-14
7.77958e-14
7.66613e-14
7.55642e-14
7.45042e-14
7.34809e-14
7.24942e-14
7.15437e-14
7.06294e-14
6.97508e-14
6.89078e-14
6.81003e-14
6.73279e-14
6.65905e-14
6.5888e-14
6.522e-14
6.45865e-14
6.39874e-14
6.34223e-14
6.28913e-14
6.23941e-14
6.19306e-14
6.15007e-14
6.11044e-14
6.07414e-14
6.04117e-14
6.01152e-14
5.98519e-14
5.96216e-14
5.94243e-14
5.926e-14
5.91286e-14
5.90302e-14
5.89645e-14
5.89317e-14
3.44053e-14
1.0314e-13
1.71649e-13
2.39788e-13
3.0742e-13
3.74417e-13
4.4066e-13
5.06041e-13
5.70462e-13
6.33833e-13
6.96074e-13
7.57116e-13
8.16898e-13
8.75366e-13
9.32477e-13
9.88194e-13
1.04249e-12
1.09534e-12
1.14672e-12
1.19664e-12
1.24508e-12
1.29204e-12
1.33754e-12
1.38157e-12
1.42415e-12
1.4653e-12
1.50504e-12
1.54339e-12
1.58037e-12
1.616e-12
1.65031e-12
1.68334e-12
1.71511e-12
1.74565e-12
1.77499e-12
1.80315e-12
1.83018e-12
1.85611e-12
1.88095e-12
1.90475e-12
1.92754e-12
1.94934e-12
1.97018e-12
1.99009e-12
2.0091e-12
2.02725e-12
2.04454e-12
2.06102e-12
2.0767e-12
2.09162e-12
2.10578e-12
2.11923e-12
2.13198e-12
2.14404e-12
2.15545e-12
2.16623e-12
2.17638e-12
2.18594e-12
2.19491e-12
2.20332e-12
2.21119e-12
2.21852e-12
2.22533e-12
2.23165e-12
2.23747e-12
2.24283e-12
2.24772e-12
2.25216e-12
2.25617e-12
2.25975e-12
2.26292e-12
2.26568e-12
2.26806e-12
2.27004e-12
2.27166e-12
2.27291e-12
2.27381e-12
2.27436e-12
2.27456e-12
2.27444e-12
2.274e-12
2.27323e-12
2.27216e-12
2.27078e-12
2.26911e-12
2.26715e-12
2.2649e-12
2.26237e-12
2.25958e-12
2.25651e-12
2.25318e-12
2.2496e-12
2.24577e-12
2.24169e-12
2.23736e-12
2.2328e-12
2.22801e-12
2.22299e-12
2.21775e-12
2.21229e-12
2.20661e-12
2.20073e-12
2.19463e-12
2.18833e-12
2.18184e-12
2.17515e-12
2.16827e-12
2.1612e-12
2.15394e-12
2.14651e-12
2.1389e-12
2.13111e-12
2.12316e-12
2.11504e-12
2.10676e-12
2.09831e-12
2.08971e-12
2.08096e-12
2.07206e-12
2.06301e-12
2.05382e-12
2.04449e-12
2.03502e-12
2.02542e-12
2.01569e-12
2.00583e-12
1.99584e-12
1.98573e-12
1.97551e-12
1.96517e-12
1.95472e-12
1.94415e-12
1.93348e-12
1.92271e-12
1.91184e-12
1.90087e-12
1.8898e-12
1.87864e-12
1.8674e-12
1.85606e-12
1.84465e-12
1.83315e-12
1.82157e-12
1.80992e-12
1.7982e-12
1.78641e-12
1.77455e-12
1.76263e-12
1.75064e-12
1.7386e-12
1.7265e-12
1.71434e-12
1.70214e-12
1.68988e-12
1.67758e-12
1.66524e-12
1.65286e-12
1.64044e-12
1.62798e-12
1.61549e-12
1.60297e-12
1.59042e-12
1.57784e-12
1.56524e-12
1.55262e-12
1.53998e-12
1.52733e-12
1.51466e-12
1.50197e-12
1.48928e-12
1.47658e-12
1.46388e-12
1.45117e-12
1.43846e-12
1.42575e-12
1.41305e-12
1.40035e-12
1.38765e-12
1.37497e-12
1.3623e-12
1.34964e-12
1.337e-12
1.32437e-12
1.31176e-12
1.29918e-12
1.28661e-12
1.27408e-12
1.26156e-12
1.24908e-12
1.23662e-12
1.2242e-12
1.21181e-12
1.19945e-12
1.18713e-12
1.17485e-12
1.16261e-12
1.15041e-12
1.13825e-12
1.12614e-12
1.11407e-12
1.10204e-12
1.09007e-12
1.07814e-12
1.06627e-12
1.05445e-12
1.04268e-12
1.03097e-12
1.01931e-12
1.00771e-12
9.96163e-13
9.84678e-13
9.73255e-13
9.61892e-13
9.50592e-13
9.39355e-13
9.28182e-13
9.17075e-13
9.06034e-13
8.9506e-13
8.84154e-13
8.73317e-13
8.62549e-13
8.51852e-13
8.41225e-13
8.30671e-13
8.20189e-13
8.0978e-13
7.99445e-13
7.89184e-13
7.78998e-13
7.68888e-13
7.58854e-13
7.48897e-13
7.39017e-13
7.29214e-13
7.1949e-13
7.09843e-13
7.00276e-13
6.90788e-13
6.81379e-13
6.72051e-13
6.62802e-13
6.53634e-13
6.44546e-13
6.3554e-13
6.26614e-13
6.1777e-13
6.09007e-13
6.00326e-13
5.91727e-13
5.8321e-13
5.74774e-13
5.66421e-13
5.58149e-13
5.4996e-13
5.41853e-13
5.33827e-13
5.25884e-13
5.18023e-13
5.10244e-13
5.02546e-13
4.94931e-13
4.87397e-13
4.79944e-13
4.72573e-13
4.65284e-13
4.58075e-13
4.50947e-13
4.439e-13
4.36933e-13
4.30046e-13
4.2324e-13
4.16513e-13
4.09865e-13
4.03297e-13
3.96808e-13
3.90397e-13
3.84064e-13
3.77809e-13
3.71632e-13
3.65532e-13
3.59509e-13
3.53563e-13
3.47692e-13
3.41898e-13
3.36178e-13
3.30534e-13
3.24964e-13
3.19469e-13
3.14046e-13
3.08698e-13
3.03422e-13
2.98218e-13
2.93086e-13
2.88026e-13
2.83037e-13
2.78118e-13
2.73269e-13
2.6849e-13
2.6378e-13
2.59139e-13
2.54565e-13
2.5006e-13
2.45621e-13
2.41249e-13
2.36943e-13
2.32703e-13
2.28527e-13
2.24417e-13
2.2037e-13
2.16387e-13
2.12467e-13
2.08609e-13
2.04813e-13
2.01079e-13
1.97406e-13
1.93793e-13
1.9024e-13
1.86747e-13
1.83312e-13
1.79936e-13
1.76618e-13
1.73357e-13
1.70153e-13
1.67005e-13
1.63912e-13
1.60876e-13
1.57894e-13
1.54966e-13
1.52092e-13
1.49271e-13
1.46503e-13
1.43788e-13
1.41124e-13
1.38511e-13
1.3595e-13
1.33438e-13
1.30977e-13
1.28565e-13
1.26202e-13
1.23888e-13
1.21621e-13
1.19403e-13
1.17231e-13
1.15106e-13
1.13028e-13
1.10995e-13
1.09008e-13
1.07066e-13
1.05168e-13
1.03315e-13
1.01505e-13
9.97391e-14
9.8016e-14
9.63356e-14
9.46975e-14
9.31012e-14
9.15466e-14
9.00331e-14
8.85605e-14
8.71284e-14
8.57366e-14
8.43845e-14
8.3072e-14
8.17988e-14
8.05644e-14
7.93687e-14
7.82114e-14
7.70921e-14
7.60106e-14
7.49667e-14
7.396e-14
7.29903e-14
7.20574e-14
7.11611e-14
7.03011e-14
6.94772e-14
6.86892e-14
6.7937e-14
6.72202e-14
6.65387e-14
6.58924e-14
6.52811e-14
6.47047e-14
6.41629e-14
6.36556e-14
6.31828e-14
6.27442e-14
6.23398e-14
6.19695e-14
6.16332e-14
6.13307e-14
6.1062e-14
6.08271e-14
6.06258e-14
6.04582e-14
6.03242e-14
6.02237e-14
6.01567e-14
6.01232e-14
3.46459e-14
1.03866e-13
1.72872e-13
2.41524e-13
3.09692e-13
3.77249e-13
4.4408e-13
5.10075e-13
5.75135e-13
6.39172e-13
7.02103e-13
7.63858e-13
8.24372e-13
8.83592e-13
9.4147e-13
9.97967e-13
1.05305e-12
1.1067e-12
1.15889e-12
1.20962e-12
1.25887e-12
1.30665e-12
1.35295e-12
1.39778e-12
1.44116e-12
1.4831e-12
1.52362e-12
1.56273e-12
1.60046e-12
1.63683e-12
1.67188e-12
1.70561e-12
1.73807e-12
1.76928e-12
1.79928e-12
1.82809e-12
1.85574e-12
1.88226e-12
1.90769e-12
1.93206e-12
1.95539e-12
1.97771e-12
1.99906e-12
2.01946e-12
2.03894e-12
2.05754e-12
2.07527e-12
2.09216e-12
2.10824e-12
2.12353e-12
2.13807e-12
2.15186e-12
2.16494e-12
2.17732e-12
2.18903e-12
2.20009e-12
2.21052e-12
2.22033e-12
2.22955e-12
2.23819e-12
2.24627e-12
2.25381e-12
2.26081e-12
2.26731e-12
2.2733e-12
2.27881e-12
2.28385e-12
2.28843e-12
2.29256e-12
2.29626e-12
2.29954e-12
2.3024e-12
2.30486e-12
2.30693e-12
2.30862e-12
2.30993e-12
2.31088e-12
2.31148e-12
2.31173e-12
2.31164e-12
2.31121e-12
2.31047e-12
2.30941e-12
2.30804e-12
2.30636e-12
2.30439e-12
2.30213e-12
2.29958e-12
2.29676e-12
2.29366e-12
2.2903e-12
2.28668e-12
2.28279e-12
2.27866e-12
2.27428e-12
2.26966e-12
2.2648e-12
2.25971e-12
2.2544e-12
2.24886e-12
2.2431e-12
2.23712e-12
2.23093e-12
2.22454e-12
2.21795e-12
2.21115e-12
2.20416e-12
2.19698e-12
2.18962e-12
2.18207e-12
2.17433e-12
2.16643e-12
2.15835e-12
2.1501e-12
2.14168e-12
2.1331e-12
2.12436e-12
2.11547e-12
2.10642e-12
2.09723e-12
2.08789e-12
2.07841e-12
2.06878e-12
2.05902e-12
2.04913e-12
2.03911e-12
2.02896e-12
2.01869e-12
2.0083e-12
1.99779e-12
1.98716e-12
1.97643e-12
1.96558e-12
1.95463e-12
1.94358e-12
1.93243e-12
1.92118e-12
1.90984e-12
1.8984e-12
1.88688e-12
1.87528e-12
1.86359e-12
1.85182e-12
1.83998e-12
1.82806e-12
1.81608e-12
1.80402e-12
1.7919e-12
1.77972e-12
1.76747e-12
1.75517e-12
1.74282e-12
1.73041e-12
1.71795e-12
1.70545e-12
1.6929e-12
1.68031e-12
1.66769e-12
1.65502e-12
1.64232e-12
1.6296e-12
1.61684e-12
1.60405e-12
1.59124e-12
1.57841e-12
1.56557e-12
1.5527e-12
1.53982e-12
1.52693e-12
1.51402e-12
1.50111e-12
1.4882e-12
1.47528e-12
1.46236e-12
1.44944e-12
1.43652e-12
1.42361e-12
1.41071e-12
1.39781e-12
1.38493e-12
1.37206e-12
1.35921e-12
1.34637e-12
1.33356e-12
1.32076e-12
1.30799e-12
1.29524e-12
1.28252e-12
1.26983e-12
1.25717e-12
1.24454e-12
1.23194e-12
1.21938e-12
1.20686e-12
1.19437e-12
1.18192e-12
1.16952e-12
1.15716e-12
1.14484e-12
1.13257e-12
1.12035e-12
1.10818e-12
1.09606e-12
1.08398e-12
1.07197e-12
1.06e-12
1.04809e-12
1.03624e-12
1.02445e-12
1.01271e-12
1.00104e-12
9.89424e-13
9.77872e-13
9.66384e-13
9.54961e-13
9.43603e-13
9.32311e-13
9.21087e-13
9.0993e-13
8.98843e-13
8.87826e-13
8.76879e-13
8.66004e-13
8.55201e-13
8.44471e-13
8.33815e-13
8.23233e-13
8.12726e-13
8.02295e-13
7.9194e-13
7.81662e-13
7.71462e-13
7.61339e-13
7.51295e-13
7.41329e-13
7.31443e-13
7.21637e-13
7.1191e-13
7.02264e-13
6.927e-13
6.83216e-13
6.73814e-13
6.64493e-13
6.55255e-13
6.46098e-13
6.37025e-13
6.28034e-13
6.19125e-13
6.103e-13
6.01558e-13
5.92899e-13
5.84323e-13
5.75831e-13
5.67422e-13
5.59097e-13
5.50855e-13
5.42696e-13
5.34621e-13
5.26629e-13
5.18721e-13
5.10896e-13
5.03153e-13
4.95494e-13
4.87918e-13
4.80425e-13
4.73014e-13
4.65685e-13
4.58439e-13
4.51275e-13
4.44192e-13
4.37191e-13
4.30271e-13
4.23433e-13
4.16675e-13
4.09997e-13
4.034e-13
3.96883e-13
3.90445e-13
3.84086e-13
3.77806e-13
3.71605e-13
3.65482e-13
3.59437e-13
3.53469e-13
3.47578e-13
3.41764e-13
3.36025e-13
3.30363e-13
3.24776e-13
3.19264e-13
3.13826e-13
3.08463e-13
3.03173e-13
2.97956e-13
2.92811e-13
2.87739e-13
2.82739e-13
2.77809e-13
2.72951e-13
2.68163e-13
2.63444e-13
2.58795e-13
2.54214e-13
2.49702e-13
2.45257e-13
2.40879e-13
2.36569e-13
2.32324e-13
2.28145e-13
2.24031e-13
2.19982e-13
2.15997e-13
2.12075e-13
2.08216e-13
2.0442e-13
2.00686e-13
1.97013e-13
1.93401e-13
1.8985e-13
1.86358e-13
1.82926e-13
1.79552e-13
1.76237e-13
1.72979e-13
1.69779e-13
1.66636e-13
1.63548e-13
1.60517e-13
1.5754e-13
1.54619e-13
1.51751e-13
1.48937e-13
1.46176e-13
1.43468e-13
1.40812e-13
1.38208e-13
1.35655e-13
1.33153e-13
1.30701e-13
1.28299e-13
1.25946e-13
1.23642e-13
1.21386e-13
1.19179e-13
1.17019e-13
1.14906e-13
1.12839e-13
1.10819e-13
1.08844e-13
1.06915e-13
1.05031e-13
1.03192e-13
1.01396e-13
9.96444e-14
9.79361e-14
9.62707e-14
9.4648e-14
9.30675e-14
9.15289e-14
9.00318e-14
8.8576e-14
8.71609e-14
8.57864e-14
8.44522e-14
8.31577e-14
8.19029e-14
8.06873e-14
7.95108e-14
7.83729e-14
7.72734e-14
7.62121e-14
7.51887e-14
7.4203e-14
7.32546e-14
7.23434e-14
7.14691e-14
7.06315e-14
6.98304e-14
6.90656e-14
6.8337e-14
6.76442e-14
6.69872e-14
6.63657e-14
6.57797e-14
6.52289e-14
6.47132e-14
6.42325e-14
6.37866e-14
6.33755e-14
6.29991e-14
6.26571e-14
6.23496e-14
6.20765e-14
6.18376e-14
6.1633e-14
6.14626e-14
6.13263e-14
6.12242e-14
6.11561e-14
6.11221e-14
3.48435e-14
1.04461e-13
1.73873e-13
2.42944e-13
3.11546e-13
3.79557e-13
4.4686e-13
5.13348e-13
5.78923e-13
6.43493e-13
7.06977e-13
7.69302e-13
8.30404e-13
8.90225e-13
9.48717e-13
1.00584e-12
1.06156e-12
1.11585e-12
1.16869e-12
1.22006e-12
1.26996e-12
1.31838e-12
1.36533e-12
1.41081e-12
1.45483e-12
1.4974e-12
1.53854e-12
1.57827e-12
1.6166e-12
1.65357e-12
1.68919e-12
1.7235e-12
1.75651e-12
1.78827e-12
1.81879e-12
1.84811e-12
1.87626e-12
1.90327e-12
1.92917e-12
1.95399e-12
1.97775e-12
2.0005e-12
2.02226e-12
2.04305e-12
2.06291e-12
2.08187e-12
2.09995e-12
2.11717e-12
2.13357e-12
2.14918e-12
2.164e-12
2.17808e-12
2.19142e-12
2.20406e-12
2.21601e-12
2.2273e-12
2.23795e-12
2.24797e-12
2.25738e-12
2.26621e-12
2.27446e-12
2.28216e-12
2.28933e-12
2.29597e-12
2.3021e-12