/*--------------------------------*- C++ -*----------------------------------*\
  =========                 |
  \\      /  F ield         | OpenFOAM: The Open Source CFD Toolbox
   \\    /   O peration     | Website:  https://openfoam.org
    \\  /    A nd           | Version:  10
     \\/     M anipulation  |
\*---------------------------------------------------------------------------*/
FoamFile
{
    format      ascii;
    class       volScalarField;
    location    "0.32";
    object      beta;
}
// * * * * * * * * * * * * * * * * * * * * * * * * * * * * * * * * * * * * * //

dimensions      [0 0 0 0 0 0 0];

internalField   uniform 0;

boundaryField
{
    frontAndBack
    {
        type            empty;
    }
    inlet
    {
        type            calculated;
        value           uniform 0;
    }
    outlet
    {
        type            calculated;
        value           uniform 0;
    }
    substrate
    {
        type            calculated;
        value           nonuniform List<scalar> 
400
(
0.00265328
0.00287576
0.00308655
0.00329104
0.00349178
0.00369003
0.0038864
0.00408111
0.00427421
0.00446558
0.00465505
0.00484238
0.00502733
0.00520962
0.005389
0.00556521
0.00573801
0.00590719
0.00607254
0.0062339
0.00639111
0.00654405
0.00669263
0.00683675
0.00697638
0.00711148
0.00724204
0.00736806
0.00748957
0.0076066
0.0077192
0.00782745
0.0079314
0.00803116
0.0081268
0.00821844
0.00830616
0.00839008
0.00847031
0.00854697
0.00862017
0.00869002
0.00875665
0.00882017
0.00888069
0.00893834
0.00899322
0.00904545
0.00909514
0.00914238
0.0091873
0.00922998
0.00927053
0.00930904
0.0093456
0.00938031
0.00941324
0.00944449
0.00947413
0.00950225
0.0095289
0.00955417
0.00957812
0.00960081
0.00962232
0.00964269
0.00966199
0.00968026
0.00969757
0.00971396
0.00972948
0.00974417
0.00975807
0.00977123
0.00978368
0.00979547
0.00980662
0.00981717
0.00982716
0.0098366
0.00984553
0.00985398
0.00986198
0.00986954
0.00987669
0.00988345
0.00988984
0.00989589
0.0099016
0.00990701
0.00991212
0.00991695
0.00992152
0.00992584
0.00992992
0.00993378
0.00993743
0.00994087
0.00994413
0.00994722
0.00995013
0.00995288
0.00995548
0.00995794
0.00996026
0.00996246
0.00996453
0.0099665
0.00996835
0.0099701
0.00997176
0.00997332
0.0099748
0.00997619
0.00997751
0.00997876
0.00997994
0.00998105
0.0099821
0.0099831
0.00998404
0.00998492
0.00998576
0.00998655
0.0099873
0.00998801
0.00998868
0.00998931
0.0099899
0.00999047
0.009991
0.0099915
0.00999197
0.00999242
0.00999285
0.00999325
0.00999362
0.00999398
0.00999432
0.00999464
0.00999494
0.00999522
0.00999549
0.00999574
0.00999598
0.00999621
0.00999642
0.00999662
0.00999681
0.00999699
0.00999716
0.00999732
0.00999747
0.00999761
0.00999775
0.00999788
0.009998
0.00999811
0.00999822
0.00999832
0.00999841
0.0099985
0.00999859
0.00999867
0.00999874
0.00999882
0.00999888
0.00999895
0.00999901
0.00999906
0.00999912
0.00999917
0.00999921
0.00999926
0.0099993
0.00999934
0.00999938
0.00999942
0.00999945
0.00999948
0.00999951
0.00999954
0.00999957
0.00999959
0.00999961
0.00999964
0.00999966
0.00999968
0.0099997
0.00999971
0.00999973
0.00999975
0.00999976
0.00999977
0.00999979
0.0099998
0.00999981
0.00999982
0.00999983
0.00999984
0.00999985
0.00999986
0.00999987
0.00999988
0.00999988
0.00999989
0.0099999
0.0099999
0.00999991
0.00999991
0.00999992
0.00999992
0.00999993
0.00999993
0.00999994
0.00999994
0.00999994
0.00999995
0.00999995
0.00999995
0.00999996
0.00999996
0.00999996
0.00999996
0.00999997
0.00999997
0.00999997
0.00999997
0.00999997
0.00999998
0.00999998
0.00999998
0.00999998
0.00999998
0.00999998
0.00999998
0.00999998
0.00999998
0.00999999
0.00999999
0.00999999
0.00999999
0.00999999
0.00999999
0.00999999
0.00999999
0.00999999
0.00999999
0.00999999
0.00999999
0.00999999
0.00999999
0.00999999
0.00999999
0.00999999
0.01
0.01
0.01
0.01
0.01
0.01
0.01
0.01
0.01
0.01
0.01
0.01
0.01
0.01
0.01
0.01
0.01
0.01
0.01
0.01
0.01
0.01
0.01
0.01
0.01
0.01
0.01
0.01
0.01
0.01
0.01
0.01
0.01
0.01
0.01
0.01
0.01
0.01
0.01
0.01
0.01
0.01
0.01
0.01
0.01
0.01
0.01
0.01
0.01
0.01
0.01
0.01
0.01
0.01
0.01
0.01
0.01
0.01
0.01
0.01
0.01
0.01
0.01
0.01
0.01
0.01
0.01
0.01
0.01
0.01
0.01
0.01
0.01
0.01
0.01
0.01
0.01
0.01
0.01
0.01
0.01
0.01
0.01
0.01
0.01
0.01
0.01
0.01
0.01
0.01
0.01
0.01
0.01
0.01
0.01
0.01
0.01
0.01
0.01
0.01
0.01
0.01
0.01
0.01
0.01
0.01
0.01
0.01
0.01
0.01
0.01
0.01
0.01
0.01
0.01
0.01
0.01
0.01
0.01
0.01
0.01
0.01
0.01
0.01
0.01
0.01
0.01
0.01
0.01
0.01
0.01
0.01
0.01
0.01
0.01
0.01
0.01
0.01
0.01
0.01
0.01
0.01
0.01
0.01
0.01
)
;
    }
    Wall
    {
        type            calculated;
        value           nonuniform List<scalar> 
400
(
0.00265328
0.00287577
0.00308655
0.00329104
0.00349178
0.00369004
0.0038864
0.00408112
0.00427421
0.00446558
0.00465505
0.00484238
0.00502733
0.00520962
0.00538899
0.0055652
0.005738
0.00590717
0.00607252
0.00623387
0.00639108
0.00654402
0.00669259
0.00683672
0.00697634
0.00711144
0.007242
0.00736801
0.00748952
0.00760655
0.00771915
0.0078274
0.00793135
0.00803111
0.00812675
0.00821839
0.00830611
0.00839003
0.00847026
0.00854692
0.00862012
0.00868997
0.0087566
0.00882012
0.00888065
0.00893829
0.00899318
0.00904541
0.00909509
0.00914234
0.00918726
0.00922994
0.00927049
0.009309
0.00934557
0.00938028
0.00941321
0.00944446
0.00947411
0.00950222
0.00952887
0.00955414
0.00957809
0.00960079
0.00962229
0.00964267
0.00966197
0.00968025
0.00969755
0.00971394
0.00972946
0.00974415
0.00975806
0.00977122
0.00978367
0.00979546
0.00980661
0.00981716
0.00982715
0.00983659
0.00984553
0.00985398
0.00986197
0.00986953
0.00987668
0.00988344
0.00988983
0.00989588
0.0099016
0.009907
0.00991211
0.00991695
0.00992151
0.00992583
0.00992992
0.00993377
0.00993742
0.00994087
0.00994413
0.00994721
0.00995012
0.00995288
0.00995548
0.00995794
0.00996026
0.00996246
0.00996453
0.00996649
0.00996835
0.0099701
0.00997176
0.00997332
0.0099748
0.00997619
0.00997751
0.00997876
0.00997994
0.00998105
0.0099821
0.0099831
0.00998404
0.00998492
0.00998576
0.00998655
0.0099873
0.00998801
0.00998868
0.00998931
0.0099899
0.00999047
0.009991
0.0099915
0.00999197
0.00999242
0.00999285
0.00999325
0.00999362
0.00999398
0.00999432
0.00999464
0.00999494
0.00999522
0.00999549
0.00999574
0.00999598
0.00999621
0.00999642
0.00999662
0.00999681
0.00999699
0.00999716
0.00999732
0.00999747
0.00999761
0.00999775
0.00999788
0.009998
0.00999811
0.00999822
0.00999832
0.00999841
0.0099985
0.00999859
0.00999867
0.00999874
0.00999882
0.00999888
0.00999895
0.00999901
0.00999906
0.00999912
0.00999917
0.00999921
0.00999926
0.0099993
0.00999934
0.00999938
0.00999942
0.00999945
0.00999948
0.00999951
0.00999954
0.00999957
0.00999959
0.00999961
0.00999964
0.00999966
0.00999968
0.0099997
0.00999971
0.00999973
0.00999975
0.00999976
0.00999977
0.00999979
0.0099998
0.00999981
0.00999982
0.00999983
0.00999984
0.00999985
0.00999986
0.00999987
0.00999988
0.00999988
0.00999989
0.0099999
0.0099999
0.00999991
0.00999991
0.00999992
0.00999992
0.00999993
0.00999993
0.00999994
0.00999994
0.00999994
0.00999995
0.00999995
0.00999995
0.00999996
0.00999996
0.00999996
0.00999996
0.00999997
0.00999997
0.00999997
0.00999997
0.00999997
0.00999998
0.00999998
0.00999998
0.00999998
0.00999998
0.00999998
0.00999998
0.00999998
0.00999998
0.00999999
0.00999999
0.00999999
0.00999999
0.00999999
0.00999999
0.00999999
0.00999999
0.00999999
0.00999999
0.00999999
0.00999999
0.00999999
0.00999999
0.00999999
0.00999999
0.00999999
0.01
0.01
0.01
0.01
0.01
0.01
0.01
0.01
0.01
0.01
0.01
0.01
0.01
0.01
0.01
0.01
0.01
0.01
0.01
0.01
0.01
0.01
0.01
0.01
0.01
0.01
0.01
0.01
0.01
0.01
0.01
0.01
0.01
0.01
0.01
0.01
0.01
0.01
0.01
0.01
0.01
0.01
0.01
0.01
0.01
0.01
0.01
0.01
0.01
0.01
0.01
0.01
0.01
0.01
0.01
0.01
0.01
0.01
0.01
0.01
0.01
0.01
0.01
0.01
0.01
0.01
0.01
0.01
0.01
0.01
0.01
0.01
0.01
0.01
0.01
0.01
0.01
0.01
0.01
0.01
0.01
0.01
0.01
0.01
0.01
0.01
0.01
0.01
0.01
0.01
0.01
0.01
0.01
0.01
0.01
0.01
0.01
0.01
0.01
0.01
0.01
0.01
0.01
0.01
0.01
0.01
0.01
0.01
0.01
0.01
0.01
0.01
0.01
0.01
0.01
0.01
0.01
0.01
0.01
0.01
0.01
0.01
0.01
0.01
0.01
0.01
0.01
0.01
0.01
0.01
0.01
0.01
0.01
0.01
0.01
0.01
0.01
0.01
0.01
0.01
0.01
0.01
0.01
0.01
0.01
)
;
    }
}


// ************************************************************************* //
