/*--------------------------------*- C++ -*----------------------------------*\
  =========                 |
  \\      /  F ield         | OpenFOAM: The Open Source CFD Toolbox
   \\    /   O peration     | Website:  https://openfoam.org
    \\  /    A nd           | Version:  10
     \\/     M anipulation  |
\*---------------------------------------------------------------------------*/
FoamFile
{
    format      ascii;
    class       volScalarField;
    location    "0.32";
    object      cov;
}
// * * * * * * * * * * * * * * * * * * * * * * * * * * * * * * * * * * * * * //

dimensions      [0 0 0 0 0 0 0];

internalField   uniform 0;

boundaryField
{
    frontAndBack
    {
        type            empty;
    }
    inlet
    {
        type            calculated;
        value           uniform 0;
    }
    outlet
    {
        type            calculated;
        value           uniform 0;
    }
    substrate
    {
        type            calculated;
        value           nonuniform List<scalar> 
400
(
0.734672
0.712424
0.691345
0.670896
0.650822
0.630997
0.61136
0.591889
0.572579
0.553442
0.534495
0.515762
0.497267
0.479038
0.4611
0.443479
0.426199
0.409281
0.392746
0.37661
0.360889
0.345595
0.330737
0.316325
0.302362
0.288852
0.275796
0.263194
0.251043
0.23934
0.22808
0.217255
0.20686
0.196884
0.18732
0.178156
0.169384
0.160992
0.152969
0.145303
0.137983
0.130998
0.124335
0.117983
0.111931
0.106166
0.100678
0.0954549
0.0904864
0.0857617
0.0812703
0.0770022
0.0729474
0.0690964
0.06544
0.0619693
0.0586756
0.0555507
0.0525866
0.0497755
0.0471101
0.0445834
0.0421885
0.0399189
0.0377684
0.0357312
0.0338014
0.0319736
0.0302428
0.0286039
0.0270523
0.0255834
0.024193
0.022877
0.0216315
0.0204529
0.0193377
0.0182826
0.0172843
0.0163399
0.0154465
0.0146015
0.0138022
0.0130463
0.0123314
0.0116553
0.0110159
0.0104114
0.0098397
0.00929918
0.00878813
0.00830496
0.00784817
0.00741632
0.00700808
0.00662216
0.00625735
0.00591251
0.00558656
0.00527846
0.00498725
0.00471201
0.00445188
0.00420601
0.00397365
0.00375405
0.00354651
0.00335038
0.00316503
0.00298988
0.00282437
0.00266796
0.00252017
0.00238051
0.00224855
0.00212386
0.00200604
0.00189472
0.00178954
0.00169016
0.00159627
0.00150756
0.00142375
0.00134456
0.00126976
0.00119908
0.00113232
0.00106924
0.00100966
0.000953372
0.000900201
0.000849973
0.000802527
0.000757711
0.000715378
0.000675391
0.000637623
0.00060195
0.000568256
0.000536433
0.000506378
0.000477992
0.000451184
0.000425866
0.000401956
0.000379377
0.000358054
0.000337919
0.000318905
0.000300951
0.000283999
0.000267991
0.000252877
0.000238607
0.000225133
0.000212413
0.000200404
0.000189066
0.000178363
0.000168259
0.000158721
0.000149718
0.000141219
0.000133197
0.000125626
0.00011848
0.000111735
0.00010537
9.93631e-05
9.36942e-05
8.83446e-05
8.32965e-05
7.85332e-05
7.40387e-05
6.97981e-05
6.5797e-05
6.20223e-05
5.84611e-05
5.51016e-05
5.19325e-05
4.89431e-05
4.61233e-05
4.34636e-05
4.09551e-05
3.85893e-05
3.63581e-05
3.4254e-05
3.22699e-05
3.03989e-05
2.86348e-05
2.69715e-05
2.54033e-05
2.39248e-05
2.25311e-05
2.12172e-05
1.99788e-05
1.88114e-05
1.77112e-05
1.66743e-05
1.5697e-05
1.47762e-05
1.39084e-05
1.30907e-05
1.23203e-05
1.15945e-05
1.09107e-05
1.02665e-05
9.65976e-06
9.08822e-06
8.5499e-06
8.04291e-06
7.56546e-06
7.11584e-06
6.69247e-06
6.29385e-06
5.91853e-06
5.5652e-06
5.23258e-06
4.91947e-06
4.62476e-06
4.34738e-06
4.08634e-06
3.84067e-06
3.60951e-06
3.39199e-06
3.18734e-06
2.99481e-06
2.81369e-06
2.64331e-06
2.48306e-06
2.33234e-06
2.1906e-06
2.0573e-06
1.93196e-06
1.81411e-06
1.70331e-06
1.59915e-06
1.50123e-06
1.4092e-06
1.3227e-06
1.2414e-06
1.16501e-06
1.09322e-06
1.02577e-06
9.62405e-07
9.02874e-07
8.46954e-07
7.9443e-07
7.45099e-07
6.98771e-07
6.55267e-07
6.14419e-07
5.76066e-07
5.4006e-07
5.06261e-07
4.74535e-07
4.44758e-07
4.16812e-07
3.90588e-07
3.65981e-07
3.42893e-07
3.21234e-07
3.00915e-07
2.81856e-07
2.6398e-07
2.47216e-07
2.31495e-07
2.16754e-07
2.02933e-07
1.89976e-07
1.7783e-07
1.66445e-07
1.55774e-07
1.45774e-07
1.36403e-07
1.27623e-07
1.19397e-07
1.11691e-07
1.04472e-07
9.77102e-08
9.13778e-08
8.54476e-08
7.98947e-08
7.46956e-08
6.98281e-08
6.52716e-08
6.10066e-08
5.70149e-08
5.32792e-08
4.97835e-08
4.65126e-08
4.34525e-08
4.05898e-08
3.7912e-08
3.54074e-08
3.30651e-08
3.08747e-08
2.88266e-08
2.69118e-08
2.51216e-08
2.34483e-08
2.18843e-08
2.04225e-08
1.90566e-08
1.77802e-08
1.65877e-08
1.54737e-08
1.4433e-08
1.3461e-08
1.25532e-08
1.17054e-08
1.09138e-08
1.01748e-08
9.48481e-09
8.84075e-09
8.23959e-09
7.67854e-09
7.15498e-09
6.66644e-09
6.21064e-09
5.78541e-09
5.38876e-09
5.01879e-09
4.67375e-09
4.35199e-09
4.05197e-09
3.77225e-09
3.51148e-09
3.26841e-09
3.04185e-09
2.83071e-09
2.63396e-09
2.45063e-09
2.27983e-09
2.12071e-09
1.9725e-09
1.83446e-09
1.70591e-09
1.5862e-09
1.47475e-09
1.37098e-09
1.27439e-09
1.18448e-09
1.1008e-09
1.02294e-09
9.50481e-10
8.8307e-10
8.20358e-10
7.62025e-10
7.07771e-10
6.57316e-10
6.10399e-10
5.66779e-10
5.26227e-10
4.88533e-10
4.535e-10
4.20944e-10
3.90693e-10
3.62589e-10
3.36482e-10
3.12235e-10
2.89718e-10
2.68811e-10
2.49403e-10
2.31389e-10
2.14673e-10
1.99164e-10
1.84778e-10
1.71437e-10
1.5907e-10
1.47607e-10
1.36988e-10
1.27152e-10
1.18048e-10
1.09623e-10
1.01832e-10
9.46313e-11
8.79811e-11
8.18444e-11
7.61868e-11
7.09768e-11
6.6185e-11
6.17845e-11
5.77507e-11
5.40606e-11
5.06934e-11
4.76301e-11
4.48532e-11
4.2347e-11
4.00972e-11
3.80909e-11
3.63166e-11
3.47643e-11
3.34249e-11
3.22909e-11
3.13557e-11
3.0614e-11
3.00613e-11
2.96947e-11
2.95119e-11
)
;
    }
    Wall
    {
        type            calculated;
        value           nonuniform List<scalar> 
400
(
0.734672
0.712423
0.691345
0.670896
0.650822
0.630996
0.61136
0.591888
0.572579
0.553442
0.534495
0.515762
0.497267
0.479038
0.461101
0.44348
0.4262
0.409283
0.392748
0.376613
0.360892
0.345598
0.330741
0.316328
0.302366
0.288856
0.2758
0.263199
0.251048
0.239345
0.228085
0.21726
0.206865
0.196889
0.187325
0.178161
0.169389
0.160997
0.152974
0.145308
0.137988
0.131003
0.12434
0.117988
0.111935
0.106171
0.100682
0.0954591
0.0904905
0.0857657
0.0812741
0.0770058
0.0729509
0.0690998
0.0654433
0.0619725
0.0586787
0.0555537
0.0525894
0.0497782
0.0471127
0.0445858
0.0421908
0.0399211
0.0377706
0.0357332
0.0338033
0.0319755
0.0302446
0.0286056
0.0270539
0.0255849
0.0241944
0.0228783
0.0216328
0.0204542
0.0193389
0.0182837
0.0172853
0.0163409
0.0154474
0.0146024
0.013803
0.0130471
0.0123321
0.0116559
0.0110166
0.0104119
0.00984025
0.0092997
0.00878862
0.00830542
0.00784859
0.00741672
0.00700845
0.00662251
0.00625768
0.00591282
0.00558684
0.00527873
0.0049875
0.00471225
0.00445209
0.00420621
0.00397383
0.00375422
0.00354667
0.00335053
0.00316517
0.00299001
0.00282449
0.00266807
0.00252027
0.00238061
0.00224864
0.00212394
0.00200612
0.00189479
0.0017896
0.00169022
0.00159632
0.00150761
0.00142379
0.00134461
0.0012698
0.00119912
0.00113235
0.00106928
0.00100969
0.000953399
0.000900225
0.000849996
0.000802548
0.00075773
0.000715395
0.000675408
0.000637638
0.000601964
0.000568269
0.000536445
0.000506388
0.000478002
0.000451193
0.000425874
0.000401964
0.000379384
0.000358061
0.000337925
0.000318911
0.000300956
0.000284003
0.000267995
0.000252881
0.00023861
0.000225136
0.000212416
0.000200406
0.000189068
0.000178365
0.000168261
0.000158723
0.000149719
0.000141221
0.000133199
0.000125627
0.000118481
0.000111737
0.000105371
9.9364e-05
9.3695e-05
8.83454e-05
8.32972e-05
7.85339e-05
7.40393e-05
6.97986e-05
6.57975e-05
6.20227e-05
5.84616e-05
5.5102e-05
5.19329e-05
4.89434e-05
4.61236e-05
4.34639e-05
4.09554e-05
3.85896e-05
3.63584e-05
3.42543e-05
3.22701e-05
3.03991e-05
2.8635e-05
2.69716e-05
2.54034e-05
2.3925e-05
2.25312e-05
2.12173e-05
1.99789e-05
1.88115e-05
1.77113e-05
1.66744e-05
1.56971e-05
1.47762e-05
1.39085e-05
1.30908e-05
1.23204e-05
1.15946e-05
1.09108e-05
1.02666e-05
9.65982e-06
9.08827e-06
8.54995e-06
8.04296e-06
7.5655e-06
7.11589e-06
6.69252e-06
6.29389e-06
5.91857e-06
5.56524e-06
5.23261e-06
4.91951e-06
4.6248e-06
4.34742e-06
4.08637e-06
3.8407e-06
3.60953e-06
3.39202e-06
3.18737e-06
2.99483e-06
2.81371e-06
2.64334e-06
2.48308e-06
2.33236e-06
2.19061e-06
2.05732e-06
1.93198e-06
1.81413e-06
1.70333e-06
1.59916e-06
1.50125e-06
1.40921e-06
1.32271e-06
1.24141e-06
1.16502e-06
1.09323e-06
1.02578e-06
9.62415e-07
9.02884e-07
8.46964e-07
7.94439e-07
7.45107e-07
6.98779e-07
6.55275e-07
6.14426e-07
5.76073e-07
5.40067e-07
5.06267e-07
4.74541e-07
4.44763e-07
4.16818e-07
3.90593e-07
3.65986e-07
3.42898e-07
3.21238e-07
3.00919e-07
2.8186e-07
2.63984e-07
2.47219e-07
2.31498e-07
2.16757e-07
2.02936e-07
1.89979e-07
1.77832e-07
1.66447e-07
1.55777e-07
1.45777e-07
1.36406e-07
1.27625e-07
1.19399e-07
1.11692e-07
1.04474e-07
9.77119e-08
9.13794e-08
8.54491e-08
7.98961e-08
7.46969e-08
6.98294e-08
6.52729e-08
6.10078e-08
5.7016e-08
5.32802e-08
4.97844e-08
4.65136e-08
4.34534e-08
4.05906e-08
3.79128e-08
3.54081e-08
3.30658e-08
3.08754e-08
2.88272e-08
2.69123e-08
2.51222e-08
2.34488e-08
2.18847e-08
2.0423e-08
1.9057e-08
1.77806e-08
1.65881e-08
1.5474e-08
1.44333e-08
1.34613e-08
1.25535e-08
1.17057e-08
1.09141e-08
1.0175e-08
9.48505e-09
8.84097e-09
8.23981e-09
7.67874e-09
7.15517e-09
6.66662e-09
6.2108e-09
5.78557e-09
5.3889e-09
5.01893e-09
4.67388e-09
4.35211e-09
4.05208e-09
3.77236e-09
3.51158e-09
3.2685e-09
3.04194e-09
2.83079e-09
2.63404e-09
2.4507e-09
2.2799e-09
2.12078e-09
1.97256e-09
1.83452e-09
1.70596e-09
1.58625e-09
1.47479e-09
1.37103e-09
1.27443e-09
1.18452e-09
1.10084e-09
1.02297e-09
9.50514e-10
8.831e-10
8.20387e-10
7.62051e-10
7.07795e-10
6.57339e-10
6.10421e-10
5.66799e-10
5.26246e-10
4.88551e-10
4.53517e-10
4.20959e-10
3.90708e-10
3.62603e-10
3.36495e-10
3.12247e-10
2.89729e-10
2.68822e-10
2.49413e-10
2.31398e-10
2.14681e-10
1.99172e-10
1.84785e-10
1.71444e-10
1.59076e-10
1.47613e-10
1.36993e-10
1.27158e-10
1.18053e-10
1.09628e-10
1.01836e-10
9.46353e-11
8.79849e-11
8.18479e-11
7.61901e-11
7.09798e-11
6.61878e-11
6.17872e-11
5.77532e-11
5.40629e-11
5.06956e-11
4.76322e-11
4.48552e-11
4.23489e-11
4.00989e-11
3.80925e-11
3.63182e-11
3.47658e-11
3.34264e-11
3.22924e-11
3.13572e-11
3.06154e-11
3.00627e-11
2.96957e-11
2.95126e-11
)
;
    }
}


// ************************************************************************* //
