/*--------------------------------*- C++ -*----------------------------------*\
  =========                 |
  \\      /  F ield         | OpenFOAM: The Open Source CFD Toolbox
   \\    /   O peration     | Website:  https://openfoam.org
    \\  /    A nd           | Version:  10
     \\/     M anipulation  |
\*---------------------------------------------------------------------------*/
FoamFile
{
    format      ascii;
    class       volScalarField;
    location    "0.32";
    object      N1;
}
// * * * * * * * * * * * * * * * * * * * * * * * * * * * * * * * * * * * * * //

dimensions      [0 0 0 0 0 0 0];

internalField   nonuniform List<scalar> 
8000
(
3.21156e-06
9.6206e-06
1.59922e-05
2.2307e-05
2.85481e-05
3.47004e-05
4.07506e-05
4.66869e-05
5.24986e-05
5.81764e-05
6.37124e-05
6.90995e-05
7.43318e-05
7.94044e-05
8.43132e-05
8.9055e-05
9.36276e-05
9.80293e-05
0.000102259
0.000106317
0.000110202
0.000113917
0.000117461
0.000120836
0.000124045
0.000127089
0.00012997
0.000132692
0.000135257
0.000137669
0.000139929
0.000142042
0.00014401
0.000145837
0.000147527
0.000149082
0.000150506
0.000151802
0.000152974
0.000154026
0.000154959
0.000155778
0.000156487
0.000157087
0.000157582
0.000157976
0.000158271
0.000158471
0.000158578
0.000158595
0.000158526
0.000158372
0.000158137
0.000157823
0.000157434
0.00015697
0.000156436
0.000155834
0.000155166
0.000154434
0.000153641
0.000152789
0.000151881
0.000150918
0.000149903
0.000148838
0.000147726
0.000146568
0.000145366
0.000144122
0.000142838
0.000141517
0.00014016
0.000138769
0.000137346
0.000135892
0.00013441
0.000132901
0.000131367
0.00012981
0.00012823
0.000126631
0.000125013
0.000123378
0.000121727
0.000120062
0.000118385
0.000116696
0.000114998
0.000113291
0.000111577
0.000109858
0.000108134
0.000106406
0.000104677
0.000102946
0.000101216
9.94866e-05
9.77598e-05
9.60365e-05
9.43177e-05
9.26042e-05
9.0897e-05
8.9197e-05
8.75052e-05
8.58223e-05
8.41492e-05
8.24867e-05
8.08355e-05
7.91963e-05
7.75699e-05
7.59569e-05
7.43578e-05
7.27734e-05
7.12042e-05
6.96507e-05
6.81135e-05
6.6593e-05
6.50897e-05
6.3604e-05
6.21363e-05
6.0687e-05
5.92564e-05
5.78449e-05
5.64528e-05
5.50802e-05
5.37275e-05
5.23949e-05
5.10826e-05
4.97907e-05
4.85195e-05
4.72689e-05
4.60392e-05
4.48305e-05
4.36427e-05
4.2476e-05
4.13304e-05
4.02058e-05
3.91023e-05
3.80199e-05
3.69585e-05
3.5918e-05
3.48984e-05
3.38996e-05
3.29215e-05
3.1964e-05
3.10269e-05
3.01102e-05
2.92135e-05
2.83369e-05
2.74801e-05
2.66429e-05
2.58251e-05
2.50266e-05
2.42471e-05
2.34864e-05
2.27442e-05
2.20204e-05
2.13147e-05
2.06269e-05
1.99566e-05
1.93037e-05
1.86679e-05
1.80489e-05
1.74464e-05
1.68602e-05
1.629e-05
1.57355e-05
1.51965e-05
1.46726e-05
1.41636e-05
1.36692e-05
1.31891e-05
1.2723e-05
1.22706e-05
1.18318e-05
1.14061e-05
1.09932e-05
1.0593e-05
1.02051e-05
9.82932e-06
9.46526e-06
9.11269e-06
8.77136e-06
8.44098e-06
8.12128e-06
7.81201e-06
7.5129e-06
7.2237e-06
6.94414e-06
6.67397e-06
6.41296e-06
6.16084e-06
5.91738e-06
5.68234e-06
5.45549e-06
5.2366e-06
5.02544e-06
4.82178e-06
4.62542e-06
4.43613e-06
4.2537e-06
4.07794e-06
3.90863e-06
3.74559e-06
3.58861e-06
3.4375e-06
3.29209e-06
3.15219e-06
3.01763e-06
2.88822e-06
2.76381e-06
2.64423e-06
2.52931e-06
2.41891e-06
2.31286e-06
2.21102e-06
2.11326e-06
2.01941e-06
1.92935e-06
1.84295e-06
1.76007e-06
1.6806e-06
1.6044e-06
1.53135e-06
1.46135e-06
1.39429e-06
1.33004e-06
1.26851e-06
1.2096e-06
1.1532e-06
1.09923e-06
1.04758e-06
9.98168e-07
9.50911e-07
9.05721e-07
8.62517e-07
8.21221e-07
7.81757e-07
7.44052e-07
7.08034e-07
6.73636e-07
6.40792e-07
6.09438e-07
5.79512e-07
5.50955e-07
5.23711e-07
4.97724e-07
4.72941e-07
4.49311e-07
4.26786e-07
4.05318e-07
3.84861e-07
3.65372e-07
3.46809e-07
3.2913e-07
3.12298e-07
2.96275e-07
2.81025e-07
2.66514e-07
2.52708e-07
2.39575e-07
2.27087e-07
2.15212e-07
2.03923e-07
1.93193e-07
1.82997e-07
1.73309e-07
1.64107e-07
1.55367e-07
1.47068e-07
1.39189e-07
1.31709e-07
1.24611e-07
1.17876e-07
1.11487e-07
1.05426e-07
9.96789e-08
9.42294e-08
8.90632e-08
8.41665e-08
7.95261e-08
7.51294e-08
7.09643e-08
6.70194e-08
6.32835e-08
5.97464e-08
5.6398e-08
5.32288e-08
5.02296e-08
4.7392e-08
4.47077e-08
4.21687e-08
3.97677e-08
3.74976e-08
3.53515e-08
3.33231e-08
3.14062e-08
2.9595e-08
2.7884e-08
2.62679e-08
2.47416e-08
2.33005e-08
2.19399e-08
2.06557e-08
1.94437e-08
1.83e-08
1.72211e-08
1.62033e-08
1.52433e-08
1.43382e-08
1.34847e-08
1.26802e-08
1.19219e-08
1.12073e-08
1.05339e-08
9.89959e-09
9.3021e-09
8.73939e-09
8.20952e-09
7.71065e-09
7.24105e-09
6.79907e-09
6.38314e-09
5.99179e-09
5.62363e-09
5.27734e-09
4.95166e-09
4.64542e-09
4.3575e-09
4.08684e-09
3.83246e-09
3.5934e-09
3.36878e-09
3.15777e-09
2.95955e-09
2.7734e-09
2.59859e-09
2.43447e-09
2.2804e-09
2.13579e-09
2.00008e-09
1.87273e-09
1.75327e-09
1.6412e-09
1.5361e-09
1.43753e-09
1.34512e-09
1.25849e-09
1.17729e-09
1.10119e-09
1.02989e-09
9.63086e-10
9.00512e-10
8.41909e-10
7.87034e-10
7.35658e-10
6.87568e-10
6.42562e-10
6.00449e-10
5.61052e-10
5.24203e-10
4.89745e-10
4.5753e-10
4.2742e-10
3.99284e-10
3.73e-10
3.48454e-10
3.25538e-10
3.04151e-10
2.842e-10
2.65594e-10
2.48253e-10
2.32099e-10
2.17058e-10
2.03064e-10
1.90053e-10
1.77967e-10
1.6675e-10
1.56351e-10
1.46723e-10
1.37821e-10
1.29605e-10
1.22037e-10
1.15081e-10
1.08706e-10
1.02881e-10
9.75791e-11
9.27761e-11
8.84491e-11
8.45778e-11
8.11441e-11
7.81316e-11
7.55262e-11
7.33156e-11
7.14892e-11
7.00385e-11
6.89564e-11
6.82378e-11
6.78793e-11
3.24441e-06
9.72204e-06
1.61676e-05
2.25624e-05
2.88897e-05
3.51343e-05
4.12827e-05
4.73226e-05
5.32432e-05
5.90348e-05
6.46887e-05
7.01976e-05
7.55549e-05
8.07553e-05
8.57941e-05
9.06678e-05
9.53733e-05
9.99086e-05
0.000104272
0.000108463
0.000112482
0.000116327
0.000120001
0.000123504
0.000126838
0.000130005
0.000133006
0.000135844
0.000138522
0.000141043
0.000143408
0.000145622
0.000147688
0.000149608
0.000151386
0.000153025
0.000154529
0.0001559
0.000157143
0.000158261
0.000159256
0.000160133
0.000160894
0.000161543
0.000162083
0.000162518
0.000162849
0.000163081
0.000163216
0.000163258
0.000163209
0.000163073
0.000162851
0.000162548
0.000162165
0.000161705
0.000161172
0.000160567
0.000159893
0.000159153
0.000158348
0.000157483
0.000156558
0.000155577
0.000154541
0.000153453
0.000152316
0.00015113
0.000149899
0.000148624
0.000147307
0.000145951
0.000144558
0.000143129
0.000141667
0.000140173
0.000138649
0.000137097
0.000135519
0.000133916
0.00013229
0.000130644
0.000128977
0.000127293
0.000125593
0.000123878
0.00012215
0.00012041
0.00011866
0.000116901
0.000115134
0.000113361
0.000111584
0.000109803
0.000108019
0.000106235
0.00010445
0.000102667
0.000100886
9.91086e-05
9.73356e-05
9.55681e-05
9.38071e-05
9.20534e-05
9.03081e-05
8.85719e-05
8.68458e-05
8.51305e-05
8.34269e-05
8.17356e-05
8.00574e-05
7.8393e-05
7.67431e-05
7.51082e-05
7.34889e-05
7.18859e-05
7.02996e-05
6.87305e-05
6.71792e-05
6.5646e-05
6.41314e-05
6.26357e-05
6.11594e-05
5.97027e-05
5.82659e-05
5.68494e-05
5.54534e-05
5.40781e-05
5.27237e-05
5.13904e-05
5.00784e-05
4.87878e-05
4.75186e-05
4.62711e-05
4.50452e-05
4.38411e-05
4.26587e-05
4.1498e-05
4.03591e-05
3.9242e-05
3.81465e-05
3.70726e-05
3.60202e-05
3.49894e-05
3.39799e-05
3.29916e-05
3.20244e-05
3.10782e-05
3.01527e-05
2.92479e-05
2.83636e-05
2.74995e-05
2.66554e-05
2.58312e-05
2.50267e-05
2.42415e-05
2.34755e-05
2.27285e-05
2.20001e-05
2.12901e-05
2.05983e-05
1.99244e-05
1.92681e-05
1.86292e-05
1.80074e-05
1.74023e-05
1.68138e-05
1.62415e-05
1.56851e-05
1.51444e-05
1.4619e-05
1.41087e-05
1.36132e-05
1.31321e-05
1.26652e-05
1.22122e-05
1.17728e-05
1.13468e-05
1.09337e-05
1.05333e-05
1.01454e-05
9.76964e-06
9.40574e-06
9.05343e-06
8.71242e-06
8.38245e-06
8.06323e-06
7.7545e-06
7.456e-06
7.16745e-06
6.8886e-06
6.61919e-06
6.35896e-06
6.10767e-06
5.86508e-06
5.63093e-06
5.405e-06
5.18705e-06
4.97684e-06
4.77416e-06
4.57879e-06
4.3905e-06
4.20908e-06
4.03433e-06
3.86604e-06
3.70401e-06
3.54805e-06
3.39796e-06
3.25356e-06
3.11467e-06
2.9811e-06
2.85269e-06
2.72926e-06
2.61065e-06
2.49669e-06
2.38724e-06
2.28213e-06
2.18121e-06
2.08435e-06
1.9914e-06
1.90222e-06
1.81668e-06
1.73464e-06
1.65599e-06
1.5806e-06
1.50835e-06
1.43912e-06
1.37281e-06
1.3093e-06
1.2485e-06
1.19029e-06
1.13457e-06
1.08127e-06
1.03027e-06
9.81491e-07
9.34848e-07
8.90254e-07
8.4763e-07
8.06897e-07
7.6798e-07
7.30804e-07
6.953e-07
6.61399e-07
6.29036e-07
5.98148e-07
5.68673e-07
5.40552e-07
5.1373e-07
4.8815e-07
4.63761e-07
4.40511e-07
4.18352e-07
3.97238e-07
3.77122e-07
3.57961e-07
3.39715e-07
3.22341e-07
3.05803e-07
2.90062e-07
2.75084e-07
2.60834e-07
2.4728e-07
2.34389e-07
2.22133e-07
2.10481e-07
1.99406e-07
1.88882e-07
1.78883e-07
1.69384e-07
1.60363e-07
1.51797e-07
1.43665e-07
1.35945e-07
1.28619e-07
1.21667e-07
1.15072e-07
1.08817e-07
1.02884e-07
9.72596e-08
9.19273e-08
8.68732e-08
8.20836e-08
7.75455e-08
7.32464e-08
6.91746e-08
6.53186e-08
6.16678e-08
5.82117e-08
5.49405e-08
5.18449e-08
4.89161e-08
4.61454e-08
4.35248e-08
4.10466e-08
3.87034e-08
3.64884e-08
3.43947e-08
3.24162e-08
3.05468e-08
2.87807e-08
2.71126e-08
2.55372e-08
2.40498e-08
2.26455e-08
2.13199e-08
2.0069e-08
1.88885e-08
1.77749e-08
1.67243e-08
1.57335e-08
1.47992e-08
1.39183e-08
1.30879e-08
1.23052e-08
1.15677e-08
1.08727e-08
1.02179e-08
9.60124e-09
9.02043e-09
8.47352e-09
7.95861e-09
7.47391e-09
7.01771e-09
6.58841e-09
6.18448e-09
5.80448e-09
5.44704e-09
5.11089e-09
4.7948e-09
4.49762e-09
4.21827e-09
3.9557e-09
3.70896e-09
3.47712e-09
3.25931e-09
3.05473e-09
2.86259e-09
2.68216e-09
2.51276e-09
2.35373e-09
2.20447e-09
2.06439e-09
1.93296e-09
1.80965e-09
1.69398e-09
1.58549e-09
1.48376e-09
1.38838e-09
1.29896e-09
1.21515e-09
1.1366e-09
1.06301e-09
9.94057e-10
9.29471e-10
8.68983e-10
8.12343e-10
7.59315e-10
7.09679e-10
6.63225e-10
6.19758e-10
5.79094e-10
5.4106e-10
5.05494e-10
4.72244e-10
4.41165e-10
4.12124e-10
3.84995e-10
3.5966e-10
3.36007e-10
3.13932e-10
2.93339e-10
2.74135e-10
2.56237e-10
2.39562e-10
2.24038e-10
2.09594e-10
1.96165e-10
1.8369e-10
1.72112e-10
1.61379e-10
1.51441e-10
1.42253e-10
1.33773e-10
1.25962e-10
1.18782e-10
1.12201e-10
1.06189e-10
1.00717e-10
9.57595e-11
9.12934e-11
8.72977e-11
8.37535e-11
8.06442e-11
7.7955e-11
7.56733e-11
7.37882e-11
7.22908e-11
7.11739e-11
7.04321e-11
7.00621e-11
3.27659e-06
9.82005e-06
1.63348e-05
2.28031e-05
2.92086e-05
3.55364e-05
4.17728e-05
4.79054e-05
5.39231e-05
5.98159e-05
6.55747e-05
7.11918e-05
7.66602e-05
8.19741e-05
8.71285e-05
9.21192e-05
9.69428e-05
0.000101597
0.000106079
0.000110389
0.000114525
0.000118488
0.000122277
0.000125894
0.00012934
0.000132616
0.000135724
0.000138666
0.000141445
0.000144063
0.000146523
0.000148827
0.00015098
0.000152983
0.00015484
0.000156555
0.00015813
0.000159569
0.000160875
0.000162052
0.000163103
0.000164032
0.000164841
0.000165534
0.000166114
0.000166584
0.000166949
0.00016721
0.000167371
0.000167435
0.000167405
0.000167284
0.000167075
0.00016678
0.000166404
0.000165948
0.000165415
0.000164808
0.000164129
0.000163381
0.000162568
0.00016169
0.000160751
0.000159753
0.000158699
0.00015759
0.00015643
0.00015522
0.000153962
0.00015266
0.000151314
0.000149927
0.000148501
0.000147039
0.000145541
0.000144011
0.000142449
0.000140859
0.000139241
0.000137598
0.000135931
0.000134242
0.000132533
0.000130805
0.00012906
0.0001273
0.000125526
0.00012374
0.000121944
0.000120138
0.000118324
0.000116503
0.000114678
0.000112849
0.000111017
0.000109184
0.000107351
0.000105519
0.00010369
0.000101864
0.000100043
9.82266e-05
9.64172e-05
9.46154e-05
9.28221e-05
9.10381e-05
8.92644e-05
8.75019e-05
8.57512e-05
8.40132e-05
8.22886e-05
8.05782e-05
7.88826e-05
7.72024e-05
7.55383e-05
7.38908e-05
7.22605e-05
7.06478e-05
6.90534e-05
6.74776e-05
6.59209e-05
6.43837e-05
6.28663e-05
6.13691e-05
5.98924e-05
5.84364e-05
5.70015e-05
5.55879e-05
5.41958e-05
5.28254e-05
5.14768e-05
5.01502e-05
4.88457e-05
4.75634e-05
4.63033e-05
4.50656e-05
4.38502e-05
4.26572e-05
4.14865e-05
4.03382e-05
3.92121e-05
3.81082e-05
3.70265e-05
3.59669e-05
3.49292e-05
3.39133e-05
3.29191e-05
3.19465e-05
3.09952e-05
3.00651e-05
2.91561e-05
2.82679e-05
2.74002e-05
2.6553e-05
2.5726e-05
2.49189e-05
2.41315e-05
2.33636e-05
2.26149e-05
2.18851e-05
2.11739e-05
2.04812e-05
1.98066e-05
1.91498e-05
1.85106e-05
1.78887e-05
1.72837e-05
1.66954e-05
1.61235e-05
1.55676e-05
1.50276e-05
1.4503e-05
1.39936e-05
1.34991e-05
1.30192e-05
1.25536e-05
1.21019e-05
1.16639e-05
1.12393e-05
1.08277e-05
1.0429e-05
1.00427e-05
9.66862e-06
9.30646e-06
8.95592e-06
8.61673e-06
8.28859e-06
7.97124e-06
7.66439e-06
7.36778e-06
7.08113e-06
6.80419e-06
6.53669e-06
6.27838e-06
6.029e-06
5.78832e-06
5.55607e-06
5.33202e-06
5.11595e-06
4.9076e-06
4.70676e-06
4.51321e-06
4.32672e-06
4.14709e-06
3.9741e-06
3.80754e-06
3.64722e-06
3.49293e-06
3.3445e-06
3.20172e-06
3.06443e-06
2.93242e-06
2.80554e-06
2.68362e-06
2.56648e-06
2.45396e-06
2.34591e-06
2.24218e-06
2.14261e-06
2.04706e-06
1.95539e-06
1.86745e-06
1.78313e-06
1.70228e-06
1.62478e-06
1.55051e-06
1.47935e-06
1.41118e-06
1.3459e-06
1.28339e-06
1.22356e-06
1.16629e-06
1.11149e-06
1.05906e-06
1.00892e-06
9.60977e-07
9.15138e-07
8.71322e-07
8.29451e-07
7.89445e-07
7.5123e-07
7.14734e-07
6.79886e-07
6.46618e-07
6.14867e-07
5.84568e-07
5.55661e-07
5.28089e-07
5.01794e-07
4.76723e-07
4.52824e-07
4.30046e-07
4.08341e-07
3.87663e-07
3.67967e-07
3.4921e-07
3.31351e-07
3.1435e-07
2.9817e-07
2.82773e-07
2.68125e-07
2.54192e-07
2.40941e-07
2.28341e-07
2.16364e-07
2.0498e-07
1.94161e-07
1.83883e-07
1.74119e-07
1.64846e-07
1.5604e-07
1.4768e-07
1.39745e-07
1.32214e-07
1.25068e-07
1.18289e-07
1.11858e-07
1.0576e-07
9.99782e-08
9.44968e-08
8.93014e-08
8.43779e-08
7.9713e-08
7.52938e-08
7.11081e-08
6.71444e-08
6.33915e-08
5.98387e-08
5.64762e-08
5.32941e-08
5.02833e-08
4.74352e-08
4.47414e-08
4.21939e-08
3.97853e-08
3.75083e-08
3.53561e-08
3.33223e-08
3.14006e-08
2.95852e-08
2.78704e-08
2.62511e-08
2.4722e-08
2.32784e-08
2.19159e-08
2.06299e-08
1.94165e-08
1.82717e-08
1.71918e-08
1.61733e-08
1.52129e-08
1.43074e-08
1.34538e-08
1.26492e-08
1.1891e-08
1.11766e-08
1.05036e-08
9.86961e-09
9.27257e-09
8.71037e-09
8.18107e-09
7.68282e-09
7.21387e-09
6.77257e-09
6.35734e-09
5.96672e-09
5.5993e-09
5.25375e-09
4.92883e-09
4.62334e-09
4.33618e-09
4.06627e-09
3.81263e-09
3.57431e-09
3.35042e-09
3.14011e-09
2.9426e-09
2.75713e-09
2.58299e-09
2.41952e-09
2.26609e-09
2.1221e-09
1.98699e-09
1.86023e-09
1.74133e-09
1.62981e-09
1.52524e-09
1.42719e-09
1.33527e-09
1.24912e-09
1.16838e-09
1.09272e-09
1.02184e-09
9.55451e-10
8.93273e-10
8.3505e-10
7.8054e-10
7.29516e-10
6.81764e-10
6.37082e-10
5.95281e-10
5.56184e-10
5.19624e-10
4.85444e-10
4.53497e-10
4.23644e-10
3.95757e-10
3.69713e-10
3.45399e-10
3.22707e-10
3.01538e-10
2.81798e-10
2.63399e-10
2.46259e-10
2.30301e-10
2.15453e-10
2.01648e-10
1.88824e-10
1.76923e-10
1.6589e-10
1.55674e-10
1.4623e-10
1.37513e-10
1.29483e-10
1.22102e-10
1.15338e-10
1.09157e-10
1.03532e-10
9.84363e-11
9.38453e-11
8.97379e-11
8.60946e-11
8.28984e-11
8.01341e-11
7.77886e-11
7.58509e-11
7.43116e-11
7.31634e-11
7.24008e-11
7.20204e-11
3.30673e-06
9.91127e-06
1.64893e-05
2.30239e-05
2.94994e-05
3.5901e-05
4.22152e-05
4.84294e-05
5.45324e-05
6.05139e-05
6.63647e-05
7.20765e-05
7.76422e-05
8.30554e-05
8.83109e-05
9.3404e-05
9.8331e-05
0.000103089
0.000107676
0.000112089
0.000116329
0.000120394
0.000124285
0.000128001
0.000131545
0.000134917
0.000138119
0.000141152
0.00014402
0.000146723
0.000149266
0.00015165
0.000153879
0.000155955
0.000157882
0.000159663
0.000161302
0.0001628
0.000164163
0.000165392
0.000166492
0.000167466
0.000168318
0.000169049
0.000169665
0.000170168
0.000170561
0.000170848
0.000171032
0.000171116
0.000171102
0.000170995
0.000170797
0.000170511
0.00017014
0.000169687
0.000169155
0.000168546
0.000167864
0.00016711
0.000166288
0.000165399
0.000164448
0.000163436
0.000162365
0.000161238
0.000160058
0.000158826
0.000157546
0.000156219
0.000154847
0.000153433
0.000151979
0.000150487
0.000148958
0.000147396
0.000145802
0.000144177
0.000142524
0.000140845
0.000139142
0.000137416
0.000135669
0.000133902
0.000132119
0.000130319
0.000128505
0.000126678
0.00012484
0.000122993
0.000121138
0.000119275
0.000117408
0.000115536
0.000113662
0.000111786
0.000109911
0.000108036
0.000106164
0.000104295
0.000102431
0.000100572
9.872e-05
9.68757e-05
9.504e-05
9.32139e-05
9.13983e-05
8.9594e-05
8.78018e-05
8.60226e-05
8.42571e-05
8.25061e-05
8.07701e-05
7.905e-05
7.73463e-05
7.56596e-05
7.39904e-05
7.23394e-05
7.0707e-05
6.90936e-05
6.74998e-05
6.59259e-05
6.43722e-05
6.28393e-05
6.13273e-05
5.98366e-05
5.83674e-05
5.692e-05
5.54946e-05
5.40914e-05
5.27106e-05
5.13522e-05
5.00165e-05
4.87035e-05
4.74133e-05
4.61459e-05
4.49014e-05
4.36799e-05
4.24811e-05
4.13053e-05
4.01522e-05
3.9022e-05
3.79143e-05
3.68293e-05
3.57668e-05
3.47265e-05
3.37085e-05
3.27126e-05
3.17385e-05
3.07861e-05
2.98553e-05
2.89458e-05
2.80574e-05
2.71898e-05
2.6343e-05
2.55165e-05
2.47103e-05
2.39239e-05
2.31572e-05
2.241e-05
2.16818e-05
2.09724e-05
2.02817e-05
1.96091e-05
1.89546e-05
1.83177e-05
1.76982e-05
1.70958e-05
1.65102e-05
1.5941e-05
1.5388e-05
1.48509e-05
1.43293e-05
1.38229e-05
1.33315e-05
1.28547e-05
1.23922e-05
1.19437e-05
1.15088e-05
1.10874e-05
1.06791e-05
1.02836e-05
9.90054e-06
9.52969e-06
9.17075e-06
8.82342e-06
8.48741e-06
8.16244e-06
7.84823e-06
7.54451e-06
7.25099e-06
6.9674e-06
6.69349e-06
6.42898e-06
6.17362e-06
5.92716e-06
5.68934e-06
5.45992e-06
5.23866e-06
5.02532e-06
4.81967e-06
4.62147e-06
4.43051e-06
4.24657e-06
4.06942e-06
3.89887e-06
3.7347e-06
3.57672e-06
3.42472e-06
3.27852e-06
3.13793e-06
3.00276e-06
2.87284e-06
2.74799e-06
2.62804e-06
2.51283e-06
2.40219e-06
2.29596e-06
2.19401e-06
2.09616e-06
2.00229e-06
1.91225e-06
1.8259e-06
1.74311e-06
1.66375e-06
1.5877e-06
1.51483e-06
1.44503e-06
1.37818e-06
1.31418e-06
1.25291e-06
1.19426e-06
1.13815e-06
1.08447e-06
1.03313e-06
9.84028e-07
9.37089e-07
8.92223e-07
8.49347e-07
8.08381e-07
7.6925e-07
7.31878e-07
6.96194e-07
6.62129e-07
6.29615e-07
5.9859e-07
5.6899e-07
5.40756e-07
5.13831e-07
4.88158e-07
4.63686e-07
4.40361e-07
4.18136e-07
3.96962e-07
3.76793e-07
3.57586e-07
3.39299e-07
3.21891e-07
3.05322e-07
2.89556e-07
2.74556e-07
2.60289e-07
2.4672e-07
2.33818e-07
2.21554e-07
2.09896e-07
1.98819e-07
1.88293e-07
1.78295e-07
1.688e-07
1.59783e-07
1.51222e-07
1.43097e-07
1.35385e-07
1.28068e-07
1.21126e-07
1.14541e-07
1.08297e-07
1.02376e-07
9.67634e-08
9.14434e-08
8.64018e-08
8.1625e-08
7.70998e-08
7.28137e-08
6.87549e-08
6.4912e-08
6.1274e-08
5.78308e-08
5.45724e-08
5.14894e-08
4.8573e-08
4.58145e-08
4.3206e-08
4.07396e-08
3.8408e-08
3.62042e-08
3.41216e-08
3.21538e-08
3.02948e-08
2.85389e-08
2.68807e-08
2.5315e-08
2.38368e-08
2.24415e-08
2.11248e-08
1.98822e-08
1.871e-08
1.76042e-08
1.65613e-08
1.55778e-08
1.46506e-08
1.37765e-08
1.29526e-08
1.21762e-08
1.14447e-08
1.07555e-08
1.01063e-08
9.49498e-09
8.91929e-09
8.3773e-09
7.8671e-09
7.3869e-09
6.93501e-09
6.50983e-09
6.10984e-09
5.7336e-09
5.37977e-09
5.04705e-09
4.73423e-09
4.44018e-09
4.1638e-09
3.90408e-09
3.66004e-09
3.43078e-09
3.21543e-09
3.01318e-09
2.82326e-09
2.64495e-09
2.47756e-09
2.32044e-09
2.173e-09
2.03465e-09
1.90485e-09
1.7831e-09
1.6689e-09
1.56182e-09
1.46142e-09
1.3673e-09
1.27908e-09
1.1964e-09
1.11893e-09
1.04635e-09
9.78368e-10
9.14698e-10
8.55079e-10
7.99261e-10
7.47014e-10
6.98116e-10
6.52362e-10
6.09559e-10
5.69524e-10
5.32087e-10
4.97087e-10
4.64374e-10
4.33805e-10
4.05249e-10
3.78581e-10
3.53683e-10
3.30447e-10
3.08771e-10
2.88557e-10
2.69717e-10
2.52165e-10
2.35824e-10
2.2062e-10
2.06485e-10
1.93353e-10
1.81166e-10
1.69869e-10
1.59408e-10
1.49737e-10
1.40811e-10
1.32588e-10
1.25031e-10
1.18104e-10
1.11776e-10
1.06016e-10
1.00797e-10
9.60962e-11
9.18902e-11
8.81596e-11
8.48867e-11
8.20561e-11
7.96544e-11
7.76702e-11
7.60941e-11
7.49184e-11
7.41375e-11
7.37479e-11
3.3338e-06
9.99299e-06
1.66272e-05
2.32202e-05
2.97568e-05
3.62226e-05
4.2604e-05
4.88887e-05
5.50651e-05
6.11228e-05
6.70525e-05
7.28456e-05
7.84946e-05
8.39931e-05
8.93352e-05
9.4516e-05
9.95317e-05
0.000104379
0.000109055
0.000113557
0.000117886
0.000122039
0.000126016
0.000129819
0.000133447
0.000136901
0.000140183
0.000143295
0.000146239
0.000149016
0.00015163
0.000154083
0.000156378
0.000158517
0.000160505
0.000162343
0.000164035
0.000165585
0.000166996
0.000168271
0.000169414
0.000170427
0.000171315
0.00017208
0.000172727
0.000173258
0.000173676
0.000173985
0.000174189
0.00017429
0.000174291
0.000174196
0.000174008
0.000173729
0.000173363
0.000172913
0.000172381
0.000171771
0.000171085
0.000170326
0.000169497
0.000168599
0.000167637
0.000166612
0.000165528
0.000164385
0.000163188
0.000161938
0.000160638
0.00015929
0.000157896
0.000156458
0.00015498
0.000153462
0.000151907
0.000150317
0.000148694
0.000147041
0.000145358
0.000143648
0.000141913
0.000140155
0.000138375
0.000136576
0.000134758
0.000132924
0.000131075
0.000129214
0.000127341
0.000125458
0.000123566
0.000121668
0.000119764
0.000117855
0.000115944
0.000114032
0.000112119
0.000110208
0.000108299
0.000106393
0.000104492
0.000102596
0.000100708
9.88266e-05
9.69544e-05
9.50919e-05
9.32401e-05
9.13998e-05
8.95718e-05
8.7757e-05
8.59562e-05
8.41701e-05
8.23994e-05
8.06448e-05
7.89069e-05
7.71864e-05
7.54837e-05
7.37995e-05
7.21343e-05
7.04885e-05
6.88626e-05
6.7257e-05
6.56721e-05
6.41083e-05
6.25659e-05
6.10451e-05
5.95464e-05
5.80698e-05
5.66157e-05
5.51842e-05
5.37755e-05
5.23898e-05
5.10271e-05
4.96876e-05
4.83714e-05
4.70785e-05
4.58089e-05
4.45626e-05
4.33397e-05
4.21401e-05
4.09638e-05
3.98107e-05
3.86807e-05
3.75737e-05
3.64897e-05
3.54285e-05
3.43899e-05
3.33738e-05
3.23801e-05
3.14085e-05
3.04588e-05
2.95309e-05
2.86246e-05
2.77395e-05
2.68756e-05
2.60324e-05
2.52099e-05
2.44076e-05
2.36254e-05
2.2863e-05
2.21201e-05
2.13965e-05
2.06917e-05
2.00056e-05
1.93378e-05
1.86881e-05
1.80561e-05
1.74415e-05
1.6844e-05
1.62634e-05
1.56992e-05
1.51512e-05
1.4619e-05
1.41024e-05
1.3601e-05
1.31146e-05
1.26427e-05
1.21852e-05
1.17416e-05
1.13116e-05
1.0895e-05
1.04915e-05
1.01007e-05
9.72238e-06
9.35618e-06
9.00183e-06
8.65903e-06
8.32749e-06
8.00693e-06
7.69706e-06
7.3976e-06
7.10828e-06
6.82883e-06
6.55898e-06
6.29846e-06
6.04701e-06
5.80438e-06
5.57032e-06
5.34459e-06
5.12693e-06
4.91712e-06
4.71492e-06
4.5201e-06
4.33243e-06
4.15171e-06
3.97771e-06
3.81022e-06
3.64904e-06
3.49397e-06
3.34482e-06
3.20138e-06
3.06348e-06
2.93093e-06
2.80356e-06
2.68118e-06
2.56364e-06
2.45076e-06
2.34239e-06
2.23837e-06
2.13855e-06
2.04278e-06
1.95091e-06
1.86282e-06
1.77836e-06
1.69739e-06
1.6198e-06
1.54546e-06
1.47425e-06
1.40605e-06
1.34075e-06
1.27824e-06
1.21841e-06
1.16116e-06
1.1064e-06
1.05401e-06
1.00392e-06
9.56037e-07
9.10263e-07
8.6652e-07
8.24727e-07
7.84804e-07
7.46676e-07
7.10271e-07
6.75517e-07
6.42346e-07
6.10693e-07
5.80495e-07
5.5169e-07
5.2422e-07
4.98029e-07
4.73061e-07
4.49265e-07
4.2659e-07
4.04988e-07
3.84412e-07
3.64817e-07
3.46159e-07
3.28399e-07
3.11495e-07
2.95411e-07
2.80108e-07
2.65552e-07
2.51709e-07
2.38546e-07
2.26033e-07
2.1414e-07
2.02839e-07
1.92101e-07
1.819e-07
1.72213e-07
1.63014e-07
1.5428e-07
1.4599e-07
1.38122e-07
1.30657e-07
1.23575e-07
1.16857e-07
1.10487e-07
1.04446e-07
9.87199e-08
9.32923e-08
8.81488e-08
8.32754e-08
7.86587e-08
7.4286e-08
7.01451e-08
6.62244e-08
6.2513e-08
5.90001e-08
5.56758e-08
5.25305e-08
4.95551e-08
4.67409e-08
4.40796e-08
4.15633e-08
3.91845e-08
3.69362e-08
3.48115e-08
3.28039e-08
3.09073e-08
2.9116e-08
2.74242e-08
2.58268e-08
2.43188e-08
2.28953e-08
2.15519e-08
2.02842e-08
1.90883e-08
1.79601e-08
1.68961e-08
1.58928e-08
1.49468e-08
1.4055e-08
1.32145e-08
1.24224e-08
1.16761e-08
1.0973e-08
1.03107e-08
9.68695e-09
9.09963e-09
8.54668e-09
8.02616e-09
7.53625e-09
7.07523e-09
6.64145e-09
6.23337e-09
5.84953e-09
5.48854e-09
5.14909e-09
4.82995e-09
4.52995e-09
4.24799e-09
3.98301e-09
3.73404e-09
3.50014e-09
3.28044e-09
3.0741e-09
2.88034e-09
2.69842e-09
2.52765e-09
2.36736e-09
2.21693e-09
2.07578e-09
1.94336e-09
1.81915e-09
1.70265e-09
1.5934e-09
1.49097e-09
1.39494e-09
1.30494e-09
1.22059e-09
1.14155e-09
1.06751e-09
9.98149e-10
9.33192e-10
8.72367e-10
8.15421e-10
7.62117e-10
7.1223e-10
6.65552e-10
6.21883e-10
5.81039e-10
5.42845e-10
5.07137e-10
4.73763e-10
4.42576e-10
4.13442e-10
3.86235e-10
3.60834e-10
3.37128e-10
3.15013e-10
2.94391e-10
2.7517e-10
2.57263e-10
2.40592e-10
2.25081e-10
2.10659e-10
1.97262e-10
1.84829e-10
1.73303e-10
1.62631e-10
1.52764e-10
1.43658e-10
1.35269e-10
1.27559e-10
1.20492e-10
1.14035e-10
1.08159e-10
1.02835e-10
9.8039e-11
9.3748e-11
8.9942e-11
8.66029e-11
8.37151e-11
8.12649e-11
7.92406e-11
7.76326e-11
7.64332e-11
7.56365e-11
7.52391e-11
3.35713e-06
1.00634e-05
1.67456e-05
2.33884e-05
2.99769e-05
3.64967e-05
4.29346e-05
4.92783e-05
5.55161e-05
6.16375e-05
6.7633e-05
7.34939e-05
7.92125e-05
8.47819e-05
9.01962e-05
9.54502e-05
0.00010054
0.000105461
0.000110211
0.000114788
0.000119191
0.000123417
0.000127467
0.000131341
0.000135039
0.000138562
0.000141912
0.000145089
0.000148097
0.000150936
0.000153609
0.00015612
0.00015847
0.000160662
0.0001627
0.000164586
0.000166324
0.000167917
0.000169368
0.000170682
0.00017186
0.000172906
0.000173825
0.000174618
0.00017529
0.000175845
0.000176284
0.000176612
0.000176833
0.000176948
0.000176962
0.000176877
0.000176697
0.000176424
0.000176063
0.000175615
0.000175084
0.000174473
0.000173784
0.00017302
0.000172185
0.00017128
0.000170309
0.000169274
0.000168178
0.000167023
0.000165811
0.000164546
0.000163229
0.000161863
0.000160451
0.000158994
0.000157494
0.000155955
0.000154378
0.000152765
0.000151119
0.00014944
0.000147733
0.000145997
0.000144236
0.000142451
0.000140643
0.000138816
0.00013697
0.000135108
0.00013323
0.000131339
0.000129436
0.000127523
0.000125602
0.000123673
0.000121738
0.000119799
0.000117858
0.000115914
0.000113971
0.000112029
0.000110088
0.000108152
0.00010622
0.000104293
0.000102374
0.000100462
9.85591e-05
9.66661e-05
9.47839e-05
9.29134e-05
9.10555e-05
8.92109e-05
8.73805e-05
8.5565e-05
8.37651e-05
8.19816e-05
8.02151e-05
7.84662e-05
7.67354e-05
7.50234e-05
7.33307e-05
7.16577e-05
7.0005e-05
6.83729e-05
6.67618e-05
6.51721e-05
6.36041e-05
6.20582e-05
6.05346e-05
5.90336e-05
5.75554e-05
5.61002e-05
5.46682e-05
5.32595e-05
5.18743e-05
5.05126e-05
4.91745e-05
4.78601e-05
4.65695e-05
4.53026e-05
4.40594e-05
4.28399e-05
4.16441e-05
4.04718e-05
3.93231e-05
3.81978e-05
3.70958e-05
3.60169e-05
3.49611e-05
3.39282e-05
3.29179e-05
3.19302e-05
3.09648e-05
3.00215e-05
2.91001e-05
2.82003e-05
2.7322e-05
2.64649e-05
2.56286e-05
2.48131e-05
2.40179e-05
2.32428e-05
2.24876e-05
2.17519e-05
2.10355e-05
2.0338e-05
1.96591e-05
1.89986e-05
1.8356e-05
1.77313e-05
1.71239e-05
1.65335e-05
1.596e-05
1.54029e-05
1.48619e-05
1.43367e-05
1.3827e-05
1.33325e-05
1.28528e-05
1.23876e-05
1.19366e-05
1.14995e-05
1.1076e-05
1.06658e-05
1.02685e-05
9.88391e-06
9.51162e-06
9.15138e-06
8.80289e-06
8.46584e-06
8.13995e-06
7.82494e-06
7.5205e-06
7.22638e-06
6.94228e-06
6.66795e-06
6.4031e-06
6.14747e-06
5.90082e-06
5.66287e-06
5.43338e-06
5.21211e-06
4.99881e-06
4.79325e-06
4.59519e-06
4.40441e-06
4.22068e-06
4.04379e-06
3.87352e-06
3.70967e-06
3.55202e-06
3.40039e-06
3.25457e-06
3.11438e-06
2.97963e-06
2.85013e-06
2.72572e-06
2.60623e-06
2.49148e-06
2.38131e-06
2.27556e-06
2.17408e-06
2.07672e-06
1.98333e-06
1.89377e-06
1.8079e-06
1.72559e-06
1.64671e-06
1.57114e-06
1.49874e-06
1.42941e-06
1.36303e-06
1.29948e-06
1.23865e-06
1.18045e-06
1.12478e-06
1.07153e-06
1.0206e-06
9.7192e-07
9.25386e-07
8.80916e-07
8.38429e-07
7.97843e-07
7.59082e-07
7.22071e-07
6.8674e-07
6.53018e-07
6.20839e-07
5.90139e-07
5.60856e-07
5.32929e-07
5.06303e-07
4.8092e-07
4.56729e-07
4.33677e-07
4.11716e-07
3.90798e-07
3.70877e-07
3.5191e-07
3.33855e-07
3.16671e-07
3.00318e-07
2.84761e-07
2.69963e-07
2.5589e-07
2.42509e-07
2.29789e-07
2.17698e-07
2.06208e-07
1.95292e-07
1.84922e-07
1.75074e-07
1.65722e-07
1.56843e-07
1.48415e-07
1.40417e-07
1.32828e-07
1.25628e-07
1.18799e-07
1.12322e-07
1.06181e-07
1.0036e-07
9.48422e-08
8.96132e-08
8.46588e-08
7.99655e-08
7.55201e-08
7.13104e-08
6.73246e-08
6.35515e-08
5.99803e-08
5.66008e-08
5.34032e-08
5.03784e-08
4.75174e-08
4.48119e-08
4.22538e-08
3.98355e-08
3.75498e-08
3.53898e-08
3.33489e-08
3.14208e-08
2.95997e-08
2.78798e-08
2.62559e-08
2.47228e-08
2.32756e-08
2.19099e-08
2.06212e-08
1.94054e-08
1.82585e-08
1.71768e-08
1.61568e-08
1.51951e-08
1.42885e-08
1.3434e-08
1.26288e-08
1.187e-08
1.11552e-08
1.0482e-08
9.84788e-09
9.2508e-09
8.68866e-09
8.1595e-09
7.66145e-09
7.19277e-09
6.75178e-09
6.33692e-09
5.94671e-09
5.57972e-09
5.23463e-09
4.91019e-09
4.60521e-09
4.31856e-09
4.04918e-09
3.79608e-09
3.55829e-09
3.33494e-09
3.12517e-09
2.92819e-09
2.74325e-09
2.56964e-09
2.40669e-09
2.25376e-09
2.11027e-09
1.97565e-09
1.84937e-09
1.73093e-09
1.61987e-09
1.51574e-09
1.41812e-09
1.32662e-09
1.24087e-09
1.16052e-09
1.08524e-09
1.01473e-09
9.48695e-10
8.86859e-10
8.28968e-10
7.74778e-10
7.24063e-10
6.76608e-10
6.32214e-10
5.90692e-10
5.51863e-10
5.15562e-10
4.81633e-10
4.49928e-10
4.20311e-10
3.92651e-10
3.66828e-10
3.42729e-10
3.20247e-10
2.99282e-10
2.79741e-10
2.61537e-10
2.44589e-10
2.2882e-10
2.14159e-10
2.00539e-10
1.879e-10
1.76182e-10
1.65333e-10
1.55302e-10
1.46044e-10
1.37516e-10
1.29678e-10
1.22494e-10
1.1593e-10
1.09956e-10
1.04543e-10
9.96677e-11
9.53054e-11
9.14361e-11
8.80416e-11
8.51058e-11
8.26149e-11
8.0557e-11
7.89223e-11
7.7703e-11
7.68931e-11
7.64891e-11
3.37628e-06
1.01211e-05
1.68427e-05
2.3526e-05
3.01564e-05
3.67199e-05
4.32034e-05
4.95944e-05
5.58815e-05
6.20541e-05
6.81023e-05
7.40175e-05
7.97917e-05
8.54179e-05
9.089e-05
9.62025e-05
0.000101351
0.000106332
0.000111142
0.000115778
0.000120239
0.000124525
0.000128633
0.000132564
0.000136318
0.000139897
0.0001433
0.00014653
0.000149589
0.000152477
0.000155199
0.000157755
0.000160149
0.000162384
0.000164462
0.000166387
0.000168162
0.000169789
0.000171273
0.000172617
0.000173824
0.000174897
0.00017584
0.000176656
0.00017735
0.000177923
0.000178379
0.000178723
0.000178956
0.000179083
0.000179107
0.00017903
0.000178857
0.00017859
0.000178232
0.000177786
0.000177255
0.000176643
0.000175952
0.000175185
0.000174345
0.000173435
0.000172456
0.000171413
0.000170307
0.000169142
0.000167919
0.000166641