/*--------------------------------*- C++ -*----------------------------------*\
  =========                 |
  \\      /  F ield         | OpenFOAM: The Open Source CFD Toolbox
   \\    /   O peration     | Website:  https://openfoam.org
    \\  /    A nd           | Version:  10
     \\/     M anipulation  |
\*---------------------------------------------------------------------------*/
FoamFile
{
    format      ascii;
    class       surfaceScalarField;
    location    "7";
    object      phi;
}
// * * * * * * * * * * * * * * * * * * * * * * * * * * * * * * * * * * * * * //

dimensions      [1 0 -1 0 0 0 0];

internalField   nonuniform List<scalar> 
10325
(
0.00840003
4.29105e-11
0.00840001
6.05705e-10
0.00840007
1.31905e-09
0.00839991
5.85546e-09
0.00840031
1.01937e-08
0.00839907
4.02098e-08
0.00840217
5.96795e-08
0.0083942
2.58054e-07
0.00841115
3.599e-07
0.00837788
1.57164e-06
0.00841929
2.85715e-06
0.00836191
1.00487e-05
0.008368
2.99043e-05
0.00822658
0.000117655
0.00762473
0.000592658
0.00698956
0.000637317
0.00637476
0.000615571
0.00573474
0.000639547
0.00506271
0.000671445
0.0043498
0.000712495
0.00358486
0.000764259
0.00276667
0.000817716
0.00189818
0.000867502
0.00097847
0.000918379
0.00097779
0.00840003
9.80398e-11
0.0084
1.34449e-09
0.00840012
2.46425e-09
0.00839981
1.32082e-08
0.00840054
1.7028e-08
0.00839879
8.94867e-08
0.00840285
1.01043e-07
0.00839361
5.55857e-07
0.00841218
7.27003e-07
0.00837707
3.11499e-06
0.00842062
6.11726e-06
0.00835816
2.02024e-05
0.00836621
6.1524e-05
0.00822178
0.000237023
0.00762011
0.00118566
0.00697538
0.00128444
0.00636823
0.00122347
0.00573633
0.00127096
0.00506848
0.00133871
0.00434917
0.00143139
0.00357583
0.00153694
0.00274974
0.00164333
0.00187022
0.00174604
0.000945864
0.00184141
0.00192298
0.00840003
3.89367e-10
0.00840002
1.22757e-09
0.00840007
6.99198e-09
0.00839993
1.16689e-08
0.00840012
5.20607e-08
0.00839977
6.9935e-08
0.00839976
3.45574e-07
0.00839956
4.16047e-07
0.00839847
2.06781e-06
0.00839639
3.06986e-06
0.00839692
1.16546e-05
0.00837716
2.7682e-05
0.00835319
9.47677e-05
0.00823104
0.000350263
0.00765149
0.00175264
0.00700056
0.00193793
0.00639782
0.00182696
0.0057739
0.00189442
0.00511207
0.002
0.00439475
0.00214827
0.00361804
0.00231304
0.00278472
0.00247604
0.00189537
0.00263434
0.000956505
0.00277898
0.00287898
0.00840003
2.84777e-10
0.00840002
2.31477e-09
0.00840004
6.24703e-09
0.00839996
2.2595e-08
0.00840019
4.84026e-08
0.0083993
1.41496e-07
0.00840165
3.25009e-07
0.00839518
8.3678e-07
0.00840877
2.07903e-06
0.00838163
5.2315e-06
0.00841423
1.36416e-05
0.00836721
3.85696e-05
0.0083669
0.000121939
0.00824409
0.000453763
0.0077259
0.00225948
0.00707123
0.00259534
0.00647061
0.00242867
0.00585477
0.00250982
0.00520058
0.00265357
0.00448864
0.00285979
0.00371403
0.00308695
0.00287489
0.00331501
0.00196699
0.00354143
0.000999526
0.00374505
0.00387781
0.00840003
3.06498e-10
0.00840004
2.80722e-09
0.00839999
7.42261e-09
0.00840011
2.77517e-08
0.00839986
5.47693e-08
0.00840012
1.9053e-07
0.00839969
3.28618e-07
0.00839925
1.21143e-06
0.00839915
2.06563e-06
0.00839792
7.24763e-06
0.00839166
1.52692e-05
0.00839119
4.81782e-05
0.00835768
0.000145068
0.00827338
0.000537756
0.00786241
0.00265475
0.00720025
0.00326042
0.00659389
0.0030363
0.00598266
0.00312066
0.00533941
0.0032963
0.0046352
0.00356355
0.00386453
0.0038569
0.00301907
0.00415981
0.00208859
0.00447108
0.00107277
0.00475952
0.00494982
0.00840003
5.76639e-10
0.00840004
2.28808e-09
0.00840001
1.13395e-08
0.00840004
2.23226e-08
0.00839987
8.38351e-08
0.00840038
1.49076e-07
0.00839854
5.3652e-07
0.00840311
9.39664e-07
0.00839186
3.29012e-06
0.00841113
6.32542e-06
0.0083804
2.00928e-05
0.00840397
5.0316e-05
0.0083613
0.000164415
0.00832265
0.000585386
0.00810351
0.00285434
0.00742728
0.00394026
0.00679391
0.00367101
0.00617753
0.0037367
0.00554055
0.00393293
0.00484812
0.00425546
0.00407912
0.0046253
0.00322761
0.00501084
0.00226789
0.00542967
0.0011878
0.00583847
0.00613685
0.00840003
4.3604e-10
0.00840002
2.85443e-09
0.00840003
9.66821e-09
0.0084
2.80272e-08
0.00840012
7.14121e-08
0.00839959
1.91679e-07
0.00840111
4.48203e-07
0.00839667
1.21825e-06
0.0084071
2.79483e-06
0.0083861
7.70166e-06
0.00841624
1.88464e-05
0.00838096
5.38856e-05
0.00840502
0.000163837
0.00838906
0.000583548
0.00850515
0.00272555
0.00781095
0.00463799
0.00710875
0.00437506
0.00647178
0.00437349
0.0058336
0.00457056
0.00514642
0.00494213
0.00438199
0.00538911
0.00351956
0.00587274
0.00253111
0.00641712
0.00136783
0.00700039
0.00750378
0.00840003
3.33295e-10
0.00840001
2.96834e-09
0.00840007
7.78728e-09
0.00839994
2.89789e-08
0.0084003
6.01472e-08
0.00839935
1.87109e-07
0.00840189
3.98457e-07
0.00839618
1.12071e-06
0.00841018
2.55624e-06
0.00838409
6.78634e-06
0.00842836
1.66967e-05
0.00838466
4.63752e-05
0.0084541
0.00013652
0.0085416
0.000468771
0.00920353
0.00205264
0.00848344
0.00536085
0.00759855
0.00526198
0.00691534
0.00505669
0.0062593
0.00522623
0.00556486
0.00563614
0.00479635
0.00615691
0.00392617
0.00674255
0.00291103
0.0074312
0.00166235
0.00824766
0.00916507
0.00840003
3.70942e-10
0.00840005
2.36417e-09
0.00839998
8.11195e-09
0.00840016
2.30485e-08
0.00839976
6.02227e-08
0.0084008
1.52034e-07
0.00839854
3.78254e-07
0.00840419
9.40364e-07
0.00839254
2.30338e-06
0.00841746
5.81058e-06
0.00837971
1.45768e-05
0.0084375
3.90429e-05
0.00841205
0.000113551
0.0085276
0.000377184
0.00897059
0.00159488
0.00867575
0.00565205
0.00789035
0.00604638
0.00732695
0.00561913
0.00667891
0.00587331
0.00603625
0.00627804
0.00530047
0.00689193
0.00447497
0.00756727
0.00350576
0.00839928
0.00216935
0.00958243
0.0113331
0.00840003
3.95675e-10
0.00840004
2.06448e-09
0.00839999
8.34554e-09
0.00840014
2.02312e-08
0.00839979
6.01599e-08
0.00840069
1.38273e-07
0.00839866
3.63361e-07
0.00840368
8.84171e-07
0.00839294
2.14349e-06
0.00841558
5.60607e-06
0.00837873
1.34151e-05
0.00843018
3.67588e-05
0.00839198
0.000104095
0.00845123
0.000342643
0.00864866
0.00138443
0.0084789
0.00581107
0.00823929
0.00628342
0.00762038
0.00623658
0.00706036
0.00643208
0.00650483
0.00683245
0.00588879
0.00750685
0.00520237
0.00825262
0.00431116
0.00928927
0.00303312
0.0108587
0.0143641
0.00840003
3.22489e-10
0.00840002
2.31881e-09
0.00840007
7.1124e-09
0.00839995
2.24855e-08
0.00840021
5.42931e-08
0.00839967
1.42154e-07
0.00840088
3.56686e-07
0.00839844
8.39417e-07
0.00840301
2.26495e-06
0.00839427
5.04108e-06
0.00840973
1.42215e-05
0.00838583
3.4478e-05
0.00841916
0.000102199
0.00841031
0.000325032
0.00854493
0.00125804
0.0085254
0.00581469
0.00817432
0.00663283
0.00777809
0.00663194
0.00739923
0.00680984
0.0069627
0.00726792
0.00655414
0.00791386
0.00607031
0.00873468
0.00561306
0.00974454
0.00553516
0.0109341
0.0114079
0.00848756
0.00840003
3.49818e-10
0.00840004
2.10896e-09
0.0084
7.62035e-09
0.0084001
2.07839e-08
0.00839987
5.6261e-08
0.0084004
1.42676e-07
0.00839928
3.41577e-07
0.00840171
9.17467e-07
0.00839644
2.0261e-06
0.00840663
5.74048e-06
0.00838837
1.2893e-05
0.00841507
3.64934e-05
0.00838321
9.83452e-05
0.00841899
0.0003171
0.00848689
0.00117202
0.00868987
0.00560172
0.00833734
0.00698524
0.00796286
0.00700602
0.00765425
0.00711725
0.00735244
0.00756831
0.00706638
0.00819834
0.00682429
0.00897484
0.00672918
0.0098372
0.00709912
0.0105608
0.0104966
0.00800572
0.00840003
3.71783e-10
0.00840003
1.99008e-09
0.00840005
7.70007e-09
0.00839999
1.94361e-08
0.00840013
5.67758e-08
0.00839985
1.29849e-07
0.00840031
3.64584e-07
0.00839966
7.97434e-07
0.0084
2.26821e-06
0.00839952
4.96294e-06
0.00840097
1.40181e-05
0.00839677
3.36456e-05
0.00840952
9.75211e-05
0.00841629
0.000297209
0.00851514
0.00107481
0.00912123
0.00498155
0.00872765
0.00737908
0.00828603
0.00744771
0.00798056
0.00742154
0.00775667
0.00779065
0.00757349
0.00837951
0.00750802
0.00903805
0.00767666
0.00966568
0.00813655
0.0100965
0.00995842
0.00866935
0.00840003
2.99452e-10
0.00840002
1.95246e-09
0.00840004
6.42203e-09
0.00840001
1.9119e-08
0.00840011
4.7917e-08
0.00839982
1.26071e-07
0.00840067
3.06184e-07
0.00839856
7.74902e-07
0.00840433
1.91293e-06
0.00839238
4.75416e-06
0.00841878
1.20697e-05
0.008382
3.07216e-05
0.00844277
8.3872e-05
0.0084447
0.000252136
0.00866807
0.000871277
0.00993184
0.00369806
0.00935849
0.0079514
0.00883852
0.00796706
0.00844539
0.00781418
0.00821455
0.00801984
0.00811408
0.00847816
0.00815128
0.00899815
0.00836356
0.00945068
0.00876221
0.0096931
0.00951475
0.00919986
0.00840003
2.25498e-10
0.00840003
1.67356e-09
0.00840003
5.13855e-09
0.00840004
1.61484e-08
0.00840003
3.85649e-08
0.00840007
1.05011e-07
0.00840011
2.43519e-07
0.00839994
6.44069e-07
0.00840141
1.49221e-06
0.00839872
3.87925e-06
0.00840877
9.26643e-06
0.00840395
2.40462e-05
0.0084372
6.21823e-05
0.00849901
0.00018045
0.00878957
0.000585833
0.0101243
0.00235229
0.00993608
0.0081332
0.00954564
0.0083557
0.00899276
0.00836599
0.00871972
0.00829085
0.00862938
0.00856674
0.00868644
0.00893787
0.00888677
0.00924705
0.00921794
0.00935749
0.00914887
0.00957826
0.00840003
2.05384e-10
0.00840004
1.34356e-09
0.00840002
4.5354e-09
0.00840007
1.31871e-08
0.00839996
3.3585e-08
0.00840024
8.76242e-08
0.00839972
2.09388e-07
0.00840107
5.38285e-07
0.00839868
1.26721e-06
0.00840431
3.27779e-06
0.00839607
7.75225e-06
0.00841637
2.02907e-05
0.00840105
5.13125e-05
0.0084663
0.000146267
0.00856233
0.000462437
0.00915611
0.00176666
0.01001
0.00726102
0.00976231
0.0086007
0.00942758
0.00869884
0.00916397
0.00855301
0.00907853
0.00864996
0.00913552
0.00887826
0.00930844
0.00907059
0.00957168
0.00908965
0.00885818
0.00985676
0.00840003
1.8284e-10
0.00840003
1.14074e-09
0.00840002
3.97855e-09
0.00840006
1.11839e-08
0.00839997
2.9563e-08
0.00840022
7.42209e-08
0.00839967
1.86302e-07
0.00840117
4.5694e-07
0.0083981
1.14318e-06
0.00840619
2.80971e-06
0.00839092
7.01213e-06
0.00842301
1.75922e-05
0.0083845
4.53791e-05
0.00845606
0.00012535
0.00848509
0.000387464
0.00887182
0.00139982
0.0100756
0.00603699
0.00999269
0.00868204
0.00975535
0.00893489
0.00952696
0.00878068
0.00945773
0.00871659
0.00950786
0.00882532
0.00965103
0.00892372
0.00985579
0.00888068
0.00863687
0.0100721
0.00840003
1.71511e-10
0.00840003
9.0602e-10
0.00840003
3.57349e-09
0.00840005
8.82948e-09
0.0084
2.63314e-08
0.00840016
5.928e-08
0.00839979
1.64609e-07
0.00840092
3.71469e-07
0.00839856
9.94421e-07
0.00840529
2.30207e-06
0.00839249
6.02262e-06
0.00842364
1.4543e-05
0.008384
3.82486e-05
0.0084665
0.000101263
0.00849278
0.000304667
0.00887869
0.00104224
0.0106999
0.00419226
0.0104369
0.00894238
0.0102909
0.00907979
0.0100067
0.00906428
0.0098462
0.0088755
0.00984774
0.00882057
0.00994991
0.00881869
0.010102
0.0087239
0.00847447
0.0102592
0.00840003
1.09744e-10
0.00840003
7.87559e-10
0.00840003
2.49521e-09
0.00840003
7.69423e-09
0.00840005
1.86337e-08
0.0084
5.08613e-08
0.00840021
1.15793e-07
0.00839977
3.12811e-07
0.00840147
6.9526e-07
0.00839816
1.89451e-06
0.00840916
4.22335e-06
0.00839285
1.14624e-05
0.00843826
2.67884e-05
0.00841951
7.33024e-05
0.00856579
0.000202207
0.00892386
0.000653711
0.010618
0.00250177
0.0110462
0.00850287
0.0107979
0.00932574
0.0104798
0.00938054
0.0102505
0.00910306
0.0101843
0.00888381
0.0102315
0.00876801
0.0103301
0.00862137
0.00836253
0.0104377
0.00840003
1.02769e-10
0.00840003
5.8832e-10
0.00840003
2.16664e-09
0.00840002
5.74004e-09
0.00840006
1.59256e-08
0.00840001
3.77776e-08
0.00840013
9.99226e-08
0.00840004
2.30147e-07
0.00840023
6.07051e-07
0.00840085
1.38745e-06
0.00840027
3.64334e-06
0.00840534
8.50602e-06
0.0084065
2.22416e-05
0.00842589
5.54237e-05
0.00847484
0.000155294
0.00864635
0.000476961
0.00938418
0.00176052
0.0109931
0.00687797
0.0110169
0.00929881
0.010833
0.00956198
0.010589
0.00934562
0.0104992
0.00897069
0.0105
0.0087643
0.0105483
0.00856871
0.00829735
0.0106089
0.00840003
7.28154e-11
0.00840003
4.8291e-10
0.00840003
1.60516e-09
0.00840003
4.71649e-09
0.00840005
1.19608e-08
0.0084
3.11674e-08
0.00840019
7.55708e-08
0.0083998
1.9078e-07
0.00840102
4.60738e-07
0.00839879
1.15613e-06
0.00840561
2.81429e-06
0.00839401
7.04319e-06
0.00842436
1.74901e-05
0.00839311
4.48576e-05
0.00848018
0.000120148
0.00854828
0.000357835
0.00909701
0.00123609
0.0112288
0.00472226
0.0112968
0.00922607
0.0112649
0.00959225
0.0110632
0.00954575
0.0108434
0.00918823
0.0107693
0.00883551
0.0107685
0.00856585
0.00827343
0.0107884
0.00840003
5.71697e-11
0.00840003
3.54442e-10
0.00840003
1.22976e-09
0.00840003
3.46499e-09
0.00840005
9.07282e-09
0.0084
2.27676e-08
0.00840016
5.68449e-08
0.00839991
1.38214e-07
0.00840072
3.45287e-07
0.00839955
8.23134e-07
0.00840372
2.08351e-06
0.00839819
4.93045e-06
0.00841827
1.26167e-05
0.00840563
3.07275e-05
0.0084822
8.11186e-05
0.00857199
0.000225748
0.00911157
0.000720407
0.0111582
0.00266131
0.0118289
0.00854519
0.0116972
0.00972128
0.0114479
0.0097928
0.0111907
0.00944311
0.0110557
0.00896849
0.0110007
0.00861754
0.00829249
0.0109777
0.00840003
4.03868e-11
0.00840003
2.69048e-10
0.00840003
8.93689e-10
0.00840003
2.62592e-09
0.00840004
6.63758e-09
0.00840002
1.72641e-08
0.0084001
4.14386e-08
0.00839995
1.05505e-07
0.00840057
2.50012e-07
0.00839941
6.34357e-07
0.00840339
1.50207e-06
0.00839688
3.81202e-06
0.00841748
9.12776e-06
0.00839224
2.33521e-05
0.00846478
5.85676e-05
0.00846703
0.000160873
0.00875115
0.000489469
0.00960878
0.0017661
0.0116912
0.00645347
0.0118895
0.00951986
0.0118068
0.00987252
0.0115469
0.00970068
0.0113613
0.0091529
0.0112481
0.00872806
0.00835496
0.0111821
0.00840003
3.12378e-11
0.00840003
1.95348e-10
0.00840003
6.73054e-10
0.00840003
1.90747e-09
0.00840004
4.96776e-09
0.00840002
1.25186e-08
0.0084001
3.10184e-08
0.00839997
7.63018e-08
0.0084004
1.87959e-07
0.00839979
4.57715e-07
0.00840197
1.12618e-06
0.00839914
2.7502e-06
0.00840918
6.8208e-06
0.00840083
1.67688e-05
0.00844154
4.27139e-05
0.00845268
0.000111693
0.00865562
0.000323828
0.0093162
0.00107678
0.011858
0.00389849
0.0122076
0.00916485
0.0122088
0.00987031
0.0120218
0.00988652
0.0116787
0.00949537
0.0115211
0.00888409
0.00846265
0.0114102
0.00840003
2.18428e-11
0.00840003
1.40963e-10
0.00840003
4.7586e-10
0.00840003
1.37665e-09
0.00840004
3.51637e-09
0.00840003
9.01485e-09
0.00840007
2.20187e-08
0.00839999
5.45494e-08
0.00840031
1.32909e-07
0.00839984
3.24645e-07
0.00840162
7.97089e-07
0.00839922
1.92858e-06
0.00840865
4.78123e-06
0.0083982
1.16083e-05
0.00844004
2.92916e-05
0.00843367
7.43705e-05
0.00859775
0.000205328
0.00900839
0.000633631
0.0106438
0.00226445
0.0123393
0.00745496
0.0124504
0.00975694
0.0123273
0.0100079
0.0119783
0.00984348
0.0118074
0.00905293
0.00861046
0.0116574
0.00840003
1.52146e-11
0.00840003
1.01943e-10
0.00840003
3.34628e-10
0.00840003
9.97053e-10
0.00840003
2.48059e-09
0.00840003
6.5347e-09
0.00840005
1.55244e-08
0.00840002
3.9417e-08
0.0084002
9.43585e-08
0.00839989
2.33734e-07
0.00840118
5.70663e-07
0.00839918
1.38344e-06
0.00840672
3.45024e-06
0.00839644
8.30014e-06
0.00843166
2.1126e-05
0.00840874
5.2278e-05
0.00852988
0.000140661
0.00869563
0.000411303
0.00956984
0.00141695
0.01214
0.00485933
0.0125814
0.00930956
0.0126423
0.00994558
0.0125576
0.00992698
0.012133
0.00947654
0.00883287
0.0119078
0.00840003
1.04873e-11
0.00840003
6.94567e-11
0.00840003
2.33121e-10
0.00840003
6.76122e-10
0.00840003
1.7262e-09
0.00840004
4.41207e-09
0.00840003
1.0734e-08
0.00840006
2.68034e-08
0.00840007
6.40747e-08
0.00840013
1.59712e-07
0.00840045
3.8044e-07
0.0084002
9.46672e-07
0.00840343
2.26393e-06
0.00840031
5.62033e-06
0.00842106
1.36335e-05
0.00841378
3.43084e-05
0.00850184
8.73446e-05
0.00863368
0.000242118
0.00931825
0.000755255
0.011544
0.00261627
0.0128762
0.00796827
0.0129068
0.00991225
0.0128006
0.0100308
0.0124304
0.00984455
0.00905854
0.0122023
0.00840003
7.39118e-12
0.00840003
4.70159e-11
0.00840003
1.62711e-10
0.00840003
4.58845e-10
0.00840003
1.20083e-09
0.00840004
3.0349e-09
0.00840003
7.37386e-09
0.00840006
1.85626e-08
0.00840004
4.37116e-08
0.00840015
1.11749e-07
0.0084002
2.57986e-07
0.00840037
6.66866e-07
0.0084017
1.53053e-06
0.00840081
3.98057e-06
0.0084116
9.20939e-06
0.00840786
2.39982e-05
0.00845875
5.83455e-05
0.00851502
0.000158774
0.00882988
0.000463631
0.0098178
0.0016071
0.0125081
0.00526056
0.0130001
0.00941417
0.0130937
0.00993486
0.0129803
0.00995568
0.00947134
0.0125654
0.00840003
5.19063e-12
0.00840003
3.02431e-11
0.00840003
1.11494e-10
0.00840003
2.95781e-10
0.00840003
8.18409e-10
0.00840003
1.94148e-09
0.00840003
5.0535e-09
0.00840005
1.17559e-08
0.00840003
2.99823e-08
0.00840016
7.00442e-08
0.0084
1.75832e-07
0.00840092
4.17632e-07
0.00839971
1.0266e-06
0.00840549
2.48813e-06
0.00839909
6.03624e-06
0.00842893
1.49522e-05
0.00841257
3.66246e-05
0.00853037
9.47167e-05
0.00867574
0.000259526
0.00950288
0.000813475
0.0120175
0.00272709
0.0132903
0.00813075
0.013296
0.00992544
0.0132755
0.00997278
0.00982657
0.0129179
0.00840003
3.32351e-12
0.00840003
2.08256e-11
0.00840003
7.16194e-11
0.00840003
2.03202e-10
0.00840003
5.27079e-10
0.00840003
1.32152e-09
0.00840004
3.2887e-09
0.00840003
7.92852e-09
0.00840006
1.97621e-08
0.00840004
4.67377e-08
0.00840018
1.1748e-07
0.0084002
2.75125e-07
0.00840055
6.9711e-07
0.00840167
1.62259e-06
0.00840186
4.13966e-06
0.00841144
9.71813e-06
0.00841283
2.48715e-05
0.00846238
6.10861e-05
0.00853838
0.000164099
0.00888771
0.000479606
0.00995462
0.00164456
0.0128183
0.00524608
0.0133929
0.00934415
0.0135065
0.00985637
0.00995438
0.0133758
0.00840003
1.98165e-12
0.00840003
1.39419e-11
0.00840003
4.45199e-11
0.00840003
1.36044e-10
0.00840003
3.2938e-10
0.00840003
8.85421e-10
0.00840003
2.03711e-09
0.00840003
5.30711e-09
0.00840006
1.21627e-08
0.00840002
3.11425e-08
0.00840019
7.22272e-08
0.00840001
1.81115e-07
0.00840093
4.29991e-07
0.0084001
1.05082e-06
0.00840488
2.55761e-06
0.00840155
6.12841e-06
0.00842443
1.53557e-05
0.00842438
3.69626e-05
0.00852744
9.64381e-05
0.0087036
0.000260651
0.00955932
0.000813362
0.012123
0.00266772
0.0135882
0.00786463
0.0136223
0.0098175
0.00987052
0.0137024
0.00840003
1.47547e-12
0.00840003
8.41113e-12
0.00840003
3.12628e-11
0.00840003
8.21922e-11
0.00840003
2.28534e-10
0.00840003
5.37664e-10
0.00840003
1.40579e-09
0.00840004
3.24004e-09
0.00840003
8.30843e-09
0.00840007
1.92337e-08
0.00840002
4.85963e-08
0.00840025
1.14211e-07
0.00840006
2.8267e-07
0.00840117
6.78759e-07
0.00840058
1.64781e-06
0.00840518
4.04895e-06
0.00840595
9.67991e-06
0.00842633
2.44718e-05
0.00844765
5.99165e-05
0.00857079
0.000159923
0.00889421
0.000462014
0.010017
0.00155677
0.0129856
0.00486786
0.013721
0.00907441
0.00974292
0.013845
0.00840003
8.22197e-13
0.00840003
5.72333e-12
0.00840003
1.84808e-11
0.00840003
5.56479e-11
0.00840003
1.3631e-10
0.00840003
3.61356e-10
0.00840003
8.3842e-10
0.00840003
2.16931e-09
0.00840004
4.97452e-09
0.00840003
1.27196e-08
0.00840009
2.92937e-08
0.00840003
7.41542e-08
0.0084004
1.72885e-07
0.00840001
4.30299e-07
0.00840219
1.01939e-06
0.00840021
2.50392e-06
0.00841212
6.04736e-06
0.00840446
1.46921e-05
0.00845929
3.65752e-05
0.00847947
9.18205e-05
0.00874097
0.000250023
0.00949601
0.000765172
0.011889
0.00247606
0.0137524
0.00719512
0.00964872
0.0138411
0.00840003
5.85417e-13
0.00840003
3.36646e-12
0.00840003
1.24469e-11
0.00840003
3.2839e-11
0.00840003
9.1095e-11
0.00840003
2.14023e-10
0.00840003
5.59644e-10
0.00840003
1.28466e-09
0.00840003
3.29667e-09
0.00840005
7.60534e-09
0.00840003
1.91823e-08
0.00840012
4.48898e-08
0.00840004
1.11228e-07
0.00840054
2.65591e-07
0.0084002
6.43977e-07
0.00840261
1.56902e-06
0.00840194
3.74505e-06
0.00841228
9.34264e-06
0.00841696
2.21743e-05
0.00846769
5.69963e-05
0.00854544
0.000144601
0.00891971
0.00041755
0.0100102
0.00136003
0.0130007
0.004186
0.00864929
0.0139903
0.00840003
3.21954e-13
0.00840003
2.22538e-12
0.00840003
7.20576e-12
0.00840003
2.16768e-11
0.00840003
5.31306e-11
0.00840003
1.40582e-10
0.00840003
3.26267e-10
0.00840003
8.39211e-10
0.00840003
1.93031e-09
0.00840003
4.91262e-09
0.00840005
1.13657e-08
0.00840003
2.85028e-08
0.00840017
6.69017e-08
0.00840007
1.65211e-07
0.00840077
3.9437e-07
0.00840045
9.5501e-07
0.00840365
2.32818e-06
0.00840389
5.55739e-06
0.008418
1.38389e-05
0.00843048
3.31999e-05
0.00850762
8.53827e-05
0.0086745
0.000225121
0.0093679
0.000679342
0.011361
0.00218192
0.00621914
0.0137694
0.00840003
2.19201e-13
0.00840003
1.27356e-12
0.00840003
4.68539e-12
0.00840003
1.244e-11
0.00840003
3.41388e-11
0.00840003
8.10461e-11
0.00840003
2.08963e-10
0.00840003
4.85251e-10
0.00840003
1.22545e-09
0.00840004
2.85342e-09
0.00840003
7.10365e-09
0.00840007
1.67713e-08
0.00840004
4.09577e-08
0.00840024
9.83218e-08
0.00840009
2.36251e-07
0.00840117
5.76834e-07
0.00840063
1.3623e-06
0.00840609
3.37634e-06
0.00840476
7.93505e-06
0.00843172
1.99416e-05
0.00844407
4.78618e-05
0.00857996
0.000125027
0.00887155
0.000342594
0.00998843
0.00108723
0.00327684
0.0128969
0.00840003
1.18293e-13
0.00840003
8.12093e-13
0.00840003
2.62567e-12
0.00840003
7.8999e-12
0.00840003
1.93824e-11
0.00840003
5.07716e-11
0.00840003
1.19694e-10
0.00840003
2.99983e-10
0.00840003
7.1166e-10
0.00840003
1.73171e-09
0.00840004
4.19302e-09
0.00840004
9.95968e-09
0.00840006
2.46582e-08
0.00840009
5.71624e-08
0.00840016
1.44393e-07
0.00840052
3.29886e-07
0.00840053
8.42394e-07
0.00840345
1.91375e-06
0.00840217
4.90763e-06
0.0084219
1.12718e-05
0.00841547
2.89971e-05
0.00851512
6.96822e-05
0.00860407
0.0001879
0.00921474
0.000541964
0.00175032
0.0106859
0.00840003
7.39875e-14
0.00840003
4.47733e-13
0.00840003
1.60624e-12
0.00840003
4.3743e-12
0.00840003
1.17152e-11
0.00840003
2.84825e-11
0.00840003
7.08257e-11
0.00840003
1.70413e-10
0.00840003
4.10192e-10
0.00840003
1.00213e-09
0.00840003
2.35245e-09
0.00840004
5.82693e-09
0.00840004
1.3486e-08
0.00840007
3.38399e-08
0.00840014
7.73137e-08
0.00840023
1.95072e-07
0.00840079
4.45502e-07
0.0084009
1.12134e-06
0.00840503
2.57552e-06
0.00840471
6.45303e-06
0.00843061
1.51125e-05
0.00843687
3.79876e-05
0.00856646
9.40454e-05
0.00880744
0.000256913
0.000782906
0.00978982
0.00840003
4.15419e-14
0.00840003
2.50645e-13
0.00840003
8.92429e-13
0.00840003
2.43489e-12
0.00840003
6.48576e-12
0.00840003
1.56425e-11
0.00840003
3.95077e-11
0.00840003
9.15658e-11
0.00840003
2.30061e-10
0.00840003
5.24427e-10
0.00840003
1.31623e-09
0.00840004
2.99967e-09
0.00840003
7.44666e-09
0.00840007
1.71503e-08
0.00840004
4.17365e-08
0.00840031
9.79963e-08
0.00840012
2.32499e-07
0.00840159
5.57265e-07
0.00840085
1.28712e-06
0.00840856
3.15043e-06
0.00840643
7.15236e-06
0.0084445
1.78564e-05
0.00846248
4.1507e-05
0.00865114
0.000108797
0.000301703
0.00906593
0.00840003
2.04445e-14
0.00840003
1.35291e-13
0.00840003
4.50846e-13
0.00840003
1.31711e-12
0.00840003
3.26241e-12
0.00840003
8.4082e-12
0.00840003
1.93926e-11
0.00840003
4.89665e-11
0.00840003
1.1022e-10
0.00840003
2.77119e-10
0.00840003
6.16347e-10
0.00840003
1.54132e-09
0.00840004
3.44744e-09
0.00840004
8.42151e-09
0.00840007
1.93048e-08
0.00840011
4.54227e-08
0.00840017
1.06872e-07
0.00840066
2.4266e-07
0.00840039
5.84507e-07
0.00840452
1.28398e-06
0.00840108
3.1426e-06
0.00842593
6.81546e-06
0.00841731
1.69212e-05
0.00851747
3.8981e-05
0.000103281
0.00865025
0.00840003
1.06719e-14
0.00840003
6.67804e-14
0.00840003
2.26873e-13
0.00840003
6.3939e-13
0.00840003
1.6509e-12
0.00840003
3.91587e-12
0.00840003
9.99216e-12
0.00840003
2.17024e-11
0.00840003
5.69444e-11
0.00840003
1.1651e-10
0.00840003
3.17106e-10
0.00840003
6.19361e-10
0.00840003
1.71674e-09
0.00840004
3.30873e-09
0.00840002
9.01855e-09
0.00840013
1.76891e-08
0.00839993
4.60832e-08
0.00840066
9.43723e-08
0.00839938
2.27993e-07
0.00840359
4.9894e-07
0.00839645
1.08624e-06
0.00841607
2.59824e-06
0.00839159
5.29093e-06
0.00844788
1.28134e-05
2.96116e-05
0.00844883
0.00840003
4.72303e-15
0.00840003
3.21041e-14
0.00840003
1.05539e-13
0.00840003
3.1284e-13
0.00840003
7.51394e-13
0.00840003
1.95455e-12
0.00840003
4.40692e-12
0.00840003
1.08388e-11
0.00840003
2.46821e-11
0.00840003
5.73424e-11
0.00840003
1.34042e-10
0.00840003
2.99656e-10
0.00840004
7.16645e-10
0.00840002
1.53893e-09
0.00840006
3.71515e-09
0.00839998
7.72148e-09
0.00840018
1.90471e-08
0.00839978
3.84226e-08
0.00840055
9.46277e-08
0.00839904
1.85606e-07
0.00840103
4.82544e-07
0.00839625
8.92951e-07
0.00840188
2.30863e-06
0.00838415
4.67339e-06
1.19488e-05
0.0083954
0.00840003
2.66351e-15
0.00840003
1.33047e-14
0.00840003
5.81572e-14
0.00840003
1.29708e-13
0.00840003
3.99899e-13
0.00840003
8.77093e-13
0.00840003
2.14951e-12
0.00840003
5.34857e-12
0.00840003
1.06802e-11
0.00840003
3.15575e-11
0.00840003
5.26035e-11
0.00840003
1.78473e-10
0.00840003
2.5468e-10
0.00840002
1.0069e-09
0.00840006
1.16925e-09
0.00839996
5.52934e-09
0.00840017
5.29525e-09
0.00839964
2.89105e-08
0.00840076
2.37798e-08
0.00839784
1.47501e-07
0.00840313
1.22034e-07
0.0083892
7.00378e-07
0.00840717
8.44089e-07
0.00836351
3.07463e-06
5.81637e-06
0.00838295
0.00840003
3.84268e-16
0.00840003
1.27366e-14
0.00840003
1.48299e-14
0.00840003
1.20868e-13
0.00840003
1.22132e-13
0.00840003
7.04618e-13
0.00840003
8.63613e-13
0.00840003
3.66499e-12
0.00840003
6.1695e-12
0.00840003
1.7248e-11
0.00840003
4.3142e-11
0.00840003
7.92267e-11
0.00840003
2.91139e-10
0.00840003
3.4043e-10
0.00840002
1.92068e-09
0.00840003
1.56587e-09
0.00839994
1.19921e-08
0.00840013
5.91903e-09
0.00839914
7.41348e-08
0.00840111
1.94574e-08
0.0083946
4.24262e-07
0.00840434
6.16662e-08
0.0083789
2.02559e-06
0.0083932
1.58011e-06
9.01583e-06
0.00834062
0.00840003
1.64498e-15
0.00840003
3.41166e-15
0.00840003
2.85537e-14
0.00840003
3.29773e-14
0.00840003
2.09771e-13
0.00840003
1.73525e-13
0.00840003
1.30449e-12
0.00840003
1.05628e-12
0.00840003
7.23969e-12
0.00840003
8.95503e-12
0.00840003
3.68974e-11
0.00840003
7.17262e-11
0.00840003
1.83708e-10
0.00840002
4.99688e-10
0.00840004
9.74348e-10
0.00839997
3.42393e-09
0.00840011
4.95724e-09
0.00839959
2.1921e-08
0.00840073
3.01116e-08
0.00839712
1.42663e-07
0.00840447
1.45887e-07
0.00838455
8.72974e-07
0.00841243
8.06872e-07
0.00835105
4.38798e-06
7.84058e-06
0.00837512
0.00840003
3.41469e-16
0.00840003
4.65337e-15
0.00840003
1.15514e-14
0.00840003
4.93982e-14
0.00840003
7.59838e-14
0.00840003
4.00031e-13
0.00840003
3.38574e-13
0.00840003
2.92459e-12
0.00840003
1.42823e-12
0.00840003
1.9485e-11
0.00840003
6.50199e-12
0.00840003
1.19528e-10
0.00840003
3.46886e-11
0.00840002
6.99832e-10
0.00840005
4.55776e-10
0.00839997
3.78765e-09
0.00840011
4.2666e-09
0.00839971
1.9962e-08
0.00840018
3.64973e-08
0.00839868
9.71617e-08
0.0083993
2.7986e-07
0.0083938
4.98626e-07
0.00839431
1.76665e-06
0.00836964
2.96219e-06
1.02577e-05
0.00835818
0.00840003
8.37329e-16
0.00840003
3.4363e-15
0.00840003
1.17206e-14
0.00840003
3.16645e-14
0.00840003
1.06005e-13
0.00840003
1.44212e-13
0.00840003
9.27705e-13
0.00840003
5.34085e-13
0.00840003
6.96011e-12
0.00840003
1.87824e-12
0.00840003
4.66273e-11
0.00840003
1.01502e-11
0.00840003
2.92752e-10
0.00840004
4.22423e-11
0.0084
1.71464e-09
0.00840008
7.62987e-10
0.00839985
9.4623e-09
0.00840028
8.94281e-09
0.00839906
4.68691e-08
0.00840126
7.84757e-08
0.00839451
2.40764e-07
0.00840397
5.71909e-07
0.00837751
1.20718e-06
0.00839425
3.47077e-06
7.8723e-06
0.00833009
0.00840003
-9.4949e-17
0.00840003
4.02201e-15
0.00840003
3.03211e-15
0.00840003
4.06191e-14
0.00840003
2.13107e-14
0.00840003
2.80341e-13
0.00840003
8.95206e-14
0.00840003
1.75128e-12
0.00840003
9.75465e-13
0.00840003
1.02334e-11
0.00840003
1.1697e-11
0.00840003
5.39744e-11
0.00840003
1.09964e-10
0.00840002
2.80029e-10
0.00840005
8.54085e-10
0.00839996
1.50697e-09
0.00840014
6.14446e-09
0.00839963
7.63274e-09
0.00840056
4.10172e-08
0.00839777
4.71298e-08
0.00840212
2.57064e-07
0.0083888
2.35872e-07
0.00840271
1.36463e-06
0.00835897
1.68012e-06
6.94296e-06
0.00836457
0.00840003
1.33763e-16
0.00840003
5.41125e-16
0.00840003
5.64764e-15
0.00840003
6.94564e-15
0.00840003
3.13038e-14
0.00840003
1.12296e-13
0.00840003
5.70866e-14
0.00840003
1.12647e-12
0.00840003
-1.22673e-13
0.00840003
8.84231e-12
0.00840003
-2.25088e-12
0.00840003
6.36668e-11
0.00840003
-2.21417e-11
0.00840002
4.04615e-10
0.00840004
-1.32574e-10
0.00839997
2.34494e-09
0.00840011
-7.60141e-10
0.00839961
1.21884e-08
0.00840065
2.02849e-09
0.00839725
5.76084e-08
0.00840382
6.08463e-08
0.00838527
2.59838e-07
0.00840867
4.98838e-07
0.00835219
1.31216e-06
3.22981e-06
0.00836682
0.00840003
0.00840003
0.00840003
0.00840003
0.00840003
0.00840003
0.00840003
0.00840003
0.00840003
0.00840003
0.00840003
0.00840003
0.00840003
0.00840004
0.0084
0.00840007
0.00839988
0.00840024
0.0083992
0.00840063
0.00839583
0.00840042
0.00838138
0.00838791
0.00833007
0.00414464
0.00433143
0.00201587
0.00211472
2.08255e-05
0.00195618
-0.00140416
0.00142474
-0.00198943
0.000589541
-0.00243811
0.000446725
-0.00262414
0.000185849
-0.00271407
9.07952e-05
-0.00286689
0.000153885
-0.00303631
0.000169866
-0.00318032
0.000143964
-0.00329365
0.000112953
-0.00339568
0.000102097
-0.0034938
9.82197e-05
-0.0035853
9.14943e-05
-0.00366541
7.96401e-05
-0.00372668
6.04623e-05
-0.00376307
3.58967e-05
-0.00378584
2.09556e-05
-0.00382585
3.55729e-05
-0.00386797
3.70305e-05
-0.00389913
2.57474e-05
-0.00391835
9.63206e-06
-0.00391849
-1.35266e-05
-0.0038851
-5.00969e-05
-0.00380647
-9.72088e-05
-0.00368412
-0.000141443
-0.00352793
-0.000175481
-0.00334572
-0.000200591
-0.00314447
-0.000218968
-0.00292768
-0.000232631
-0.00270145
-0.000241857
-0.00246926
-0.000246599
-0.00223494
-0.00024691
-0.00200123
-0.000246304
-0.00176382
-0.000247971
-0.00152693
-0.000247227
-0.00128378
-0.000253406
-0.00104081
-0.000252525
-0.000800152
-0.000249417
-0.000562417
-0.00024609
-0.000325628
-0.000244838
-8.70322e-05
-0.000246171
0.000155344
-0.000249891
0.000384965
-0.000236626
0.000601622
-0.000222899
0.000810417
-0.000214505
0.00101085
-0.000205308
0.00120295
-0.000196385
0.00138634
-0.000187204
0.00156504
-0.000181242
0.00174124
-0.000177923
0.00191177
-0.000171447
0.00207591
-0.000164106
0.00223347
-0.000156692
0.00238443
-0.000149436
0.00252943
-0.000142717
0.00266876
-0.000136273
0.00280279
-0.000130182
0.00293141
-0.000124289
0.00305487
-0.000118664
0.00317322
-0.00011327
0.0032868
-0.000108105
0.00339572
-0.000103181
0.00350009
-9.84484e-05
0.00359997
-9.39422e-05
0.00369551
-8.96004e-05
0.00378688
-8.54729e-05