/*--------------------------------*- C++ -*----------------------------------*\
  =========                 |
  \\      /  F ield         | OpenFOAM: The Open Source CFD Toolbox
   \\    /   O peration     | Website:  https://openfoam.org
    \\  /    A nd           | Version:  10
     \\/     M anipulation  |
\*---------------------------------------------------------------------------*/
FoamFile
{
    format      ascii;
    class       volScalarField;
    location    "7";
    object      rho;
}
// * * * * * * * * * * * * * * * * * * * * * * * * * * * * * * * * * * * * * //

dimensions      [1 -3 0 0 0 0 0];

internalField   nonuniform List<scalar> 
5250
(
1.40001
1.40003
1.40006
1.40019
1.4004
1.40115
1.40248
1.40686
1.41518
1.44003
1.48956
1.61123
1.8544
2.43621
4.78253
5.80177
5.71696
5.65724
5.67631
5.75488
5.84148
5.89388
5.9355
5.96297
5.99015
1.40001
1.40003
1.40007
1.40018
1.40041
1.40109
1.40256
1.4065
1.4156
1.43839
1.49002
1.60708
1.85062
2.42083
4.73638
5.80484
5.71718
5.65421
5.67369
5.75282
5.8395
5.89214
5.93458
5.9629
5.99109
1.40001
1.40002
1.40007
1.40016
1.40045
1.40096
1.40274
1.40579
1.41626
1.43548
1.49025
1.59909
1.84217
2.38914
4.633
5.81253
5.71696
5.64471
5.66381
5.74194
5.82808
5.87995
5.92137
5.95074
5.9795
1.40001
1.40003
1.40006
1.40018
1.40037
1.40107
1.40224
1.40639
1.41371
1.43724
1.4819
1.59632
1.82182
2.34551
4.4691
5.82784
5.71803
5.62917
5.64706
5.72246
5.80611
5.85708
5.89809
5.92455
5.95463
1.40001
1.40002
1.40006
1.40016
1.40036
1.40099
1.40211
1.40604
1.41282
1.43511
1.47723
1.58536
1.80017
2.28627
4.24384
5.85248
5.72162
5.60895
5.62313
5.69707
5.77665
5.82528
5.86478
5.89035
5.92054
1.40001
1.40002
1.40006
1.40013
1.40038
1.40078
1.40228
1.40477
1.41353
1.42923
1.47603
1.56692
1.77712
2.21379
3.95445
5.8856
5.72928
5.58431
5.59515
5.66019
5.73905
5.78024
5.81809
5.84069
5.87239
1.40001
1.40002
1.40005
1.40014
1.40029
1.40084
1.40174
1.40503
1.41062
1.4295
1.46414
1.55768
1.74014
2.13985
3.60824
5.92077
5.74345
5.55982
5.56439
5.61801
5.69004
5.7259
5.75387
5.77328
5.80384
1.40001
1.40002
1.40004
1.40012
1.40026
1.40073
1.40162
1.40429
1.40986
1.42538
1.45832
1.5398
1.707
2.06304
3.21777
5.92795
5.75533
5.53721
5.53204
5.56884
5.63057
5.65365
5.67121
5.67592
5.70288
1.40001
1.40002
1.40004
1.4001
1.40026
1.40059
1.40153
1.40365
1.40904
1.42201
1.45302
1.52345
1.67818
1.9961
2.92957
5.80239
5.71381
5.50496
5.49223
5.50741
5.55639
5.56346
5.55866
5.54078
5.54278
1.40001
1.40001
1.40004
1.40009
1.40023
1.40053
1.40136
1.40323
1.40809
1.41951
1.44759
1.51062
1.65144
1.94055
2.71853
5.49566
5.57225
5.48107
5.43482
5.43525
5.46037
5.4487
5.41639
5.34553
5.28427
1.40001
1.40001
1.40003
1.40008
1.4002
1.40047
1.40122
1.40277
1.40744
1.41657
1.44336
1.4972
1.62644
1.88712
2.53595
5.06732
5.4883
5.4388
5.36393
5.35576
5.34777
5.31584
5.22565
5.01107
4.39694
1.40001
1.40001
1.40003
1.40007
1.40017
1.40042
1.401
1.40261
1.40592
1.41568
1.43559
1.48808
1.59721
1.83475
2.37003
4.565
5.44129
5.40285
5.29948
5.26748
5.23721
5.17068
5.02437
4.72568
4.06963
1.40001
1.40001
1.40003
1.40006
1.40015
1.40034
1.40092
1.40199
1.40561
1.41197
1.43265
1.47197
1.57314
1.77447
2.21872
3.98698
5.42481
5.37946
5.25018
5.18104
5.13092
5.0344
4.84713
4.53271
4.02758
1.40001
1.40001
1.40002
1.40006
1.40011
1.40032
1.40067
1.40186
1.40407
1.411
1.42466
1.46288
1.54025
1.71852
2.07472
3.34672
5.40184
5.36167
5.22605
5.10687
5.02795
4.91141
4.71965
4.42791
4.03526
1.40001
1.40001
1.40002
1.40005
1.40009
1.40025
1.40054
1.40152
1.4032
1.40904
1.41934
1.45149
1.5128
1.66247
1.95267
2.76822
5.25586
5.30799
5.21652
5.05203
4.94353
4.81443
4.62828
4.36488
4.04054
1.40001
1.40001
1.40002
1.40003
1.40008
1.40019
1.40046
1.40117
1.40269
1.40712
1.416
1.44146
1.49328
1.61712
1.86658
2.47081
4.77964
5.20912
5.15385
5.00427
4.87328
4.73552
4.56007
4.32122
4.03858
1.40001
1.40001
1.40001
1.40003
1.40007
1.40015
1.40039
1.40088
1.40227
1.40541
1.41335
1.43229
1.47682
1.57591
1.78708
2.24147
4.06413
5.1149
5.08696
4.97371
4.81865
4.67165
4.50219
4.28702
4.0339
1.40001
1.40001
1.40001
1.40002
1.40006
1.40011
1.40031
1.40068
1.40177
1.40417
1.41039
1.42496
1.46035
1.5385
1.71034
2.05364
3.28816
5.04607
5.04125
4.96568
4.796
4.62538
4.4574
4.25963
4.03219
1.40001
1.40001
1.40001
1.40002
1.40004
1.4001
1.4002
1.40058
1.40121
1.40339
1.40732
1.41975
1.44378
1.50836
1.63693
1.9075
2.60342
4.81419
5.02645
4.95652
4.78859
4.59654
4.42442
4.23851
4.03138
1.40001
1.40001
1.40001
1.40002
1.40003
1.40007
1.40018
1.40038
1.40106
1.40223
1.40633
1.41335
1.43638
1.47921
1.58977
1.80444
2.29418
4.18646
4.93502
4.89922
4.78158
4.58175
4.40403
4.22463
4.03142
1.40001
1.40001
1.40001
1.40001
1.40002
1.40006
1.40012
1.40031
1.40071
1.40181
1.40436
1.41056
1.42593
1.46122
1.54222
1.71505
2.06108
3.34969
4.83492
4.83825
4.77061
4.59819
4.39942
4.21832
4.03583
1.40001
1.40001
1.40001
1.40001
1.40002
1.40004
1.40009
1.40022
1.40053
1.40126
1.4032
1.40736
1.41891
1.44324
1.5041
1.63139
1.88448
2.54023
4.56965
4.83015
4.77067
4.62115
4.4057
4.22083
4.04276
1.40001
1.40001
1.40001
1.40001
1.40001
1.40003
1.40006
1.40017
1.40036
1.40096
1.40215
1.40561
1.41299
1.43242
1.47505
1.57415
1.77582
2.20927
3.88537
4.75331
4.72734
4.63599
4.43179
4.23381
4.05682
1.40001
1.40001
1.40001
1.40001
1.40001
1.40002
1.40005
1.40012
1.40027
1.40064
1.4016
1.40374
1.40961
1.42189
1.45497
1.52354
1.67909
1.97231
2.9665
4.58176
4.69118
4.63157
4.46998
4.26248
4.07955
1.40001
1.40001
1.40001
1.40001
1.40001
1.40002
1.40003
1.40008
1.40018
1.40046
1.40108
1.40261
1.40653
1.4152
1.43779
1.48676
1.59866
1.8169
2.33158
4.12528
4.64752
4.61135
4.50392
4.2991
4.10988
1.40001
1.40001
1.40001
1.40001
1.40001
1.40001
1.40002
1.40006
1.40012
1.40032
1.40072
1.40185
1.40432
1.4107
1.42553
1.46117
1.5398
1.70912
2.03669
3.26348
4.51203
4.56393
4.51129
4.35858
4.14643
1.40001
1.40001
1.40001
1.40001
1.40001
1.40001
1.40002
1.40004
1.40008
1.40022
1.40046
1.40129
1.40268
1.40751
1.41585
1.44253
1.49147
1.6159
1.83261
2.40033
4.17133
4.54107
4.50411
4.40136
4.19875
1.40001
1.40001
1.40001
1.40001
1.40001
1.40001
1.40001
1.40003
1.40006
1.40015
1.40031
1.40085
1.40178
1.40502
1.41047
1.42871
1.46158
1.55063
1.71691
2.0654
3.36588
4.42557
4.46579
4.417
4.28028
1.40001
1.40001
1.40001
1.40001
1.40001
1.40001
1.40001
1.40002
1.40004
1.40009
1.40023
1.40049
1.40129
1.40288
1.40741
1.417
1.44207
1.49533
1.61686
1.83292
2.40735
4.11669
4.44869
4.41845
4.33379
1.40001
1.40001
1.40001
1.40001
1.40001
1.40001
1.40001
1.40001
1.40003
1.40006
1.40015
1.40031
1.40086
1.40179
1.40504
1.41046
1.42875
1.46133
1.55011
1.71356
2.05907
3.34562
4.3298
4.38896
4.34728
1.40001
1.40001
1.40001
1.40001
1.40001
1.40001
1.40001
1.40001
1.40002
1.40004
1.40009
1.40022
1.4005
1.4012
1.40298
1.40688
1.41741
1.43942
1.49509
1.60814
1.81994
2.36742
4.00694
4.36294
4.34177
1.40001
1.40001
1.40001
1.40001
1.40001
1.40001
1.40001
1.40001
1.40001
1.40003
1.40006
1.40013
1.40032
1.40079
1.40177
1.40469
1.41017
1.427
1.4588
1.54205
1.69842
2.02052
3.20531
4.21607
4.31711
1.40001
1.40001
1.40001
1.40001
1.40001
1.40001
1.40001
1.40001
1.40001
1.40002
1.40004
1.40009
1.40019
1.40049
1.4011
1.40278
1.40653
1.41585
1.43747
1.48757
1.59518
1.79206
2.28894
3.83635
4.27503
1.40001
1.40001
1.40001
1.40001
1.40001
1.40001
1.40001
1.40001
1.40001
1.40001
1.40003
1.40005
1.40013
1.40029
1.40069
1.40173
1.40389
1.41016
1.42228
1.45676
1.52377
1.67578
1.95133
2.94689
4.07855
1.40001
1.40001
1.40001
1.40001
1.40001
1.40001
1.40001
1.40001
1.40001
1.40001
1.40002
1.40004
1.40008
1.40018
1.40043
1.40098
1.40252
1.4056
1.41458
1.43211
1.4794
1.57269
1.75597
2.17939
3.59636
1.40001
1.40001
1.40001
1.40001
1.40001
1.40001
1.40001
1.40001
1.40001
1.40001
1.40001
1.40002
1.40005
1.40011
1.40026
1.40061
1.40142
1.40355
1.40806
1.4204
1.44581
1.50908
1.63353
1.8646
2.58639
1.40001
1.40001
1.40001
1.40001
1.40001
1.40001
1.40001
1.40001
1.40001
1.40001
1.40001
1.40002
1.40003
1.40006
1.40016
1.40033
1.40092
1.40191
1.40524
1.41111
1.42951
1.46347
1.55296
1.70811
2.06092
1.40001
1.40001
1.40001
1.40001
1.40001
1.40001
1.40001
1.40001
1.40001
1.40001
1.40001
1.40001
1.40002
1.40004
1.40009
1.40023
1.40047
1.4013
1.4027
1.4074
1.4156
1.44112
1.48777
1.60372
1.79354
1.40001
1.40001
1.40001
1.40001
1.40001
1.40001
1.40001
1.40001
1.40001
1.40001
1.40001
1.40001
1.40001
1.40003
1.40006
1.40013
1.40032
1.40075
1.40179
1.40441
1.4101
1.42534
1.45689
1.53444
1.68508
1.40001
1.40001
1.40001
1.40001
1.40001
1.40001
1.40001
1.40001
1.40001
1.40001
1.40001
1.40001
1.40001
1.40002
1.40004
1.40009
1.40024
1.40049
1.40138
1.40287
1.40806
1.41715
1.44595
1.50024
1.63856
1.40001
1.40001
1.40001
1.40001
1.40001
1.40001
1.40001
1.40001
1.40001
1.40001
1.40001
1.40001
1.40001
1.40002
1.40004
1.40007
1.40019
1.40042
1.40109
1.40258
1.40652
1.41573
1.43883
1.49184
1.6142
1.40001
1.40001
1.40001
1.40001
1.40001
1.40001
1.40001
1.40001
1.40001
1.40001
1.40001
1.40001
1.40001
1.40002
1.40003
1.40007
1.40017
1.40039
1.40104
1.40232
1.40645
1.41423
1.43841
1.4867
1.60807
1.40001
1.40001
1.40001
1.40001
1.40001
1.40001
1.40001
1.40001
1.40001
1.40001
1.40001
1.40001
1.40001
1.40002
1.40003
1.40007
1.40016
1.40038
1.40098
1.40229
1.40616
1.41413
1.43709
1.48574
1.60356
1.40001
1.40001
1.40001
1.40001
1.40001
1.40001
1.40001
1.40001
1.40001
1.40001
1.40001
1.40001
1.40001
1.40001
1.40003
1.40006
1.40017
1.40035
1.40102
1.40215
1.40628
1.41361
1.43744
1.48398
1.60365
1.40001
1.40001
1.40001
1.40001
1.40001
1.40001
1.40001
1.40001
1.40001
1.40001
1.40001
1.40001
1.40001
1.40002
1.40003
1.40007
1.40014
1.4004
1.40086
1.40245
1.40545
1.41496
1.43423
1.48722
1.59708
1.40001
1.40001
1.40001
1.40001
1.40001
1.40001
1.40001
1.40001
1.40001
1.40001
1.40001
1.40001
1.40001
1.40001
1.40003
1.40006
1.40015
1.40035
1.40096
1.40213
1.40605
1.41333
1.43636
1.48245
1.59919
1.40001
1.40001
1.40001
1.40001
1.40001
1.40001
1.40001
1.40001
1.40001
1.40001
1.40001
1.40001
1.40001
1.40001
1.40003
1.40006
1.40015
1.40037
1.40087
1.40232
1.40538
1.41438
1.43369
1.48431
1.59463
1.40001
1.40001
1.40001
1.40001
1.40001
1.40001
1.40001
1.40001
1.40001
1.40001
1.40001
1.40001
1.40001
1.40001
1.40003
1.40006
1.40014
1.40035
1.40091
1.40213
1.40573
1.41328
1.43485
1.48156
1.59452
1.40001
1.40001
1.40001
1.40001
1.40001
1.40001
1.40001
1.40001
1.40001
1.40001
1.40001
1.40001
1.40001
1.40001
1.40003
1.40006
1.40013
1.40038
1.40081
1.40229
1.4052
1.41411
1.43284
1.48328
1.59092
1.40001
1.40001
1.40001
1.40001
1.40001
1.40001
1.40001
1.40001
1.40001
1.40001
1.40001
1.40001
1.40001
1.40001
1.40003
1.40006
1.40014
1.40036
1.40083
1.40228
1.40513
1.4142
1.4324
1.48323
1.59043
2.18428
1.598
1.94977
2.03987
1.8477
1.81836
1.80631
1.79089
1.75966
1.72644
1.69797
1.67111
1.64218
1.61051
1.58047
1.55288
1.52918
1.50395
1.47789
1.46734
1.46391
1.46355
1.47297
1.50115
1.54419
1.60058
1.66232
1.72615
1.7887
1.84945
1.90686
1.9593
2.01013
2.05323
2.09333
2.13054
2.16312
2.19527
2.22398
2.25018
2.27325
2.29324
2.31044
2.32563
2.34047
2.35191
2.36124
2.36681
2.37255
2.37452
2.37729
2.37638
2.37445
2.371
2.3672
2.36175
2.35567
2.34832
2.34058
2.33187
2.32248
2.31234
2.30148
2.29024
2.27827
2.26599
2.25294
2.23971
2.22581
2.21177
2.19705
2.18223
2.1667
2.1512
2.13502
2.11894
2.10219
2.08557
2.06835
2.05129
2.03376
2.01634
1.99867
1.98093
1.96326
1.94532
1.92771
1.9098
1.89219
1.87458
1.85697
1.83986
1.82248
1.80601
1.78942
1.77388
1.75893
1.74539
1.73389
1.72608
2.68634
2.20436
2.22694
2.05151
1.88999
1.80561
1.78303
1.75885
1.70319
1.65597
1.62236
1.59315
1.56464
1.53121
1.49815
1.469
1.44256
1.42032
1.39698
1.3836
1.37832
1.37683
1.38433
1.40951
1.45155
1.50923
1.57625
1.64601
1.71404
1.77965
1.84316
1.90135
1.95512
2.0049
2.05147
2.09393
2.13353
2.17084
2.20705
2.23846
2.26781
2.29266
2.31742
2.33927
2.35954
2.37731
2.39141
2.40286
2.41233
2.41993
2.42639
2.42992
2.43161
2.43184
2.43104
2.42901
2.4257
2.42138
2.41584
2.40953
2.40211
2.39411
2.38506
2.37554
2.3651
2.35422
2.34256
2.33052
2.31777
2.30469
2.29101
2.27695
2.26241
2.24739
2.23208
2.21615
2.20019
2.18344
2.16697
2.14947
2.13268
2.1145
2.09754
2.07878
2.06171
2.04256
2.02534
2.00607
1.98864
1.9695
1.95193
1.9331
1.91568
1.89732
1.88058
1.86305
1.84796
1.83248
1.82049
1.81064
3.18921
2.65408
2.46191
2.2834
2.09914
1.96289
1.86909
1.79235
1.71639
1.65456
1.61437
1.58846
1.55307
1.50489
1.46161
1.42349
1.39533
1.37207
1.35281
1.33829
1.33014
1.32683
1.33294
1.35514
1.39686
1.4551
1.52414
1.59944
1.67629
1.74996
1.82147
1.88941
1.95319
2.01146
2.0674
2.1168
2.16284
2.20578
2.24549
2.28143
2.31458
2.34395
2.37101
2.39475
2.41652
2.43493
2.45088
2.46388
2.47456
2.48396
2.49182
2.49703
2.49918
2.50018
2.50006
2.49866
2.49598
2.49198
2.48702
2.48074
2.47382
2.46539
2.45672
2.44648
2.4364
2.42462
2.41336
2.40012
2.3878
2.37323
2.36001
2.34426
2.33028
2.3135
2.29887
2.28124
2.26603
2.24769
2.23196
2.21307
2.19689
2.17761
2.16109
2.14159
2.12485
2.10533
2.08832
2.06912
2.05169
2.03303
2.01527
1.99722
1.97944
1.96211
1.94499
1.92882
1.91302
1.89891
1.88588
1.8774
3.45216
2.94504
2.65663
2.45856
2.29404
2.15291
2.04602
1.94813
1.84492
1.7505
1.66868
1.61798
1.57146
1.51761
1.46493
1.42362
1.39312
1.37119
1.35193
1.3338
1.3161
1.30511
1.30591
1.33074
1.37436
1.44086
1.52116
1.60961
1.69866
1.78251
1.86237
1.93811
2.00818
2.07247
2.13255
2.18704
2.23882
2.28599
2.33044
2.37046
2.40729
2.44003
2.47018
2.49668
2.52112
2.54175
2.56009
2.57444
2.58684
2.59635
2.60543
2.61109
2.61431
2.6142
2.61426
2.61189
2.60996
2.60501
2.60062
2.59306
2.58652
2.57688
2.56858
2.55715
2.54722
2.53421
2.52278
2.50843
2.49563
2.48012
2.46599
2.44947
2.43406
2.41668
2.40005
2.38194
2.3642
2.34549
2.3268
2.30758
2.28811
2.26852
2.24841
2.22863
2.20798
2.1882
2.16712
2.14755
2.12626
2.10693
2.08574
2.06691
2.04626
2.02781
2.00806
1.99032
1.97234
1.95633
1.94158
1.93082
3.59043
3.15726
2.84001
2.62709
2.46066
2.32291
2.20405
2.10339
2.0043
1.90614
1.81742
1.72948
1.65137
1.58527
1.52501
1.472
1.42807
1.39627
1.37053
1.34959
1.33402
1.329
1.33683
1.36406
1.41687
1.48643
1.56802
1.65551
1.74477
1.83166
1.91514
1.9947
2.06878
2.13824
2.20234
2.26246
2.31792
2.36967
2.41726
2.46091
2.49987
2.53491
2.5659
2.5934
2.61756
2.63838
2.65617
2.67045
2.682
2.69106
2.69929
2.70471
2.70762
2.7061
2.70419
2.70035
2.6963
2.69008
2.68351
2.675
2.66627
2.65592
2.64538
2.63348
2.62132
2.60812
2.59452
2.58019
2.5653
2.54998
2.534
2.51778
2.50093
2.48387
2.46632
2.44841
2.43034
2.41162
2.39318
2.37376
2.35509
2.33512
2.31623
2.2959
2.2768
2.25634
2.237
2.21653
2.1972
2.17691
2.15756
2.13726
2.11812
2.09809
2.07946
2.06006
2.04252
2.02473
2.00954
1.99673
3.67783
3.30744
3.00658
2.77872
2.60777
2.46614
2.34947
2.24221
2.14561
2.05075
1.96059
1.87717
1.79281
1.71428
1.64074
1.57628
1.51964
1.47307
1.43683
1.41215
1.39864
1.39791
1.40821
1.43854
1.49302
1.56016
1.63779
1.71969
1.80868
1.89985
1.99003
2.07616
2.15686
2.23067
2.29891
2.36063
2.4178
2.46895
2.51607
2.55766
2.59569
2.62866
2.65845
2.68389
2.7067
2.72555
2.74194
2.75442
2.76457
2.77148
2.77795
2.78213
2.78445
2.7818
2.7783
2.77286
2.76739
2.75994
2.75241
2.74279
2.73321
2.72164
2.7104
2.69726
2.68462
2.67009
2.65618
2.64042
2.62536
2.60852
2.59238
2.57458
2.55742
2.53871
2.52055
2.50101
2.48194
2.46168
2.44186
2.42107
2.40067
2.37957
2.35871
2.33752
2.31631
2.29548
2.27418
2.25382
2.23226
2.2124
2.19077
2.17137
2.14994
2.13117
2.11038
2.09249
2.07298
2.05675
2.03988
2.0282
3.73356
3.41879
3.13844
2.91478
2.73602
2.5929
2.47314
2.36808
2.27062
2.17908
2.09054
2.0061
1.92573
1.84781
1.77382
1.706
1.64696
1.59757
1.56164
1.53653
1.52594
1.52695
1.54911
1.58857
1.63721
1.69378
1.75654
1.82862
1.89578
1.97579
2.06251
2.15115
2.23389
2.31
2.37699
2.43704
2.49093
2.53973
2.58409
2.62384
2.65958
2.69078
2.71874
2.74277
2.76423
2.78198
2.79737
2.80906
2.8188
2.82456
2.83061
2.83469
2.8377
2.83604
2.83251
2.82689
2.82121
2.81384
2.80614
2.79675
2.7868
2.77548
2.76354
2.75069
2.7371
2.72304
2.70801
2.69287
2.67652
2.6604
2.64291
2.62592
2.60757
2.58975
2.57078
2.55215
2.53265
2.5133
2.4933
2.47339
2.45293
2.4326
2.41176
2.39144
2.37025
2.34974
2.3281
2.30744
2.28548
2.26464
2.24263
2.22167
2.19992
2.17899
2.15787
2.13732
2.11737
2.09807
2.08051
2.06521
3.7712
3.49855
3.24341
3.02536
2.84808
2.70109
2.57961
2.47451
2.37919
2.28893
2.20334
2.12158
2.04268
1.96968
1.89768
1.83421
1.77818
1.73612
1.70917
1.68988
1.68483
1.70282
1.74639
1.78162
1.81669
1.85352
1.8879
1.92674
1.97515
2.02337
2.08491
2.16713
2.25322
2.33759
2.4123
2.4783
2.53529
2.58601
2.63138
2.6719
2.70874
2.74117
2.77048
2.79595
2.81861
2.83783
2.85427
2.86744
2.878
2.88492
2.89082
2.89543
2.89864
2.89865
2.89511
2.88957
2.88299
2.8753
2.86666
2.85713
2.84638
2.83491
2.82209
2.80881
2.79426
2.77944
2.7636
2.74748
2.73068
2.71335
2.69571
2.67726
2.65879
2.63937
2.6201
2.59985
2.57985
2.55894
2.53834
2.51696
2.49606
2.47457
2.45347
2.43178
2.41044
2.38863
2.36709
2.34531
2.32366
2.30205
2.28039
2.25904
2.23752
2.21654
2.19541
2.17502
2.15474
2.13561
2.1174
2.10189
3.80103
3.55922
3.32701
3.11972
2.94379
2.79648
2.6728
2.56618
2.47172
2.38467
2.30042
2.2228
2.14611
2.07574
2.00981
1.95034
1.90607
1.8785
1.859
1.85061
1.86906
1.93036
1.97713
1.99628
2.01863
2.03293
2.0315
2.03475
2.05784
2.08714
2.12907
2.18361
2.25728
2.34642
2.43277
2.5107
2.57776
2.63508
2.684
2.72635
2.76364
2.79652
2.82591
2.85111
2.87345
2.89183
2.90797
2.92048
2.93076
2.93733
2.9419
2.94507
2.94756
2.94785
2.9446
2.93906
2.93217
2.92384
2.91459
2.90412
2.89295
2.88055
2.86767
2.8535
2.83906
2.8233
2.80748
2.79039
2.77336
2.75518
2.73706
2.71796
2.69889
2.67892
2.65906
2.63832
2.61784
2.59647
2.5757
2.55403
2.53293
2.51102
2.48947
2.46743
2.44536
2.42335
2.4008
2.37891
2.35603
2.33429
2.31132
2.28979
2.26705
2.24579
2.2236
2.20285
2.18166
2.16203
2.143
2.12657
3.82278
3.60541
3.39333
3.19664
3.02631
2.87882
2.75439
2.647
2.55203
2.46623
2.38491
2.30958
2.23745
2.17021
2.11038
2.06145
2.03551
2.017
2.00785
2.02597
2.10281
2.18526
2.21656
2.22869
2.23388
2.2169
2.17557
2.14689
2.14152
2.15799
2.18232
2.21788
2.26402
2.32451
2.40382
2.48771
2.56579
2.63498
2.69184
2.7394
2.77859
2.81226
2.84114
2.86613
2.88824
2.90738
2.92362
2.93685
2.94725
2.95467
2.95907
2.96191
2.96429
2.9649
2.96322
2.95781
2.95104
2.94249
2.93316
2.92247
2.91105
2.89856
2.88523
2.87113
2.85607
2.84054
2.82403
2.8073
2.78964
2.77186
2.75328
2.73449
2.71512
2.69535
2.67526
2.65471
2.63417
2.61334
2.5924
2.57137
2.5499
2.52869
2.50668
2.48532
2.46289
2.44141
2.41872
2.39717
2.37437
2.35278
2.33002
2.30849
2.28593
2.26458
2.24243
2.22149
2.20013
2.18015
2.16075
2.14357
3.84361
3.64354
3.44806
3.26331
3.09625
2.95243
2.82581
2.71905
2.62301
2.53889
2.45928
2.38646
2.31854
2.25776
2.20486
2.17964
2.16104
2.15357
2.17399
2.24465
2.37831
2.45173
2.45958
2.4611
2.44511
2.3829
2.31851
2.26992
2.24148
2.23507
2.24736
2.26609
2.29514
2.33064
2.37964
2.4445
2.52397
2.60281
2.67419
2.73505
2.78491
2.82543
2.85825
2.88563
2.90877
2.92881
2.9459
2.96011
2.97152
2.98005
2.98582
2.98861
2.99081
2.99223
2.99194
2.98828
2.98171
2.97384
2.9644
2.95419
2.94253
2.93037
2.91678
2.90286
2.88761
2.87213
2.85553
2.83869
2.82098
2.80285
2.78414
2.76479
2.74512
2.72464
2.70422
2.68317
2.66228
2.64083
2.61954
2.59777
2.57607
2.55401
2.53195
2.50968
2.48732
2.46491
2.44233
2.41988
2.39719
2.3748
2.35209
2.32985
2.3073
2.2853
2.2631
2.24153
2.22002
2.19933
2.17967
2.16146
3.86357
3.67787
3.49381
3.32086
3.15934
3.0167
2.89129
2.78222
2.68683
2.60204
2.52555
2.45488
2.39212
2.33828
2.30842
2.29217
2.28785
2.30336
2.36811
2.53668
2.67044
2.69795
2.6995
2.68213
2.62453
2.53644
2.45932
2.39925
2.35644
2.3311
2.31974
2.32665
2.33822
2.35591
2.38576
2.42105
2.47037
2.53909
2.61423
2.68706
2.7518
2.80533
2.84783
2.88108
2.90747
2.92889
2.94678
2.96156
2.97394
2.98379
2.99111
2.99549
2.99801
2.99972
3.00059
2.99907
2.99403
2.98646
2.97767
2.96724
2.95604
2.94355
2.93048
2.91632
2.90164
2.88597
2.86988
2.85281
2.83546
2.81712
2.79862
2.77907
2.75956
2.73917
2.71905
2.69808
2.6774
2.65598
2.63471
2.613
2.59119
2.56933
2.54702
2.52509
2.50237
2.4804
2.4574
2.43539
2.41224
2.39021
2.36707
2.34509
2.32214
2.30033
2.27777
2.25635
2.2345
2.21392
2.19393
2.17558
3.8834
3.71054
3.53654
3.37054
3.21685
3.07616
2.95159
2.84228
2.74585
2.66108
2.58657
2.51993
2.46311
2.42928
2.41481
2.41128
2.42801
2.48816
2.65353
2.84961
2.92869
2.92921
2.91649
2.87154
2.77228
2.67676
2.59533
2.53017
2.47802
2.43977
2.41149
2.39629
2.38919
2.39689
2.40794
2.42638
2.45191
2.48772
2.54274
2.61173
2.68531
2.75293
2.81126
2.85772
2.89389
2.9215
2.94271
2.95963
2.97316
2.98422
2.99295
2.99929
3.00277
3.00454
3.00551
3.00537
3.00251
2.99628
2.98784
2.97818
2.96697
2.95495
2.9417
2.9279
2.91304
2.89771
2.8814
2.86461
2.84693
2.8287
2.8097
2.79017
2.77024
2.74995
2.7294
2.70855
2.68744
2.66618
2.64456
2.62298
2.60093
2.57911
2.55673
2.53471
2.5121
2.48992
2.46717
2.4449
2.42208
2.39982
2.37699
2.35483
2.33211
2.31015
2.28769
2.2661
2.24423
2.22339
2.20329
2.18441
3.9069
3.74023
3.57625
3.41712
3.26783
3.13207
3.00776
2.89852
2.80232
2.71651
2.64491
2.58287
2.54186
2.53081
2.52677
2.5442
2.60391
2.75606
2.99157
3.13493
3.13716
3.13079
3.09989
3.01251
2.90392
2.80813
2.72695
2.65933
2.60129
2.55347
2.51295
2.48196
2.45874
2.44471
2.4413
2.44831
2.4582
2.47548
2.50123
2.54114
2.60242
2.67021
2.73885
2.8018
2.85408
2.89518
2.92603
2.94857
2.96551
2.97839
2.98869
2.99651
3.00207
3.00495
3.00635
3.00705
3.00626
3.00283
2.99587
2.98717
2.97688
2.96547
2.95289
2.93939
2.92503
2.90978
2.89388
2.87703
2.8597
2.84131
2.82264
2.80311
2.78353
2.76323
2.74292
2.72202
2.70106
2.67972
2.65818
2.6365
2.61447
2.59256
2.57014
2.54804
2.52533
2.50308
2.48018
2.45782
2.43483
2.41242
2.38946
2.36712
2.34431
2.32219
2.29968
2.27796
2.25606
2.23507
2.21494
2.19576
3.93569
3.77327
3.61542
3.46439
3.31879
3.18555
3.06353
2.95397
2.8584
2.77489
2.70602
2.65377
2.64326
2.64006
2.65565
2.71224
2.85342
3.1151
3.29797
3.33402
3.32795
3.30056
3.22888
3.12215
3.02088
2.93193
2.85389
2.785
2.7231
2.66796
2.61866
2.57615
2.53996
2.51122
2.49066
2.47739
2.47855
2.48493
2.49437
2.51191
2.5408
2.58456
2.64722
2.71442
2.78056
2.83865
2.88614
2.9215
2.94753
2.96578
2.97929
2.98886
2.99572
3.00029
3.0019
3.00287
3.00285
3.00166
2.99724
2.98969
2.98012
2.96928
2.95709
2.94393
2.92976
2.91475
2.8989
2.8822
2.86474
2.84646
2.82775
2.80837
2.78877
2.76855
2.7482
2.72733
2.70633
2.685
2.66343
2.64177
2.61974
2.59786
2.57548
2.55345
2.53082
2.50867
2.48589
2.46368
2.44082
2.41861
2.39575
2.37362
2.35088
2.32895
2.30649
2.28491
2.26306
2.24215
2.22207
2.20281
3.96842
3.80842
3.65528
3.50932
3.36919
3.23783
3.11812
3.00917
2.91444
2.83643
2.77316
2.75641
2.75176
2.76747
2.82015
2.95242
3.22677
3.44115
3.50906
3.50436
3.48221
3.42541
3.32218
3.22132
3.13098
3.05
2.97583
2.9065
2.84155
2.78077
2.72469
2.67347
2.62791
2.58826
2.55518
2.529
2.5113
2.50155
2.50626
2.51054
2.51981
2.53737
2.57073
2.62182
2.68501
2.75211
2.8151
2.86878
2.91083
2.94172
2.96299
2.97748
2.98685
2.9932
2.99651
2.99797
2.99864
2.99874
2.99706
2.99211
2.98404
2.9743
2.963
2.95041
2.93666
2.92185
2.90622
2.88956
2.87225
2.85407
2.83559
2.81631
2.79689
2.77672
2.75651
2.73568
2.7148
2.69353
2.67204
2.65044
2.62841
2.60657
2.58411
2.56207
2.53931
2.51711
2.49417
2.47186
2.44887
2.42653
2.40359
2.38132
2.35856
2.33652
2.31409
2.29249
2.2707
2.24985
2.22989
2.21068
4.01169
3.85124
3.70004
3.55702
3.42077
3.29167
3.17444
3.06802
2.97778
2.90418
2.87439
2.86865
2.88237
2.93094
3.05601
3.33348
3.57114
3.66554
3.66271
3.64629
3.60144
3.50563
3.4082
3.31966
3.23923
3.16416
3.09191
3.02195
2.95442
2.88962
2.82885
2.77137
2.71955
2.67165
2.62999
2.59351
2.56328
2.54014
2.5241
2.52053
2.5224
2.52629
2.53673
2.55688
2.5973
2.65275
2.71759
2.78336
2.84393
2.89352
2.93067
2.95606
2.97267
2.98262
2.98848
2.99101
2.9919
2.99242
2.9918
2.98945
2.98333
2.97507
2.96491
2.95317
2.94
2.92559
2.91019
2.89366
2.87658
2.85859
2.84034
2.82121
2.80196
2.78191
2.76176
2.741
2.72007
2.69886
2.67729
2.65576
2.63366
2.61187
2.58936
2.56733
2.54457
2.52235
2.49947
2.47714
2.45426
2.43194
2.40917
2.38697
2.36441
2.3425
2.32029
2.29886
2.27734
2.25672
2.23705
2.21814
4.07167
3.89966
3.74847
3.60633
3.47247
3.34637
3.23109
3.13098
3.04768
3.00397
2.99631
3.00666
3.05012
3.16724
3.4435
3.69551
3.81087
3.80927
3.79589
3.75963
3.67308
3.5795
3.49412
3.41748
3.34412
3.27301
3.20128
3.13091
3.06149
2.99436
2.93007
2.86891
2.81198
2.75871
2.71032
2.66629
2.6271
2.59367
2.56582
2.54535
2.535
2.53085
2.53292
2.53751
2.55011
2.57515
2.62065
2.67976
2.74613
2.81105
2.86762
2.91213
2.94373
2.96418
2.97595
2.98224
2.98394
2.98478
2.98485
2.98401
2.98054
2.97409
2.96552
2.95502
2.94281
2.929
2.91402
2.89782
2.88106
2.86325
2.84517
2.8261
2.80692
2.7869
2.76679
2.74609
2.72519
2.70403
2.6825
2.66102
2.639
2.61725
2.59486
2.57284
2.55017
2.5279
2.50507
2.48266
2.45982
2.43742
2.4147
2.39251
2.37007
2.34828
2.32629
2.30512
2.28393
2.26375
2.24451
2.22635
4.14213
3.95782
3.80084
3.65941
3.52763
3.40471
3.2955
3.20256
3.14517
3.13507
3.14204
3.1819
3.29203
3.56298
3.82177
3.95141
3.95312
3.94239
3.90818
3.82564
3.73627
3.65694
3.58455
3.51619
3.44668
3.37684
3.30538
3.23471
3.16398
3.09549
3.02876
2.96544
2.90484
2.84819
2.79462
2.74503
2.69912
2.65791
2.62113
2.58994
2.56533
2.54767
2.54203
2.53485
2.53857
2.54454
2.55931
2.58997
2.64206
2.70381
2.77008
2.83275
2.88546
2.92469
2.9511
2.96648
2.97419
2.97578
2.9763
2.97607
2.97416
2.9693
2.96219
2.95312
2.94214
2.92931
2.91509
2.8994
2.88299
2.86543
2.8476
2.82876
2.80984
2.79004
2.77016
2.74963
2.72887
2.70775
2.68624
2.6647
2.64264
2.62083
2.59842
2.5764
2.55379
2.53161
2.50891
2.48665
2.46396
2.44172
2.41917
2.39713
2.37489
2.3533
2.33161
2.3108
2.29009
2.27061
2.25199
2.2352
4.23222
4.02981
3.85922
3.71398
3.58396
3.46757
3.36759
3.29829
3.28516
3.2889
3.325
3.43112
3.69857
3.9616
4.09724
4.10243
4.09114
4.05578
3.97089
3.88392
3.80807
3.74163
3.67751
3.613
3.5458
3.47687
3.40626
3.33515
3.26423
3.19471
3.12668
3.06155
2.9981
2.93837
2.88019
2.82666
2.77522
2.72871
2.68507
2.64682
2.6125
2.58433
2.56165
2.54884
2.54114
2.53684
2.54045
2.54905
2.56679
2.60326
2.65891
2.72317
2.78993
2.84982
2.89823
2.93225
2.9528
2.96327
2.96546
2.96601
2.96519
2.96249
2.95654
2.94852
2.93878
2.92713
2.91405
2.89926
2.88363
2.86658
2.84919
2.8306
2.81188
2.79218
2.77238
2.75193
2.73126
2.71028
2.68889
2.6675
2.64551
2.62382
2.60143
2.57952
2.55691
2.53484
2.51217
2.49001
2.46744
2.44532
2.42301
2.40112
2.37924
2.35792
2.33672
2.31645
2.29647
2.27807
2.2604
2.2459
4.27303
4.11189
3.92954
3.7762
3.64935
3.541
3.46158
3.44545
3.44624
3.47959
3.58471
3.85587
4.121
4.25617
4.25837
4.24564
4.20714
4.11647
4.02861
3.95471
3.89043
3.83125
3.77101
3.7085
3.64254
3.57416
3.50387
3.43271
3.36194
3.29157
3.22316
3.15567
3.09086
3.02773
2.96758
2.9101
2.85534
2.80422
2.75559
2.71148
2.67025
2.63403
2.60235
2.57614
2.55718
2.54689
2.53706
2.53484
2.53888
2.54968
2.57145
2.61637
2.67354
2.73962
2.80532
2.86173
2.90457
2.93264
2.94783
2.95257
2.95285
2.95198
2.9487
2.94163
2.93273
2.92207
2.91011
2.89641
2.88166
2.86533
2.84839
2.83015
2.81161
2.79213
2.77247
2.75223
2.7317
2.71095
2.68968
2.66857
2.64673
2.6253
2.60306
2.5813
2.55888
2.53687
2.51446
2.49235
2.47011
2.4481
2.42617
2.40455
2.38319
2.36237
2.34197
2.3226
2.30385
2.28715
2.27107
2.26026
4.28334
4.19067
4.00526
3.84798
3.72406
3.63335
3.61374
3.61264
3.6461
3.75348
4.03473
4.30233
4.43586
4.43052
4.41242
4.36499
4.26545
4.17372
4.09847
4.03604
3.97912
3.9227
3.86368
3.80166
3.73635
3.66833
3.59879
3.5279
3.45738
3.3866
3.31745
3.24867
3.18254
3.11722
3.05527
2.99448
2.93736
2.88186
2.83046
2.78062
2.73533
2.6924
2.65409
2.61935
2.59033
2.5656
2.55072
2.5383
2.52882
2.53013
2.53507
2.54765
2.57294
2.62459
2.68464
2.75177
2.81436
2.86702
2.90407
2.92611
2.93589
2.93621
2.93524
2.93182
2.92448
2.9145
2.90322
2.89015
2.87635
2.86082
2.84471
2.82705
2.80902
2.78995
2.77059
2.7507
2.73036
2.70992
2.68882
2.66789
2.64624
2.62492
2.60294
2.5814
2.55928
2.53762
2.51553
2.49384
2.47197
2.45043
2.42899
2.40793
2.38721
2.3672
2.34777
2.32979
2.31274
2.29859
2.28556
2.27804
4.26388
4.21958
4.10533
3.94151
3.81853
3.79292
3.78836
3.82193
3.9358
4.24102
4.51418
4.63623
4.62856
4.59988
4.53041
4.42368
4.32529
4.2466
4.18329
4.12734
4.07326
4.01681
3.95766
3.89473
3.82952
3.76124
3.69216
3.62123
3.55075
3.47955
3.40962
3.3398
3.2723
3.20527
3.14163
3.07844
3.01945
2.96067
2.90656
2.85287
2.80408
2.75614
2.71314
2.67189
2.63584
2.60256
2.57542
2.55367
2.5392
2.52618
2.51783
2.5206
2.52802
2.54341
2.57509
2.62829
2.69127
2.75775
2.81767
2.86492
2.89558
2.91209
2.91457
2.91388
2.91105
2.90449
2.8939
2.88136
2.86808
2.85333
2.83791
2.82094
2.80354
2.78485
2.766
2.74626
2.72649
2.70615
2.68567
2.665
2.64389
2.623
2.60139
2.58024
2.55842
2.53705
2.51529
2.49392
2.4725
2.45142
2.43066
2.41032
2.39069
2.37191
2.35432
2.33849
2.32464
2.31459
2.30406
2.30089
4.25019
4.22994
4.17719
4.04649
3.98791
3.97735
4.01042
4.1343
4.46736
4.74984
4.85812
4.84827
4.80884
4.71312
4.59138
4.48492
4.4009
4.33311
4.27646
4.22196
4.16833
4.11045
4.05058
3.98653
3.92084
3.85244
3.78315
3.71266
3.64164
3.5709
3.49965
3.43033
3.36053
3.29389
3.22717
3.16379
3.10116
3.04155
2.98347
2.92822
2.87492
2.82452
2.77643
2.73135
2.68904
2.65035
2.61466
2.5843
2.55732
2.53943
2.52218
2.50965
2.50375
2.50666
2.5156
2.53418
2.57394
2.62845
2.69346
2.75793
2.81379
2.85436
2.87866
2.88785
2.88736
2.88507
2.87991
2.86842
2.85617
2.84185
2.82711
2.81091
2.79436
2.77673
2.75845
2.73975
2.72009
2.70076
2.68011
2.66031
2.63912
2.61891
2.59758
2.577
2.55573
2.53488
2.51382
2.49295
2.47239
2.45196
2.4323
2.41301
2.39499
2.37805
2.36302
2.35098
2.34143
2.33407
2.32969
2.33126
4.17624
4.24782
4.22752
4.19764
4.1836
4.22062
4.36423
4.73045
5.02392
5.11045
5.09372
5.03779
4.91058
4.77201
4.65535
4.56486
4.49414
4.43392
4.37848
4.32316
4.26615
4.20616
4.14367
4.07853
4.0118
3.94337
3.87384
3.80358
3.73221
3.66122
3.5894
3.51906
3.44845
3.38025
3.31214
3.24725
3.18238
3.1215
3.06033
3.00381
2.94671
2.89475
2.84213
2.7947
2.74725
2.70444
2.66292
2.62574
2.59099
2.5616
2.53659
2.51811
2.49993
2.48695
2.48557
2.48934
2.49894
2.51914
2.56583
2.62281
2.68791
2.7495
2.80004