/*--------------------------------*- C++ -*----------------------------------*\
  =========                 |
  \\      /  F ield         | OpenFOAM: The Open Source CFD Toolbox
   \\    /   O peration     | Website:  https://openfoam.org
    \\  /    A nd           | Version:  10
     \\/     M anipulation  |
\*---------------------------------------------------------------------------*/
FoamFile
{
    format      ascii;
    class       volVectorField;
    location    "7";
    object      U;
}
// * * * * * * * * * * * * * * * * * * * * * * * * * * * * * * * * * * * * * //

dimensions      [0 1 -1 0 0 0 0];

internalField   nonuniform List<vector> 
5250
(
(3 4.20992e-09 0)
(2.99999 8.67615e-08 0)
(2.99996 1.76915e-07 0)
(2.9999 8.38398e-07 0)
(2.99975 1.44589e-06 0)
(2.99938 5.95251e-06 0)
(2.99845 8.63848e-06 0)
(2.99621 3.82044e-05 0)
(2.99051 5.233e-05 0)
(2.97637 0.000224813 0)
(2.93914 0.000397403 0)
(2.83637 0.00127433 0)
(2.53632 0.00326927 0)
(1.68015 0.00960508 0)
(0.768802 0.0245171 0)
(0.50253 0.0236893 0)
(0.549634 0.0240037 0)
(0.556115 0.0257708 0)
(0.503555 0.0275992 0)
(0.416359 0.0295142 0)
(0.333232 0.0318352 0)
(0.264475 0.0345895 0)
(0.19564 0.0375074 0)
(0.117465 0.040903 0)
(0.0508718 0.0456373 0)
(3 1.56769e-08 0)
(2.99999 2.90406e-07 0)
(2.99996 5.0974e-07 0)
(2.9999 2.82537e-06 0)
(2.99975 3.7576e-06 0)
(2.99939 1.90307e-05 0)
(2.99848 2.28097e-05 0)
(2.99624 0.00011853 0)
(2.99066 0.000157014 0)
(2.97666 0.000673666 0)
(2.94001 0.00124181 0)
(2.8388 0.00390215 0)
(2.54306 0.0101516 0)
(1.69724 0.0297973 0)
(0.778554 0.0746251 0)
(0.499245 0.0682926 0)
(0.548638 0.0662357 0)
(0.556209 0.069138 0)
(0.503457 0.0721718 0)
(0.416318 0.075477 0)
(0.333235 0.079368 0)
(0.263974 0.083696 0)
(0.19417 0.0877571 0)
(0.114732 0.0917319 0)
(0.047712 0.09553 0)
(3 6.98482e-08 0)
(2.99999 3.68432e-07 0)
(2.99996 1.39001e-06 0)
(2.9999 3.56655e-06 0)
(2.99976 1.01011e-05 0)
(2.9994 2.32011e-05 0)
(2.99853 6.54474e-05 0)
(2.99632 0.000142058 0)
(2.99097 0.000408547 0)
(2.97728 0.000894368 0)
(2.94184 0.00248993 0)
(2.84381 0.00622804 0)
(2.55784 0.017663 0)
(1.73509 0.0508202 0)
(0.801525 0.129191 0)
(0.494865 0.115742 0)
(0.549643 0.11108 0)
(0.560045 0.116235 0)
(0.507448 0.121966 0)
(0.420851 0.128656 0)
(0.338105 0.136005 0)
(0.268393 0.143878 0)
(0.197525 0.151416 0)
(0.116566 0.158348 0)
(0.0475549 0.163269 0)
(3 1.01373e-07 0)
(2.99999 5.1064e-07 0)
(2.99996 1.99028e-06 0)
(2.99991 4.96683e-06 0)
(2.99977 1.50146e-05 0)
(2.99943 3.13353e-05 0)
(2.99857 9.95953e-05 0)
(2.99653 0.000186559 0)
(2.99129 0.000609745 0)
(2.97839 0.00120917 0)
(2.94447 0.00356053 0)
(2.85138 0.00866516 0)
(2.5806 0.0247594 0)
(1.79362 0.071081 0)
(0.837789 0.18386 0)
(0.489316 0.162588 0)
(0.553094 0.155037 0)
(0.568255 0.162539 0)
(0.516174 0.171165 0)
(0.430503 0.181667 0)
(0.348121 0.192854 0)
(0.277948 0.204802 0)
(0.205762 0.216601 0)
(0.122285 0.22731 0)
(0.0495735 0.233862 0)
(3 8.27481e-08 0)
(2.99999 7.66635e-07 0)
(2.99997 2.00938e-06 0)
(2.99991 7.53896e-06 0)
(2.99978 1.52991e-05 0)
(2.99947 4.96405e-05 0)
(2.99866 9.70926e-05 0)
(2.99674 0.000305045 0)
(2.99182 0.000611608 0)
(2.97973 0.00182484 0)
(2.94808 0.00407834 0)
(2.86138 0.01147 0)
(2.61051 0.0308899 0)
(1.87331 0.0900938 0)
(0.887404 0.237976 0)
(0.484152 0.209712 0)
(0.55983 0.19902 0)
(0.581292 0.208521 0)
(0.529957 0.219781 0)
(0.445504 0.234099 0)
(0.363433 0.24931 0)
(0.292704 0.265777 0)
(0.218878 0.282585 0)
(0.131827 0.298133 0)
(0.0535814 0.307333 0)
(3 1.28488e-07 0)
(2.99999 7.6051e-07 0)
(2.99997 2.79901e-06 0)
(2.99992 7.48507e-06 0)
(2.9998 2.07156e-05 0)
(2.9995 5.08893e-05 0)
(2.99879 0.000129269 0)
(2.99696 0.000321564 0)
(2.99256 0.000795655 0)
(2.98128 0.00199104 0)
(2.95252 0.00504297 0)
(2.87375 0.0131437 0)
(2.64657 0.0364747 0)
(1.97493 0.105433 0)
(0.95314 0.287572 0)
(0.484518 0.257023 0)
(0.572458 0.243543 0)
(0.600874 0.254404 0)
(0.550257 0.268049 0)
(0.467157 0.286565 0)
(0.385272 0.306496 0)
(0.313883 0.328494 0)
(0.238109 0.351799 0)
(0.146351 0.374292 0)
(0.0603159 0.388517 0)
(3 1.53063e-07 0)
(2.99999 7.69819e-07 0)
(2.99997 3.17987e-06 0)
(2.99993 7.55722e-06 0)
(2.99982 2.34678e-05 0)
(2.99956 5.13547e-05 0)
(2.99889 0.000148458 0)
(2.9973 0.000324975 0)
(2.99322 0.000911913 0)
(2.98327 0.00207645 0)
(2.95737 0.00562763 0)
(2.8877 0.0141528 0)
(2.68793 0.0398015 0)
(2.09381 0.115018 0)
(1.03867 0.326841 0)
(0.499932 0.306851 0)
(0.594838 0.29303 0)
(0.62922 0.302837 0)
(0.579374 0.317269 0)
(0.497861 0.339701 0)
(0.415829 0.36491 0)
(0.343659 0.39365 0)
(0.265853 0.425501 0)
(0.16853 0.458455 0)
(0.0715828 0.482698 0)
(3 1.14729e-07 0)
(2.99999 8.70483e-07 0)
(2.99997 2.61337e-06 0)
(2.99994 8.53994e-06 0)
(2.99984 1.9737e-05 0)
(2.9996 5.68128e-05 0)
(2.99902 0.000127061 0)
(2.99759 0.000350569 0)
(2.99402 0.000798663 0)
(2.98522 0.00214362 0)
(2.96258 0.00512381 0)
(2.90237 0.0137254 0)
(2.73139 0.0370341 0)
(2.22751 0.107275 0)
(1.15632 0.315066 0)
(0.55358 0.343622 0)
(0.636468 0.344403 0)
(0.67026 0.352949 0)
(0.620698 0.367909 0)
(0.540924 0.39418 0)
(0.458283 0.425307 0)
(0.385077 0.462066 0)
(0.305747 0.504837 0)
(0.203223 0.553419 0)
(0.091319 0.598434 0)
(3 1.05481e-07 0)
(2.99999 7.90908e-07 0)
(2.99998 2.35816e-06 0)
(2.99994 7.72237e-06 0)
(2.99986 1.78132e-05 0)
(2.99965 5.03336e-05 0)
(2.99913 0.000114874 0)
(2.99786 0.000304944 0)
(2.99471 0.0007141 0)
(2.98687 0.00183857 0)
(2.96704 0.00444516 0)
(2.91428 0.0116182 0)
(2.76635 0.0307939 0)
(2.33044 0.0874639 0)
(1.27572 0.259817 0)
(0.601681 0.375331 0)
(0.664539 0.404095 0)
(0.700325 0.403847 0)
(0.660512 0.420234 0)
(0.588937 0.449219 0)
(0.509923 0.487498 0)
(0.438617 0.533205 0)
(0.361406 0.589013 0)
(0.259437 0.662156 0)
(0.128044 0.75076 0)
(3 1.12077e-07 0)
(2.99999 6.56959e-07 0)
(2.99998 2.43721e-06 0)
(2.99995 6.38978e-06 0)
(2.99987 1.78324e-05 0)
(2.99968 4.27645e-05 0)
(2.99923 0.000109535 0)
(2.99809 0.000267874 0)
(2.9953 0.00065288 0)
(2.98832 0.0016565 0)
(2.97075 0.00400198 0)
(2.92423 0.0103413 0)
(2.79438 0.0272042 0)
(2.41271 0.0761842 0)
(1.41327 0.224865 0)
(0.674951 0.423198 0)
(0.676171 0.457754 0)
(0.706656 0.453551 0)
(0.690158 0.472051 0)
(0.634633 0.502292 0)
(0.566753 0.548196 0)
(0.502893 0.60307 0)
(0.437928 0.677221 0)
(0.353657 0.792306 0)
(0.198333 0.999083 0)
(3 1.06599e-07 0)
(2.99999 6.46777e-07 0)
(2.99998 2.28975e-06 0)
(2.99995 6.30487e-06 0)
(2.99989 1.69433e-05 0)
(2.99972 4.1385e-05 0)
(2.99932 0.000106463 0)
(2.99831 0.000253654 0)
(2.99587 0.000648978 0)
(2.98967 0.00155258 0)
(2.97425 0.00397355 0)
(2.93366 0.00985276 0)
(2.82067 0.026331 0)
(2.49163 0.0730247 0)
(1.5807 0.213979 0)
(0.777413 0.471741 0)
(0.683072 0.491394 0)
(0.7132 0.493504 0)
(0.714316 0.514972 0)
(0.677164 0.549122 0)
(0.626333 0.600327 0)
(0.579401 0.664935 0)
(0.546644 0.756156 0)
(0.543001 0.898645 0)
(0.57657 1.14094 0)
(3 1.00058e-07 0)
(2.99999 6.55856e-07 0)
(2.99998 2.18972e-06 0)
(2.99996 6.41624e-06 0)
(2.9999 1.64314e-05 0)
(2.99976 4.22837e-05 0)
(2.9994 0.000103753 0)
(2.99854 0.000260304 0)
(2.99638 0.000634969 0)
(2.99109 0.00158451 0)
(2.97766 0.0039238 0)
(2.94284 0.009953 0)
(2.84697 0.0260659 0)
(2.5679 0.0725974 0)
(1.76949 0.210548 0)
(0.902607 0.515508 0)
(0.692385 0.521402 0)
(0.724313 0.525282 0)
(0.740127 0.54722 0)
(0.719274 0.587012 0)
(0.687413 0.641314 0)
(0.663041 0.713294 0)
(0.664282 0.811744 0)
(0.718503 0.948688 0)
(0.84855 1.12846 0)
(3 1.06345e-07 0)
(3 6.13748e-07 0)
(2.99999 2.28992e-06 0)
(2.99997 6.02167e-06 0)
(2.99992 1.69211e-05 0)
(2.9998 4.08065e-05 0)
(2.9995 0.000105689 0)
(2.99875 0.000256535 0)
(2.99697 0.000641076 0)
(2.99241 0.00158811 0)
(2.98123 0.00394895 0)
(2.95211 0.00996169 0)
(2.87291 0.0261391 0)
(2.64524 0.0720735 0)
(1.97594 0.209078 0)
(1.0528 0.552857 0)
(0.715052 0.556501 0)
(0.745198 0.558991 0)
(0.771753 0.575056 0)
(0.764807 0.616706 0)
(0.749132 0.67319 0)
(0.746604 0.746017 0)
(0.772477 0.839286 0)
(0.849255 0.952161 0)
(0.995484 1.06267 0)
(3 1.00584e-07 0)
(3 5.90032e-07 0)
(2.99999 2.11584e-06 0)
(2.99997 5.79372e-06 0)
(2.99993 1.56963e-05 0)
(2.99983 3.84984e-05 0)
(2.99958 0.000100642 0)
(2.99899 0.000236561 0)
(2.99749 0.000626539 0)
(2.99385 0.00145365 0)
(2.98463 0.00385752 0)
(2.96137 0.00929358 0)
(2.89871 0.0248202 0)
(2.72139 0.0673091 0)
(2.19805 0.195292 0)
(1.24075 0.551615 0)
(0.776606 0.592724 0)
(0.78591 0.600883 0)
(0.813535 0.606558 0)
(0.818139 0.642738 0)
(0.812762 0.697376 0)
(0.823616 0.765116 0)
(0.863374 0.845115 0)
(0.94498 0.932635 0)
(1.08282 1.00411 0)
(3 7.81596e-08 0)
(3 5.39953e-07 0)
(2.99999 1.7208e-06 0)
(2.99998 5.25375e-06 0)
(2.99994 1.28782e-05 0)
(2.99987 3.44207e-05 0)
(2.99967 8.17995e-05 0)
(2.99919 0.000211198 0)
(2.99798 0.000505536 0)
(2.9951 0.00127857 0)
(2.98777 0.00312937 0)
(2.96957 0.00787149 0)
(2.92142 0.0200774 0)
(2.78783 0.0540703 0)
(2.40038 0.153654 0)
(1.46768 0.45674 0)
(0.878049 0.613513 0)
(0.841716 0.639679 0)
(0.860533 0.646748 0)
(0.875626 0.670938 0)
(0.87738 0.717099 0)
(0.89408 0.775783 0)
(0.938851 0.841614 0)
(1.01828 0.908759 0)
(1.14205 0.960023 0)
(3 6.39632e-08 0)
(3 4.47347e-07 0)
(2.99999 1.43245e-06 0)
(2.99998 4.33744e-06 0)
(2.99996 1.06645e-05 0)
(2.99989 2.84438e-05 0)
(2.99973 6.68302e-05 0)
(2.99934 0.000174254 0)
(2.99838 0.000405911 0)
(2.99604 0.00104841 0)
(2.99013 0.00247377 0)
(2.97548 0.00632635 0)
(2.93718 0.0155926 0)
(2.83159 0.04134 0)
(2.52735 0.113838 0)
(1.69682 0.338468 0)
(0.987039 0.645381 0)
(0.879694 0.67669 0)
(0.895602 0.689259 0)
(0.920747 0.700943 0)
(0.93484 0.735376 0)
(0.956708 0.783383 0)
(1.0024 0.836477 0)
(1.07704 0.888182 0)
(1.18616 0.9269 0)
(3 5.77095e-08 0)
(3 3.68972e-07 0)
(2.99999 1.26476e-06 0)
(2.99999 3.61531e-06 0)
(2.99996 9.37928e-06 0)
(2.99991 2.40142e-05 0)
(2.99979 5.87507e-05 0)
(2.99947 0.000147637 0)
(2.99871 0.000357183 0)
(2.99683 0.000900152 0)
(2.99216 0.00217139 0)
(2.9805 0.00549955 0)
(2.95049 0.0136117 0)
(2.86865 0.0357786 0)
(2.63454 0.0979111 0)
(1.95782 0.285593 0)
(1.14777 0.679277 0)
(0.913216 0.709604 0)
(0.922537 0.72293 0)
(0.954011 0.726707 0)
(0.982508 0.749951 0)
(1.01088 0.788781 0)
(1.05642 0.831851 0)
(1.12555 0.872135 0)
(1.2214 0.901792 0)
(3 5.2808e-08 0)
(3 3.05198e-07 0)
(3 1.12621e-06 0)
(2.99999 2.98733e-06 0)
(2.99997 8.33875e-06 0)
(2.99993 1.99335e-05 0)
(2.99984 5.23892e-05 0)
(2.99959 0.000123708 0)
(2.999 0.000319299 0)
(2.99755 0.000762488 0)
(2.99396 0.00193894 0)
(2.98502 0.00472952 0)
(2.96237 0.0120351 0)
(2.90168 0.0308996 0)
(2.73121 0.0845617 0)
(2.22901 0.243789 0)
(1.36378 0.660863 0)
(0.980841 0.733536 0)
(0.963055 0.746425 0)
(0.987602 0.749512 0)
(1.02549 0.76298 0)
(1.06011 0.793136 0)
(1.10426 0.827983 0)
(1.16723 0.859796 0)
(1.25139 0.88273 0)
(3 4.16754e-08 0)
(3 2.51532e-07 0)
(3 9.00414e-07 0)
(2.99999 2.45134e-06 0)
(2.99998 6.67322e-06 0)
(2.99995 1.6339e-05 0)
(2.99987 4.16237e-05 0)
(2.9997 0.000101474 0)
(2.99925 0.000250653 0)
(2.99818 0.000620815 0)
(2.99547 0.00151251 0)
(2.98892 0.0038038 0)
(2.97226 0.00935351 0)
(2.92918 0.0240409 0)
(2.81063 0.0639397 0)
(2.4686 0.18135 0)
(1.6372 0.532133 0)
(1.09278 0.739628 0)
(1.01937 0.765382 0)
(1.03067 0.775892 0)
(1.06812 0.781067 0)
(1.10636 0.800472 0)
(1.14834 0.826669 0)
(1.20489 0.851299 0)
(1.27868 0.868891 0)
(3 3.13868e-08 0)
(3 2.03522e-07 0)
(3 6.87851e-07 0)
(2.99999 1.98207e-06 0)
(2.99998 5.09378e-06 0)
(2.99996 1.30652e-05 0)
(2.99991 3.17481e-05 0)
(2.99977 7.99104e-05 0)
(2.99944 0.000191214 0)
(2.9986 0.000481458 0)
(2.99661 0.00114871 0)
(2.99156 0.00289945 0)
(2.97921 0.00700432 0)
(2.94707 0.0178016 0)
(2.86007 0.0459363 0)
(2.61217 0.126162 0)
(1.91937 0.37381 0)
(1.23069 0.747486 0)
(1.06412 0.788153 0)
(1.06567 0.804582 0)
(1.10088 0.804186 0)
(1.14493 0.810181 0)
(1.1875 0.827809 0)
(1.23916 0.846415 0)
(1.30428 0.859677 0)
(3 2.61171e-08 0)
(3 1.59117e-07 0)
(3 5.60026e-07 0)
(3 1.55251e-06 0)
(2.99999 4.1384e-06 0)
(2.99997 1.02364e-05 0)
(2.99993 2.60515e-05 0)
(2.99983 6.25137e-05 0)
(2.99958 0.000158592 0)
(2.99897 0.000377658 0)
(2.99748 0.000957757 0)
(2.9938 0.00229643 0)
(2.98467 0.00581272 0)
(2.96148 0.0143215 0)
(2.89953 0.0372343 0)
(2.72593 0.100605 0)
(2.21648 0.292151 0)
(1.43622 0.733399 0)
(1.12634 0.812541 0)
(1.10511 0.826288 0)
(1.12849 0.825962 0)
(1.17536 0.822453 0)
(1.22258 0.831793 0)
(1.27115 0.844774 0)
(1.32894 0.854315 0)
(3 1.92939e-08 0)
(3 1.24176e-07 0)
(3 4.19827e-07 0)
(3 1.21085e-06 0)
(2.99999 3.11322e-06 0)
(2.99998 7.98211e-06 0)
(2.99995 1.96047e-05 0)
(2.99988 4.87161e-05 0)
(2.9997 0.00011929 0)
(2.99927 0.000292995 0)
(2.99821 0.000723518 0)
(2.9956 0.00176564 0)
(2.98923 0.00439999 0)
(2.97321 0.0108663 0)
(2.93173 0.0277327 0)
(2.81911 0.0736687 0)
(2.49316 0.209202 0)
(1.7264 0.59563 0)
(1.24017 0.811326 0)
(1.16023 0.837282 0)
(1.16656 0.845612 0)
(1.20715 0.839561 0)
(1.25571 0.839757 0)
(1.30186 0.846498 0)
(1.35348 0.852392 0)
(3 1.44622e-08 0)
(3 9.22779e-08 0)
(3 3.13481e-07 0)
(3 8.9836e-07 0)
(2.99999 2.31459e-06 0)
(2.99999 5.89703e-06 0)
(2.99996 1.44662e-05 0)
(2.99991 3.58574e-05 0)
(2.99978 8.75273e-05 0)
(2.99948 0.000214026 0)
(2.99871 0.000525689 0)
(2.99686 0.00127736 0)
(2.99225 0.00315633 0)
(2.98088 0.00774095 0)
(2.95169 0.0193527 0)
(2.87356 0.0500324 0)
(2.65203 0.136494 0)
(2.03432 0.402199 0)
(1.38798 0.800889 0)
(1.20889 0.854296 0)
(1.20134 0.867238 0)
(1.23284 0.861752 0)
(1.28285 0.852456 0)
(1.32996 0.851706 0)
(1.37762 0.853457 0)
(3 1.062e-08 0)
(3 6.87783e-08 0)
(3 2.31557e-07 0)
(3 6.69028e-07 0)
(3 1.71365e-06 0)
(2.99999 4.39403e-06 0)
(2.99997 1.06981e-05 0)
(2.99994 2.68311e-05 0)
(2.99985 6.46821e-05 0)
(2.99963 0.000161233 0)
(2.9991 0.000388046 0)
(2.99779 0.000967565 0)
(2.99462 0.00234409 0)
(2.98667 0.0058482 0)
(2.96685 0.0144473 0)
(2.91471 0.0370532 0)
(2.7705 0.0992923 0)
(2.35123 0.286098 0)
(1.62611 0.726633 0)
(1.28949 0.860265 0)
(1.24568 0.880704 0)
(1.26096 0.882655 0)
(1.30569 0.869582 0)
(1.35489 0.861436 0)
(1.40108 0.858211 0)
(3 7.88226e-09 0)
(3 4.98063e-08 0)
(3 1.69658e-07 0)
(3 4.84788e-07 0)
(3 1.24992e-06 0)
(2.99999 3.1749e-06 0)
(2.99998 7.81019e-06 0)
(2.99996 1.92786e-05 0)
(2.9999 4.72435e-05 0)
(2.99975 0.000115153 0)
(2.99938 0.000282976 0)
(2.99849 0.000687102 0)
(2.99632 0.00169993 0)
(2.99095 0.00412794 0)
(2.97768 0.0103165 0)
(2.94365 0.0257355 0)
(2.85199 0.0677163 0)
(2.5913 0.188216 0)
(1.93126 0.539666 0)
(1.41615 0.843691 0)
(1.29854 0.887775 0)
(1.29517 0.899907 0)
(1.32838 0.889644 0)
(1.37709 0.874288 0)
(1.42313 0.866438 0)
(3 5.50255e-09 0)
(3 3.59407e-08 0)
(3 1.19512e-07 0)
(3 3.49708e-07 0)
(3 8.82478e-07 0)
(3 2.28852e-06 0)
(2.99999 5.52272e-06 0)
(2.99997 1.38272e-05 0)
(2.99993 3.34145e-05 0)
(2.99983 8.21125e-05 0)
(2.99958 0.000200919 0)
(2.99897 0.000486449 0)
(2.99748 0.00120553 0)
(2.99385 0.00290377 0)
(2.98484 0.00727074 0)
(2.96219 0.0178138 0)
(2.90221 0.0460124 0)
(2.73612 0.12329 0)
(2.25803 0.359382 0)
(1.61009 0.79897 0)
(1.36157 0.896986 0)
(1.33221 0.913666 0)
(1.34927 0.910213 0)
(1.39425 0.891893 0)
(1.44303 0.878207 0)
(3 3.81299e-09 0)
(3 2.535e-08 0)
(3 8.36723e-08 0)
(3 2.46332e-07 0)
(3 6.18583e-07 0)
(3 1.61025e-06 0)
(2.99999 3.85835e-06 0)
(2.99998 9.73795e-06 0)
(2.99995 2.32756e-05 0)
(2.99989 5.78448e-05 0)
(2.99972 0.000139678 0)
(2.99933 0.00034235 0)
(2.99834 0.000837666 0)
(2.996 0.0020365 0)
(2.9901 0.00504763 0)
(2.97578 0.0123636 0)
(2.93866 0.0313586 0)
(2.8395 0.0822631 0)
(2.55424 0.232678 0)
(1.90323 0.630682 0)
(1.47607 0.877134 0)
(1.38537 0.915441 0)
(1.38174 0.924785 0)
(1.41374 0.911643 0)
(1.4609 0.8905 0)
(3 2.6471e-09 0)
(3 1.71924e-08 0)
(3 5.82278e-08 0)
(3 1.66536e-07 0)
(3 4.29399e-07 0)
(3 1.09079e-06 0)
(2.99999 2.65346e-06 0)
(2.99999 6.64136e-06 0)
(2.99997 1.57836e-05 0)
(2.99992 3.97226e-05 0)
(2.99981 9.33668e-05 0)
(2.99955 0.000235844 0)
(2.9989 0.000553725 0)
(2.99735 0.00139782 0)
(2.99345 0.00330726 0)
(2.98406 0.00834011 0)
(2.96002 0.0202965 0)
(2.89709 0.05247 0)
(2.72193 0.140803 0)
(2.23079 0.407166 0)
(1.64655 0.833539 0)
(1.44203 0.919906 0)
(1.41627 0.935069 0)
(1.43134 0.929833 0)
(1.47342 0.907082 0)
(3 1.86215e-09 0)
(3 1.13926e-08 0)
(3 4.03183e-08 0)
(3 1.10623e-07 0)
(3 2.9619e-07 0)
(3 7.2888e-07 0)
(3 1.82177e-06 0)
(2.99999 4.44006e-06 0)
(2.99998 1.07979e-05 0)
(2.99995 2.66204e-05 0)
(2.99988 6.35469e-05 0)
(2.99971 0.000158828 0)
(2.9993 0.000374162 0)
(2.9983 0.000945946 0)
(2.99588 0.00222103 0)
(2.98991 0.00563899 0)
(2.97524 0.0135036 0)
(2.93758 0.0346493 0)
(2.83733 0.0901246 0)
(2.54821 0.256426 0)
(1.92845 0.666709 0)
(1.54725 0.892144 0)
(1.46671 0.931086 0)
(1.46115 0.939704 0)
(1.48932 0.92582 0)
(3 1.26002e-09 0)
(3 7.51443e-09 0)
(3 2.68354e-08 0)
(3 7.29703e-08 0)
(3 1.96432e-07 0)
(3 4.7627e-07 0)
(3 1.21671e-06 0)
(2.99999 2.87058e-06 0)
(2.99999 7.25288e-06 0)
(2.99997 1.70144e-05 0)
(2.99992 4.27319e-05 0)
(2.99981 0.000100802 0)
(2.99955 0.000250788 0)
(2.99889 0.000596709 0)
(2.99736 0.00147387 0)
(2.99346 0.00355311 0)
(2.98412 0.00874903 0)
(2.96027 0.0215747 0)
(2.89808 0.0550487 0)
(2.72539 0.147985 0)
(2.24933 0.422018 0)
(1.70654 0.838961 0)
(1.52048 0.928322 0)
(1.49374 0.945398 0)
(1.50524 0.942116 0)
(3 7.83075e-10 0)
(3 5.11564e-09 0)
(3 1.69941e-08 0)
(3 4.96213e-08 0)
(3 1.2497e-07 0)
(3 3.22353e-07 0)
(3 7.76739e-07 0)
(3 1.93301e-06 0)
(2.99999 4.65601e-06 0)
(2.99998 1.13756e-05 0)
(2.99995 2.7671e-05 0)
(2.99988 6.66295e-05 0)
(2.99972 0.000164431 0)
(2.99932 0.000390189 0)
(2.99835 0.000975777 0)
(2.99597 0.00230367 0)
(2.99023 0.00580537 0)
(2.97594 0.0139253 0)
(2.9397 0.0355455 0)
(2.84349 0.0921743 0)
(2.56669 0.261076 0)
(1.9828 0.668623 0)
(1.62153 0.896872 0)
(1.54174 0.939949 0)
(1.53354 0.949513 0)
(3 5.07635e-10 0)
(3 3.2785e-09 0)
(3 1.10542e-08 0)
(3 3.17658e-08 0)
(3 8.11673e-08 0)
(3 2.06914e-07 0)
(3 5.00468e-07 0)
(3 1.24179e-06 0)
(2.99999 2.97357e-06 0)
(2.99999 7.31346e-06 0)
(2.99997 1.75403e-05 0)
(2.99993 4.28268e-05 0)
(2.99982 0.00010333 0)
(2.99957 0.000250385 0)
(2.99895 0.000608447 0)
(2.99748 0.0014666 0)
(2.9938 0.0035935 0)
(2.98496 0.00870508 0)
(2.96255 0.0216054 0)
(2.90439 0.0546817 0)
(2.74412 0.146413 0)
(2.30351 0.414331 0)
(1.78513 0.827457 0)
(1.596 0.930982 0)
(1.56489 0.951466 0)
(3 3.37723e-10 0)
(3 2.07284e-09 0)
(3 7.26276e-09 0)
(3 2.00768e-08 0)
(3 5.31212e-08 0)
(3 1.3079e-07 0)
(3 3.26627e-07 0)
(3 7.86718e-07 0)
(3 1.9339e-06 0)
(2.99999 4.64617e-06 0)
(2.99998 1.13416e-05 0)
(2.99995 2.73853e-05 0)
(2.99989 6.63361e-05 0)
(2.99974 0.00016118 0)
(2.99936 0.000388159 0)
(2.99846 0.000951084 0)
(2.99626 0.00228149 0)
(2.99092 0.00563463 0)
(2.97776 0.0137096 0)
(2.94453 0.0343768 0)
(2.85658 0.0893768 0)
(2.60608 0.249716 0)
(2.06276 0.643174 0)
(1.70064 0.896331 0)
(1.61212 0.946856 0)
(3 2.06375e-10 0)
(3 1.3301e-09 0)
(3 4.49999e-09 0)
(3 1.28489e-08 0)
(3 3.29772e-08 0)
(3 8.34208e-08 0)
(3 2.0259e-07 0)
(3 5.00678e-07 0)
(3 1.19814e-06 0)
(3 2.94539e-06 0)
(2.99999 7.01687e-06 0)
(2.99997 1.72394e-05 0)
(2.99993 4.10945e-05 0)
(2.99984 0.000100651 0)
(2.99961 0.000240237 0)
(2.99906 0.00058779 0)
(2.9977 0.00140954 0)
(2.99448 0.00344301 0)
(2.98643 0.00833119 0)
(2.96668 0.020589 0)
(2.91547 0.0516692 0)
(2.77568 0.137671 0)
(2.39092 0.386934 0)
(1.88433 0.799449 0)
(1.67163 0.929337 0)
(3 1.3321e-10 0)
(3 8.17888e-10 0)
(3 2.86089e-09 0)
(3 7.91366e-09 0)
(3 2.09263e-08 0)
(3 5.14321e-08 0)
(3 1.285e-07 0)
(3 3.07886e-07 0)
(3 7.58048e-07 0)
(3 1.81428e-06 0)
(2.99999 4.43152e-06 0)
(2.99998 1.06347e-05 0)
(2.99996 2.58363e-05 0)
(2.9999 6.24164e-05 0)
(2.99977 0.000150614 0)
(2.99943 0.000365546 0)
(2.99864 0.000879803 0)
(2.99668 0.00215189 0)
(2.99202 0.0051793 0)
(2.98042 0.0127893 0)
(2.95149 0.0315869 0)
(2.87569 0.0814733 0)
(2.6612 0.224788 0)
(2.16962 0.587867 0)
(1.78694 0.888213 0)
(3 7.92715e-11 0)
(3 5.11348e-10 0)
(3 1.72679e-09 0)
(3 4.94337e-09 0)
(3 1.26311e-08 0)
(3 3.20632e-08 0)
(3 7.73879e-08 0)
(3 1.91545e-07 0)
(3 4.56012e-07 0)
(3 1.12301e-06 0)
(3 2.66723e-06 0)
(2.99999 6.5446e-06 0)
(2.99998 1.55648e-05 0)
(2.99994 3.80756e-05 0)
(2.99986 9.09373e-05 0)
(2.99966 0.000221084 0)
(2.99919 0.000531393 0)
(2.99806 0.00128562 0)
(2.99529 0.00311836 0)
(2.98863 0.00755118 0)
(2.97207 0.0185353 0)
(2.93009 0.046441 0)
(2.8179 0.121726 0)
(2.50382 0.342174 0)
(2.0052 0.747904 0)
(3 4.95613e-11 0)
(3 3.04397e-10 0)
(3 1.06177e-09 0)
(3 2.94386e-09 0)
(3 7.73741e-09 0)
(3 1.90458e-08 0)
(3 4.74761e-08 0)
(3 1.13383e-07 0)
(3 2.79799e-07 0)
(3 6.61576e-07 0)
(3 1.63091e-06 0)
(2.99999 3.85448e-06 0)
(2.99999 9.47012e-06 0)
(2.99997 2.24052e-05 0)
(2.99992 5.48981e-05 0)
(2.9998 0.000130592 0)
(2.99953 0.000317649 0)
(2.99884 0.000760613 0)
(2.99724 0.00184339 0)
(2.99325 0.00445449 0)
(2.98371 0.0108395 0)
(2.95958 0.0266467 0)
(2.89768 0.0677236 0)
(2.7257 0.182746 0)
(2.29891 0.489769 0)
(3 2.81748e-11 0)
(3 1.83828e-10 0)
(3 6.12777e-10 0)
(3 1.77428e-09 0)
(3 4.48578e-09 0)
(3 1.14334e-08 0)
(3 2.74474e-08 0)
(3 6.78107e-08 0)
(3 1.61515e-07 0)
(3 3.94029e-07 0)
(3 9.42184e-07 0)
(3 2.2747e-06 0)
(2.99999 5.49067e-06 0)
(2.99998 1.3115e-05 0)
(2.99995 3.19296e-05 0)
(2.99988 7.56574e-05 0)
(2.99972 0.000185583 0)
(2.99933 0.00043732 0)
(2.99837 0.00107743 0)
(2.99612 0.00254509 0)
(2.99051 0.00629626 0)
(2.97708 0.0151104 0)
(2.94297 0.0380363 0)
(2.85384 0.0979326 0)
(2.60529 0.273151 0)
(3 1.68788e-11 0)
(3 1.01516e-10 0)
(3 3.61178e-10 0)
(3 9.78958e-10 0)
(3 2.61738e-09 0)
(3 6.32714e-09 0)
(3 1.58363e-08 0)
(3 3.75177e-08 0)
(3 9.17914e-08 0)
(3 2.18451e-07 0)
(3 5.25325e-07 0)
(3 1.2622e-06 0)
(2.99999 2.99308e-06 0)
(2.99999 7.28649e-06 0)
(2.99997 1.69916e-05 0)
(2.99993 4.18306e-05 0)
(2.99983 9.65296e-05 0)
(2.99958 0.000239109 0)
(2.999 0.000547809 0)
(2.99759 0.00136047 0)
(2.99416 0.0031267 0)
(2.98591 0.00775673 0)
(2.96536 0.0182713 0)
(2.91307 0.0461808 0)
(2.7731 0.120639 0)
(3 9.01111e-12 0)
(3 5.57118e-11 0)
(3 1.92374e-10 0)
(3 5.35346e-10 0)
(3 1.38735e-09 0)
(3 3.42018e-09 0)
(3 8.36331e-09 0)
(3 1.99483e-08 0)
(3 4.82509e-08 0)
(3 1.13503e-07 0)
(3 2.73461e-07 0)
(3 6.4135e-07 0)
(3 1.53751e-06 0)
(2.99999 3.59741e-06 0)
(2.99998 8.58258e-06 0)
(2.99995 2.00834e-05 0)
(2.99988 4.74552e-05 0)
(2.99971 0.000111277 0)
(2.9993 0.000259598 0)
(2.99827 0.000610795 0)
(2.99583 0.0014059 0)
(2.98966 0.00332154 0)
(2.9746 0.00765107 0)
(2.93542 0.0182932 0)
(2.83029 0.0442502 0)
(3 4.46284e-12 0)
(3 2.88664e-11 0)
(3 9.57326e-11 0)
(3 2.75349e-10 0)
(3 6.8927e-10 0)
(3 1.72501e-09 0)
(3 4.10294e-09 0)
(3 9.84318e-09 0)
(3 2.32392e-08 0)
(3 5.45432e-08 0)
(3 1.29028e-07 0)
(3 2.97365e-07 0)
(3 7.08531e-07 0)
(2.99999 1.59854e-06 0)
(2.99998 3.8481e-06 0)
(2.99996 8.49649e-06 0)
(2.9999 2.05038e-05 0)
(2.99976 4.46565e-05 0)
(2.99941 0.000106958 0)
(2.99855 0.000231322 0)
(2.99642 0.000540964 0)
(2.9911 0.00118273 0)
(2.97772 0.00270572 0)
(2.94263 0.0059805 0)
(2.84591 0.0136193 0)
(3 2.20918e-12 0)
(3 1.39514e-11 0)
(3 4.65911e-11 0)
(3 1.32431e-10 0)
(3 3.33289e-10 0)
(3 8.10429e-10 0)
(3 1.98969e-09 0)
(3 4.45803e-09 0)
(3 1.12287e-08 0)
(3 2.36016e-08 0)
(3 6.16765e-08 0)
(3 1.23467e-07 0)
(3 3.29156e-07 0)
(2.99999 6.43513e-07 0)
(2.99999 1.69722e-06 0)
(2.99996 3.3209e-06 0)
(2.99991 8.48171e-06 0)
(2.99978 1.70356e-05 0)
(2.99945 4.06172e-05 0)
(2.99863 8.5888e-05 0)
(2.99662 0.000188154 0)
(2.99146 0.000422901 0)
(2.97855 0.000859933 0)
(2.94428 0.00192601 0)
(2.8484 0.00402281 0)
(3 1.00109e-12 0)
(3 6.35849e-12 0)
(3 2.23482e-11 0)
(3 6.06537e-11 0)
(3 1.55966e-10 0)
(3 3.86055e-10 0)
(3 8.77032e-10 0)
(3 2.19657e-09 0)
(3 4.64608e-09 0)
(3 1.20166e-08 0)
(3 2.40256e-08 0)
(3 6.42371e-08 0)
(3 1.22214e-07 0)
(2.99999 3.38991e-07 0)
(2.99999 6.08225e-07 0)
(2.99997 1.73868e-06 0)
(2.99991 3.0503e-06 0)
(2.99979 8.6439e-06 0)
(2.99947 1.51288e-05 0)
(2.99867 4.13871e-05 0)
(2.9967 7.85668e-05 0)
(2.99166 0.000191502 0)
(2.97895 0.00040237 0)
(2.94524 0.000930148 0)
(2.85045 0.00203464 0)
(3 4.18265e-13 0)
(3 3.56288e-12 0)
(3 9.85784e-12 0)
(3 3.35351e-11 0)
(3 6.98567e-11 0)
(3 2.08312e-10 0)
(3 3.97369e-10 0)
(3 1.164e-09 0)
(3 2.18803e-09 0)
(3 6.11498e-09 0)
(3 1.23938e-08 0)
(3 3.06583e-08 0)
(3 6.99632e-08 0)
(2.99999 1.52511e-07 0)
(2.99999 3.99005e-07 0)
(2.99997 7.49598e-07 0)
(2.99992 2.28307e-06 0)
(2.99979 3.54719e-06 0)
(2.99948 1.32633e-05 0)
(2.99868 1.66058e-05 0)
(2.99675 7.33406e-05 0)
(2.99173 8.22506e-05 0)
(2.97917 0.000370288 0)
(2.94558 0.000554962 0)
(2.85142 0.00175604 0)
(3 3.13169e-13 0)
(3 1.90647e-12 0)
(3 6.25715e-12 0)
(3 1.81915e-11 0)
(3 4.77128e-11 0)
(3 1.11303e-10 0)
(3 3.06372e-10 0)
(3 6.25906e-10 0)
(3 1.88416e-09 0)
(3 3.4276e-09 0)
(3 1.12611e-08 0)
(3 1.91517e-08 0)
(3 6.71403e-08 0)
(2.99999 1.05856e-07 0)
(2.99999 3.95571e-07 0)
(2.99997 6.17609e-07 0)
(2.99992 2.25703e-06 0)
(2.9998 3.7037e-06 0)
(2.99948 1.26584e-05 0)
(2.99872 2.32048e-05 0)
(2.99676 6.72408e-05 0)
(2.99191 0.000144238 0)
(2.97934 0.000368411 0)
(2.94637 0.000858415 0)
(2.85318 0.00223929 0)
(3 1.78575e-13 0)
(3 1.02674e-12 0)
(3 4.4363e-12 0)
(3 1.07242e-11 0)
(3 3.1811e-11 0)
(3 8.42788e-11 0)
(3 1.77509e-10 0)
(3 6.08951e-10 0)
(3 9.3651e-10 0)
(3 4.21877e-09 0)
(3 5.04155e-09 0)
(3 2.78166e-08 0)
(3 2.93309e-08 0)
(2.99999 1.71356e-07 0)
(2.99999 1.88742e-07 0)
(2.99997 1.02157e-06 0)
(2.99992 1.25217e-06 0)
(2.9998 5.70263e-06 0)
(2.9995 8.76992e-06 0)
(2.99873 3.0888e-05 0)
(2.99685 5.88891e-05 0)
(2.99198 0.000172295 0)
(2.97976 0.000375985 0)
(2.94715 0.00100984 0)
(2.85546 0.0024094 0)
(3 1.1785e-13 0)
(3 9.74998e-13 0)
(3 2.68528e-12 0)
(3 9.81876e-12 0)
(3 2.11633e-11 0)
(3 6.49111e-11 0)
(3 1.51506e-10 0)
(3 4.12396e-10 0)
(3 1.04459e-09 0)
(3 2.57637e-09 0)
(3 7.14468e-09 0)
(3 1.62202e-08 0)
(3 4.70032e-08 0)
(2.99999 1.02342e-07 0)
(2.99999 3.07184e-07 0)
(2.99997 6.25923e-07 0)
(2.99992 1.93491e-06 0)
(2.9998 3.89129e-06 0)
(2.9995 1.15963e-05 0)
(2.99876 2.34807e-05 0)
(2.99687 7.02942e-05 0)
(2.99217 0.000141842 0)
(2.98005 0.000406884 0)
(2.948 0.00089622 0)
(2.858 0.00241228 0)
(3 1.56756e-13 0)
(3 7.67988e-13 0)
(3 2.4504e-12 0)
(3 7.50605e-12 0)
(3 2.05901e-11 0)
(3 4.27893e-11 0)
(3 1.70532e-10 0)
(3 2.28168e-10 0)
(3 1.25953e-09 0)
(3 1.29576e-09 0)
(3 8.71976e-09 0)
(3 7.79936e-09 0)
(3 5.77526e-08 0)
(3 5.26322e-08 0)
(2.99999 3.59185e-07 0)
(2.99997 3.64061e-07 0)
(2.99992 2.12821e-06 0)
(2.99981 2.75509e-06 0)
(2.99951 1.1346e-05 0)
(2.99878 1.97947e-05 0)
(2.99695 5.96052e-05 0)
(2.99226 0.000126395 0)
(2.98038 0.000328234 0)
(2.94881 0.000755836 0)
(2.85985 0.00197631 0)
(3 -3.13415e-14 0)
(3 7.88865e-13 0)
(3 5.05954e-13 0)
(3 8.0425e-12 0)
(3 2.81123e-12 0)
(3 6.25699e-11 0)
(3 2.8562e-12 0)
(3 4.42919e-10 0)
(3 1.90025e-11 0)
(3 2.88979e-09 0)
(3 6.79807e-10 0)
(3 1.74523e-08 0)
(3 9.68305e-09 0)
(3 9.96937e-08 0)
(2.99999 9.6612e-08 0)
(2.99997 5.29433e-07 0)
(2.99992 8.67777e-07 0)
(2.99981 2.55572e-06 0)
(2.99952 7.24034e-06 0)
(2.9988 1.12339e-05 0)
(2.99696 5.1726e-05 0)
(2.9924 5.062e-05 0)
(2.98056 0.000283257 0)
(2.94939 0.000403042 0)
(2.86137 0.00135041 0)
(3 -1.88449e-14 0)
(3 1.37758e-13 0)
(3 4.43773e-13 0)
(3 1.52572e-12 0)
(3 1.83088e-12 0)
(3 1.9346e-11 0)
(3 -1.35353e-11 0)
(3 1.87163e-10 0)
(3 -1.773e-10 0)
(3 1.43904e-09 0)
(3 -1.38634e-09 0)
(3 1.01418e-08 0)
(3 -8.70343e-09 0)
(3 6.27357e-08 0)
(2.99999 -4.36002e-08 0)
(2.99997 3.4682e-07 0)
(2.99992 -1.21573e-07 0)
(2.99981 1.70979e-06 0)
(2.99952 5.92347e-07 0)
(2.99881 7.516e-06 0)
(2.99698 1.12281e-05 0)
(2.99245 2.90271e-05 0)
(2.98068 7.73764e-05 0)
(2.94964 0.000160779 0)
(2.86228 0.000416754 0)
(1.16647 1.02064 0)
(1.15356 0.725767 0)
(0.476957 0.492427 0)
(-0.460684 0.12208 0)
(-0.403829 -0.014427 0)
(-0.628051 -0.0178239 0)
(-0.700438 -0.021982 0)
(-0.740957 -0.00216034 0)
(-0.789449 0.0174477 0)
(-0.852554 0.0208815 0)
(-0.913132 0.0170947 0)
(-0.965926 0.0111977 0)
(-1.01591 0.00793618 0)
(-1.06712 0.00698058 0)
(-1.11811 0.00649503 0)
(-1.16533 0.00568822 0)
(-1.20697 0.00407043 0)
(-1.2454 0.00200976 0)
(-1.28405 0.00147844 0)
(-1.31379 0.00372074 0)
(-1.32784 0.00374205 0)
(-1.33265 0.0023057 0)
(-1.32785 0.000396038 0)
(-1.30483 -0.00251057 0)
(-1.25932 -0.00652446 0)
(-1.19502 -0.0113979 0)
(-1.11837 -0.0158215 0)
(-1.03596 -0.0190168 0)
(-0.952057 -0.0210453 0)
(-0.869105 -0.0221937 0)
(-0.788411 -0.0227684 0)
(-0.710578 -0.0229803 0)
(-0.636583 -0.0229134 0)
(-0.56668 -0.0224999 0)
(-0.500313 -0.0221819 0)
(-0.436785 -0.0223198 0)
(-0.37576 -0.0228965 0)
(-0.31498 -0.0245688 0)
(-0.25669 -0.0255115 0)
(-0.200457 -0.0257795 0)
(-0.146341 -0.0258968 0)
(-0.0938965 -0.0264051 0)
(-0.0435209 -0.0275522 0)
(0.00841311 -0.0299138 0)
(0.0614597 -0.0269979 0)
(0.106346 -0.0243594 0)
(0.151365 -0.0232316 0)
(0.193865 -0.0221115 0)
(0.234086 -0.0210539 0)
(0.271713 -0.0199826 0)
(0.309032 -0.0194203 0)
(0.347111 -0.0193789 0)
(0.384511 -0.0188072 0)
(0.420459 -0.0180312 0)
(0.455048 -0.0172461 0)
(0.488582 -0.0165191 0)
(0.521235 -0.0158718 0)
(0.553052 -0.0152613 0)
(0.584092 -0.0146829 0)
(0.614388 -0.0141242 0)
(0.643996 -0.0135921 0)
(0.672951 -0.0130839 0)
(0.70129 -0.0125976 0)
(0.729044 -0.0121325 0)
(0.756241 -0.0116842 0)
(0.782911 -0.0112549 0)
(0.809078 -0.01084 0)
(0.834767 -0.0104426 0)
(0.859994 -0.0100569 0)
(0.884784 -0.00968578 0)
(0.909153 -0.00932394 0)
(0.93312 -0.00897392 0)
(0.956702 -0.0086302 0)
(0.979914 -0.00829561 0)
(1.00277 -0.00796466 0)
(1.02528 -0.00764007 0)
(1.04745 -0.00731733 0)
(1.0693 -0.00699857 0)
(1.09083 -0.00668066 0)
(1.11204 -0.00636503 0)
(1.13294 -0.0060505 0)
(1.15352 -0.00573745 0)
(1.17379 -0.00542689 0)
(1.19374 -0.0051174 0)
(1.21339 -0.00481192 0)
(1.23273 -0.00450712 0)
(1.25176 -0.00420715 0)
(1.27047 -0.0039068 0)
(1.28886 -0.00361025 0)
(1.3069 -0.00331061 0)
(1.32458 -0.00301001 0)
(1.34183 -0.00270095 0)
(1.3586 -0.00237912 0)
(1.37478 -0.00203738 0)
(1.39021 -0.0016618 0)
(1.40467 -0.00123309 0)
(1.41778 -0.000767079 0)
(1.42908 -0.000223731 0)
(1.43757 0.000442075 0)
(1.44379 0.00122396 0)
(1.2195 0.928316 0)
(1.25433 0.626662 0)
(0.970329 0.474718 0)
(0.57211 0.386367 0)
(0.484078 0.294789 0)
(0.277178 0.209159 0)
(0.0762383 0.122623 0)
(-0.167292 0.0564219 0)