/*--------------------------------*- C++ -*----------------------------------*\
  =========                 |
  \\      /  F ield         | OpenFOAM: The Open Source CFD Toolbox
   \\    /   O peration     | Website:  https://openfoam.org
    \\  /    A nd           | Version:  10
     \\/     M anipulation  |
\*---------------------------------------------------------------------------*/
FoamFile
{
    format      ascii;
    class       volScalarField;
    location    "2.5";
    object      p;
}
// * * * * * * * * * * * * * * * * * * * * * * * * * * * * * * * * * * * * * //

dimensions      [1 -1 -2 0 0 0 0];

internalField   nonuniform List<scalar> 
5250
(
1
1.00003
1.00007
1.0002
1.00046
1.00121
1.00288
1.00728
1.01794
1.04437
1.11193
1.28648
1.77514
3.20498
7.4811
11.9625
11.3583
11.0509
11.1471
11.3966
11.6271
11.7662
11.8765
11.9648
12.0311
1
1.00002
1.00008
1.00018
1.00049
1.00111
1.003
1.00685
1.01815
1.04286
1.11086
1.28014
1.76035
3.16057
7.35878
11.9768
11.3595
11.0412
11.1372
11.3869
11.6187
11.7596
11.8722
11.963
12.0318
1
1.00002
1.00007
1.00019
1.00043
1.00117
1.00266
1.0071
1.01648
1.04288
1.10432
1.27181
1.72578
3.06604
7.08419
12.002
11.3592
11.0114
11.1038
11.35
11.5834
11.7252
11.8385
11.9299
11.9996
1
1.00002
1.00007
1.00016
1.00044
1.00102
1.00273
1.00619
1.0167
1.03845
1.10156
1.2515
1.68377
2.92393
6.67313
12.0319
11.3624
10.9649
11.0488
11.2852
11.5202
11.6612
11.7731
11.8639
11.9355
1
1.00002
1.00006
1.00017
1.00038
1.00103
1.00232
1.0063
1.01428
1.0381
1.09024
1.23712
1.62186
2.75613
6.145
12.019
11.3577
10.9036
10.9757
11.1958
11.4296
11.5672
11.6749
11.7639
11.8391
1
1.00002
1.00006
1.00015
1.00037
1.00093
1.00221
1.00572
1.01333
1.03496
1.08324
1.21735
1.56618
2.58823
5.62107
11.8909
11.3044
10.8213
10.8814
11.0774
11.303
11.4336
11.5333
11.6163
11.6939
1
1.00002
1.00005
1.00013
1.00035
1.00082
1.00216
1.00494
1.01323
1.03038
1.08019
1.19569
1.52467
2.44752
5.2217
11.5154
11.1496
10.7299
10.7722
10.9268
11.1337
11.251
11.3344
11.4023
11.4765
1
1.00002
1.00005
1.00012
1.00032
1.00079
1.00189
1.00485
1.01136
1.0297
1.07069
1.18353
1.47461
2.31996
4.82064
10.9359
10.8965
10.6641
10.6597
10.7448
10.9197
11.0145
11.0663
11.0977
11.1456
1
1.00002
1.00004
1.00012
1.00028
1.00073
1.00173
1.00432
1.01072
1.02604
1.066
1.16401
1.43132
2.18193
4.41355
10.1897
10.7288
10.5819
10.5037
10.5513
10.6651
10.7187
10.7136
10.6691
10.6187
1
1.00001
1.00004
1.0001
1.00027
1.00061
1.00163
1.00372
1.00986
1.02298
1.05945
1.14596
1.38326
2.04319
3.99173
9.28209
10.6106
10.4846
10.3204
10.3335
10.3756
10.3616
10.2749
10.057
9.71102
1
1.00001
1.00003
1.00009
1.00021
1.00058
1.00131
1.00354
1.00798
1.02146
1.04979
1.13062
1.32858
1.90113
3.55313
8.21312
10.5207
10.3905
10.1336
10.0896
10.0633
9.96837
9.70933
9.10406
7.53264
1
1.00001
1.00003
1.00007
1.0002
1.00046
1.00122
1.00276
1.00742
1.01686
1.04497
1.10662
1.28157
1.74427
3.10684
7.00047
10.4515
10.2972
9.96482
9.84148
9.75231
9.55662
9.1376
8.29808
6.63579
1
1.00001
1.00003
1.00006
1.00017
1.00037
1.00102
1.00227
1.00614
1.01392
1.03684
1.08742
1.22796
1.59413
2.65323
5.68056
10.2985
10.17
9.82897
9.60298
9.44594
9.16621
8.64412
7.77437
6.41769
1
1.00001
1.00002
1.00005
1.00014
1.00031
1.00083
1.00186
1.00497
1.0114
1.02966
1.07085
1.18212
1.46892
2.28369
4.60082
9.82442
9.91329
9.70153
9.37924
9.14926
8.82251
8.28337
7.47806
6.39312
1
1.00001
1.00002
1.00004
1.0001
1.00027
1.00062
1.00165
1.00378
1.0099
1.02324
1.05935
1.14628
1.38079
2.02982
3.90183
8.7187
9.63023
9.49105
9.17908
8.88542
8.53392
8.01701
7.29721
6.39268
1
1
1.00001
1.00003
1.00009
1.0002
1.00054
1.00123
1.00325
1.00754
1.01944
1.04665
1.11862
1.30091
1.80971
3.26213
7.22654
9.3866
9.29512
9.02798
8.66929
8.2965
7.80974
7.16728
6.39028
1
1
1.00001
1.00003
1.00007
1.00017
1.00041
1.00098
1.00252
1.00585
1.01534
1.0357
1.09287
1.22875
1.61165
2.67296
5.64835
9.16304
9.1381
8.93074
8.50932
8.10513
7.64257
7.06532
6.38465
1
1
1.00001
1.00002
1.00005
1.00013
1.0003
1.00079
1.00179
1.0047
1.01095
1.02786
1.06761
1.17064
1.43865
2.17794
4.20824
8.62329
8.98199
8.80791
8.4051
7.95742
7.5067
6.98162
6.37587
1
1
1.00001
1.00002
1.00004
1.0001
1.00023
1.00058
1.00143
1.00341
1.00871
1.02048
1.05265
1.12728
1.33159
1.87698
3.42824
7.37842
8.71423
8.60866
8.30554
7.84162
7.39569
6.91076
6.36588
1
1
1
1.00001
1.00003
1.00007
1.00017
1.00045
1.00102
1.00268
1.00608
1.01621
1.03708
1.09779
1.23785
1.63898
2.7307
5.70485
8.4405
8.41637
8.2178
7.78427
7.31416
6.85117
6.35509
1
1
1
1.00001
1.00002
1.00005
1.00012
1.00032
1.00075
1.00187
1.00456
1.01098
1.02755
1.06636
1.16778
1.42689
2.13272
3.99757
7.87548
8.2843
8.134
7.76045
7.26102
6.80543
6.34604
1
1
1
1.00001
1.00002
1.00004
1.00009
1.00023
1.00053
1.00138
1.00314
1.00832
1.01884
1.04978
1.11718
1.30724
1.79781
3.17256
6.60827
8.04145
7.96809
7.71712
7.23557
6.77746
6.34156
1
1
1
1
1.00001
1.00003
1.00007
1.00015
1.0004
1.0009
1.0024
1.00541
1.01433
1.03287
1.0855
1.20772
1.54788
2.45691
4.86455
7.65465
7.77379
7.62649
7.24998
6.77914
6.34422
1
1
1
1
1.00001
1.00002
1.00005
1.00011
1.00028
1.00062
1.00165
1.00369
1.00981
1.02211
1.05824
1.1373
1.35817
1.9258
3.43286
6.8135
7.6083
7.51648
7.2444
6.79555
6.35546
1
1
1
1
1
1.00001
1.00003
1.00007
1.00018
1.00043
1.00111
1.00252
1.00667
1.01503
1.03975
1.09243
1.24079
1.61263
2.63587
5.22332
7.30432
7.33545
7.20601
6.85896
6.38522
1
1
1
1
1
1.00001
1.00002
1.00005
1.00012
1.0003
1.00069
1.00174
1.00421
1.01009
1.02528
1.06018
1.15183
1.37917
1.98292
3.49706
6.65335
7.21628
7.13292
6.88811
6.44489
1
1
1
1
1
1.00001
1.00001
1.00003
1.00008
1.00019
1.00048
1.0011
1.00287
1.00649
1.01707
1.03895
1.10118
1.24462
1.64302
2.67214
5.25815
6.95819
6.98178
6.86702
6.56648
1
1
1
1
1
1
1.00001
1.00002
1.00005
1.00013
1.00029
1.00075
1.0017
1.00441
1.01016
1.0256
1.06127
1.15238
1.38184
1.97408
3.43113
6.37409
6.87337
6.81015
6.60808
1
1
1
1
1
1
1.00001
1.00001
1.00003
1.00008
1.00019
1.00048
1.0011
1.00283
1.00654
1.01642
1.03946
1.09732
1.24259
1.62101
2.61165
5.05477
6.61402
6.68436
6.58582
1
1
1
1
1
1
1
1.00001
1.00002
1.00005
1.00012
1.00028
1.00073
1.00163
1.0043
1.00958
1.02516
1.05736
1.14757
1.35952
1.91882
3.26241
6.00449
6.55914
6.51839
1
1
1
1
1
1
1
1.00001
1.00001
1.00003
1.00008
1.00018
1.00045
1.00103
1.00267
1.00602
1.01574
1.03569
1.09262
1.22061
1.57376
2.45669
4.64511
6.25111
6.39484
1
1
1
1
1
1
1
1
1.00001
1.00002
1.00004
1.00012
1.00026
1.00067
1.0015
1.00389
1.00886
1.02253
1.05289
1.13209
1.32519
1.81917
3.01529
5.53733
6.23618
1
1
1
1
1
1
1
1
1
1.00001
1.00003
1.00007
1.00016
1.0004
1.00092
1.00236
1.00531
1.01383
1.03123
1.08098
1.19087
1.49224
2.23031
4.03951
5.84129
1
1
1
1
1
1
1
1
1
1.00001
1.00002
1.00004
1.0001
1.00022
1.00058
1.0013
1.00336
1.00759
1.0194
1.0451
1.1129
1.27522
1.69124
2.70277
4.94842
1
1
1
1
1
1
1
1
1
1
1.00001
1.00002
1.00006
1.00013
1.00033
1.00076
1.00194
1.00435
1.01129
1.02531
1.06553
1.15209
1.38749
1.94594
3.27857
1
1
1
1
1
1
1
1
1
1
1.00001
1.00001
1.00003
1.00008
1.00018
1.00046
1.00107
1.00262
1.00636
1.01488
1.0374
1.08748
1.22072
1.53973
2.34644
1
1
1
1
1
1
1
1
1
1
1
1.00001
1.00002
1.00005
1.0001
1.00026
1.00059
1.00153
1.00339
1.00884
1.01957
1.05094
1.1165
1.29536
1.71446
1
1
1
1
1
1
1
1
1
1
1
1
1.00001
1.00002
1.00006
1.00014
1.00036
1.0008
1.00205
1.00461
1.01172
1.02704
1.06691
1.16067
1.39698
1
1
1
1
1
1
1
1
1
1
1
1
1.00001
1.00001
1.00003
1.00008
1.00019
1.00047
1.0011
1.00263
1.00644
1.0149
1.03744
1.08688
1.21838
1
1
1
1
1
1
1
1
1
1
1
1
1
1.00001
1.00002
1.00004
1.00011
1.00025
1.0006
1.00146
1.00335
1.00848
1.01899
1.04867
1.11128
1
1
1
1
1
1
1
1
1
1
1
1
1
1
1.00001
1.00002
1.00006
1.00014
1.00033
1.00077
1.00189
1.00429
1.01089
1.02435
1.06237
1
1
1
1
1
1
1
1
1
1
1
1
1
1
1.00001
1.00001
1.00003
1.00008
1.00017
1.00043
1.00097
1.00242
1.00565
1.01346
1.03283
1
1
1
1
1
1
1
1
1
1
1
1
1
1
1
1.00001
1.00002
1.00004
1.0001
1.00021
1.00054
1.00123
1.003
1.00715
1.01678
1
1
1
1
1
1
1
1
1
1
1
1
1
1
1
1
1.00001
1.00002
1.00005
1.00012
1.00027
1.00067
1.00152
1.00369
1.00875
1
1
1
1
1
1
1
1
1
1
1
1
1
1
1
1
1
1.00001
1.00003
1.00006
1.00014
1.00034
1.00078
1.00196
1.00436
1
1
1
1
1
1
1
1
1
1
1
1
1
1
1
1
1
1.00001
1.00001
1.00003
1.00008
1.00017
1.00043
1.00095
1.00237
1
1
1
1
1
1
1
1
1
1
1
1
1
1
1
1
1
1
1.00001
1.00002
1.00004
1.00009
1.00021
1.00052
1.00117
1
1
1
1
1
1
1
1
1
1
1
1
1
1
1
1
1
1
1
1.00001
1.00002
1.00005
1.00012
1.00026
1.00066
1
1
1
1
1
1
1
1
1
1
1
1
1
1
1
1
1
1
1
1
1.00001
1.00003
1.00007
1.00016
1.00041
1
1
1
1
1
1
1
1
1
1
1
1
1
1
1
1
1
1
1
1
1.00001
1.00002
1.00005
1.00014
1.00031
2.99091
1.50249
1.01241
0.919533
0.947395
1.03316
1.21313
1.35191
1.39294
1.39098
1.38486
1.38216
1.38335
1.38719
1.39537
1.40347
1.40677
1.40665
1.4061
1.40479
1.40247
1.40052
1.39896
1.39724
1.39503
1.39241
1.38978
1.38823
1.38854
1.38997
1.39456
1.40681
1.43701
1.50868
1.67597
2.068
2.9697
3.87699
3.85597
3.89163
3.94517
4.02839
4.14993
4.28341
4.39554
4.49534
4.56927
4.61794
4.64677
4.66111
4.66341
4.66057
4.6513
4.63157
4.60368
4.5733
4.53994
4.50356
4.46328
4.41982
4.37306
4.324
4.27282
4.22023
4.16627
4.11147
4.05577
3.99958
3.94281
3.88578
3.82847
3.77118
3.71395
3.65702
3.60045
3.54436
3.48882
3.43386
3.37954
3.32586
3.2729
3.22063
3.16913
3.11832
3.06831
3.01904
2.97065
2.92294
2.87606
2.82992
2.78481
2.74036
2.6968
2.65395
2.61218
2.57143
2.53241
2.49588
2.46416
2.44297
3.69372
2.30084
1.71206
1.46772
1.35629
1.27676
1.26263
1.27149
1.29584
1.34564
1.39099
1.40815
1.40759
1.40546
1.40105
1.40109
1.40159
1.40288
1.40518
1.40524
1.40495
1.40403
1.40201
1.39871
1.39555
1.39267
1.39007
1.38766
1.38784
1.38902
1.39272
1.40306
1.4284
1.48866
1.6302
1.95977
2.73088
3.8511
3.92288
3.91868
3.94537
4.02479
4.13833
4.25941
4.36946
4.46584
4.5406
4.59204
4.62342
4.63982
4.64436
4.6431
4.63749
4.62341
4.59547
4.56332
4.52919
4.49312
4.4538
4.41121
4.36532
4.31698
4.2664
4.21429
4.16077
4.1063
4.05095
3.995
3.93852
3.8817
3.82468
3.76759
3.71063
3.65385
3.5975
3.54152
3.48615
3.43125
3.37707
3.32343
3.27058
3.21834
3.16702
3.11632
3.06638
3.01727
2.9691
2.92157
2.87498
2.82897
2.78377
2.73925
2.69571
2.65291
2.61117
2.57038
2.5312
2.49423
2.46232
2.43881
4.53595
3.23503
2.42019
1.90562
1.57382
1.37014
1.25083
1.2411
1.24907
1.27187
1.3191
1.36231
1.38978
1.40261
1.40272
1.40215
1.40072
1.39947
1.39948
1.39946
1.39933
1.39894
1.39807
1.39627
1.3936
1.3906
1.38778
1.385
1.38475
1.3854
1.38772
1.39505
1.41327
1.45749
1.56288
1.80908
2.37769
3.59998
4.03242
4.09209
4.11268
4.15515
4.21425
4.28219
4.3578
4.43149
4.49898
4.55447
4.59072
4.6106
4.61738
4.61669
4.61298
4.60289
4.58118
4.5492
4.51455
4.47834
4.43959
4.39799
4.35325
4.30589
4.25625
4.20486
4.15205
4.0981
4.0433
3.98775
3.93175
3.87529
3.81871
3.76196
3.7054
3.64891
3.59289
3.53712
3.48203
3.42727
3.37337
3.31992
3.26731
3.2152
3.1641
3.11354
3.06412
3.01503
2.96691
2.91937
2.87284
2.82686
2.78186
2.73744
2.69405
2.65128
2.6096
2.56873
2.5294
2.49197
2.45883
2.43404
5.00393
3.82129
2.94969
2.34445
1.9394
1.66776
1.49763
1.38973
1.32735
1.31237
1.31618
1.32855
1.3547
1.38391
1.40376
1.41266
1.41236
1.41104
1.40805
1.40403
1.40168
1.40052
1.39995
1.39919
1.39785
1.39525
1.39187
1.38835
1.3855
1.38573
1.38713
1.39173
1.40391
1.43405
1.50582
1.67543
2.07239
2.99349
4.07198
4.4555
4.45127
4.43193
4.39125
4.34963
4.35257
4.3712
4.41788
4.47926
4.52712
4.55912
4.57462
4.57716
4.57509
4.56837
4.55312
4.52493
4.49123
4.45513
4.41699
4.37664
4.33361
4.28795
4.23989
4.18976
4.13806
4.085
4.03103
3.97616
3.92086
3.865
3.80907
3.75285
3.69685
3.64081
3.58526
3.52986
3.47515
3.42068
3.36713
3.31406
3.26194
3.2102
3.15937
3.10899
3.05967
3.01077
2.96292
2.91553
2.86923
2.82341
2.77866
2.73437
2.69117
2.64847
2.60693
2.56602
2.52662
2.48886
2.4545
2.42896
5.28517
4.24626
3.40491
2.77086
2.30841
1.97242
1.72876
1.55443
1.43234
1.35583
1.31734
1.31761
1.32165
1.33255
1.35479
1.3751
1.38925
1.39804
1.39886
1.3984
1.39711
1.39449
1.39207
1.39023
1.38869
1.3875
1.3862
1.38453
1.38194
1.38204
1.38292
1.38571
1.39421
1.41532
1.46621
1.58746
1.87098
2.52393
3.92423
4.92257
4.91333
4.84013
4.67489
4.47206
4.36291
4.34138
4.34729
4.37004
4.41866
4.46797
4.50238
4.52125
4.5241
4.52169
4.51346
4.4949
4.46436
4.42861
4.39073
4.35099
4.30941
4.26566
4.21966
4.17129
4.12111
4.06926
4.01636
3.96236
3.9079
3.8528
3.79764
3.74212
3.68682
3.63137
3.57642
3.52151
3.46736
3.41354
3.36054
3.30778
3.256
3.20454
3.15405
3.10391
3.05485
3.00618
2.95861
2.91142
2.86537
2.8197
2.77517
2.73102
2.68802
2.64542
2.604
2.56314
2.52366
2.4857
2.45066
2.4239
5.47471
4.5724
3.78957
3.15745
2.6653
2.28824
2.00106
1.78471
1.62274
1.50652
1.42179
1.36861
1.33977
1.339
1.34173
1.34961
1.36594
1.38326
1.39628
1.40467
1.4049
1.40433
1.40263
1.39903
1.39485
1.39142
1.38857
1.3864
1.38384
1.38367
1.38428
1.38644
1.39324
1.40999
1.45023
1.54485
1.76587
2.27469
3.44156
5.39743
5.47831
5.35774
5.07123
4.70456
4.47751
4.35662
4.31116
4.30852
4.31494
4.33632
4.37984
4.41956
4.44531
4.45458
4.453
4.44611
4.42972
4.39766
4.36168
4.32212
4.28104
4.23855
4.19438
4.14796
4.09967
4.04946
3.99798
3.94514
3.89171
3.83751
3.78323
3.72849
3.67394
3.61912
3.56486
3.51072
3.4573
3.40408
3.35161
3.2993
3.24792
3.1968
3.14669
3.09686
3.04812
2.99971
2.95242
2.90549
2.8597
2.81428
2.76999
2.72609
2.6833
2.64093
2.59966
2.55895
2.51951
2.48145
2.44613
2.41832
5.6067
4.82064
4.10528
3.49498
2.99473
2.59299
2.27402
2.02212
1.82362
1.66893
1.54865
1.45985
1.39526
1.35767
1.33942
1.33974
1.34236
1.34902
1.3625
1.37504
1.38419
1.38978
1.39001
1.3897
1.38871
1.38662
1.38358
1.38094
1.37871
1.37884
1.37968
1.3824
1.38941
1.40621
1.4451
1.53297
1.73341
2.17956
3.16734
5.22666
5.84228
5.75465
5.50213
5.11158
4.76623
4.52692
4.37446
4.29196
4.26447
4.26112
4.26713
4.28659
4.32587
4.35557
4.37339
4.3731
4.36916
4.35718
4.33139
4.29466
4.25381
4.21111
4.16725
4.12182
4.07509
4.02661
3.97681
3.92547
3.87338
3.82036
3.76716
3.71329
3.6597
3.60593
3.5526
3.49922
3.44647
3.39377
3.34185
3.29002
3.2391
3.18838
3.13867
3.08922
3.04085
2.99278
2.94583
2.89922
2.85372
2.8086
2.76457
2.72094
2.67838
2.63624
2.59514
2.55459
2.51523
2.47712
2.44168
2.41307
5.70087
5.01002
4.35942
3.78143
3.28777
2.87601
2.53728
2.26097
2.03637
1.85494
1.70921
1.59382
1.50408
1.43691
1.38811
1.36003
1.34565
1.34596
1.34827
1.3541
1.36592
1.37746
1.38706
1.39275
1.39264
1.39191
1.39008
1.38642
1.38281
1.38291
1.38398
1.38771
1.39751
1.42072
1.47311
1.58749
1.83204
2.34043
3.19167
4.26829
5.29531
5.60209
5.5544
5.393
5.07241
4.8152
4.57479
4.39882
4.29002
4.23225
4.21296
4.2087
4.21404
4.22975
4.25942
4.27997
4.28793
4.28599
4.27813
4.25993
4.22497
4.18438
4.14001
4.09414
4.04776
4.00031
3.95194
3.90218
3.8517
3.80018
3.7483
3.69589
3.64349
3.59073
3.53829
3.48563
3.43353
3.38139
3.33002
3.27873
3.22832
3.17807
3.12882
3.07979
3.03181
2.98413
2.93754
2.89128
2.84612
2.80132
2.75761
2.71428
2.672
2.63012
2.58928
2.54893
2.50976
2.47169
2.4363
2.40716
5.7694
5.15561
4.5639
4.02219
3.54423
3.13296
2.78452
2.49241
2.24881
2.04661
1.87929
1.7415
1.62887
1.53821
1.46721
1.41359
1.37547
1.35432
1.34477
1.34516
1.34722
1.35211
1.36176
1.36998
1.37621
1.38024
1.38127
1.38115
1.3809
1.38144
1.38378
1.39063
1.40771
1.44716
1.53411
1.719
2.09983
2.78138
3.29003
3.73133
4.24926
4.8378
5.2258
5.25396
5.19621
5.04293
4.8017
4.6107
4.43223
4.29811
4.21728
4.17451
4.1556
4.14906
4.15284
4.16372
4.18415
4.19784
4.19721
4.19295
4.18061
4.15444
4.11352
4.06781
4.02084
3.97303
3.92497
3.87618
3.8272
3.7774
3.72737
3.67657
3.62562
3.57399
3.52251
3.47065
3.41929
3.36782
3.31709
3.26639
3.21656
3.16685
3.1181
3.06955
3.02202
2.97478
2.92859
2.88273
2.83794
2.79349
2.75012
2.7071
2.66513
2.62353
2.58297
2.54284
2.5039
2.46591
2.43063
2.40111
5.82095
5.26933
4.72922
4.22367
3.76621
3.36244
3.01188
2.71107
2.45468
2.2373
2.05348
1.89862
1.76863
1.66029
1.57114
1.49888
1.44279
1.39997
1.36953
1.35274
1.34531
1.34571
1.34762
1.35213
1.36088
1.36914
1.3759
1.37973
1.38153
1.38483
1.39186
1.40731
1.4412
1.51469
1.66997
1.98704
2.62142
3.1285
3.36072
3.521
3.72771
4.01382
4.40049
4.7398
4.94886
4.93668
4.88573
4.77215
4.58887
4.44905
4.32238
4.21307
4.1463
4.11211
4.089
4.08001
4.08273
4.09024
4.10389
4.10702
4.1047
4.09633
4.07682
4.03894
3.99444
3.94623
3.89731
3.84855
3.8004
3.75203
3.70366
3.65445
3.60497
3.55464
3.50431
3.45345
3.40299
3.35232
3.30232
3.2523
3.2031
3.154
3.10581
3.0578
3.01077
2.964
2.91825
2.87282
2.82843
2.78438
2.74137
2.69871
2.65708
2.61579
2.57555
2.53569
2.49703
2.45919
2.42411
2.3943
5.8605
5.35981
4.8644
4.393
3.95811
3.56622
3.21896
2.91502
2.65102
2.42314
2.22696
2.0587
1.91462
1.79173
1.68744
1.59959
1.52678
1.46729
1.42118
1.38596
1.36149
1.34785
1.34258
1.34299
1.34477
1.34887
1.35613
1.36425
1.37272
1.38187
1.39718
1.42852
1.49408
1.63067
1.91098
2.47898
3.06607
3.31662
3.40028
3.44464
3.50797
3.61042
3.76567
3.97168
4.26316
4.5123
4.68057
4.67753
4.64691
4.5698
4.42586
4.31673
4.2198
4.13056
4.0724
4.04039
4.01668
4.00424
4.00601
4.01084
4.014
4.01266
4.00696
3.9924
3.96233
3.91832
3.87016
3.82156
3.77363
3.72575
3.67824
3.63016
3.58199
3.53301
3.48399
3.43435
3.38497
3.33526
3.28611
3.23686
3.18837
3.13994
3.09236
3.04496
2.99849
2.95226
2.90701
2.86205
2.81811
2.77447
2.73185
2.68956
2.64829
2.60734
2.56744
2.52787
2.48952
2.45187
2.41703
2.38699
5.89227
5.43325
4.97633
4.53651
4.12453
3.74708
3.40664
3.10368
2.83602
2.60139
2.39624
2.21763
2.06231
1.92762
1.81112
1.71076
1.62495
1.55228
1.49188
1.44251
1.40437
1.37522
1.35535
1.34396
1.34129
1.34214
1.34506
1.35155
1.36459
1.38306
1.41268
1.47253
1.59468
1.8437
2.34866
2.99973
3.31342
3.40152
3.41922
3.41838
3.41646
3.42311
3.44948
3.51516
3.64681
3.83724
4.08446
4.29504
4.44326
4.46659
4.44771
4.39737
4.29525
4.1967
4.11855
4.04957
3.99466
3.96158
3.93856
3.9235
3.92101
3.92112
3.9202
3.91602
3.90456
3.87923
3.83956
3.79436
3.74773
3.70015
3.65278
3.60506
3.55759
3.50958
3.46171
3.41325
3.36505
3.31642
3.26825
3.21989
3.17219
3.1245
3.07759
3.03082
2.98494
2.93927
2.89456
2.8501
2.80663
2.76344
2.72126
2.67936
2.63849
2.59791
2.55838
2.51915
2.48115
2.44373
2.40919
2.37898
5.91923
5.49349
5.07096
4.66054
4.27093
3.90889
3.57752
3.27812
3.00988
2.77125
2.55992
2.37338
2.20918
2.06483
1.9383
1.82749
1.73098
1.64714
1.57518
1.51379
1.4628
1.42104
1.38871
1.36492
1.34838
1.34442
1.3458
1.3508
1.36288
1.38849
1.44078
1.54734
1.76389
2.2024
2.87633
3.28776
3.41554
3.4316
3.42559
3.40764
3.36851
3.31899
3.29584
3.30245
3.32819
3.39038
3.51544
3.68176
3.88858
4.08141
4.21839
4.27854
4.26955
4.23932
4.17829
4.09061
4.02001
3.96061
3.91229
3.87709
3.8516
3.8363
3.83146
3.82938
3.82457
3.81355
3.79086
3.75677
3.71683
3.67226
3.62609
3.57883
3.53176
3.48435
3.43736
3.39001
3.34302
3.29565
3.24866
3.20138
3.15463
3.10778
3.06163
3.01555
2.9703
2.92522
2.88106
2.83712
2.79416
2.75144
2.70973
2.66826
2.62782
2.58763
2.54851
2.50963
2.47203
2.43488
2.40069
2.37035
5.94689
5.54921
5.15573
4.77072
4.40189
4.05488
3.73334
3.43901
3.17206
2.93161
2.7162
2.52388
2.35271
2.20062
2.0658
1.94633
1.84096
1.7479
1.66653
1.59536
1.53411
1.48189
1.43831
1.40343
1.37667
1.36181
1.36305
1.36911
1.38593
1.42502
1.50948
1.68552
2.04261
2.71161
3.21873
3.40956
3.4431
3.43928
3.4244
3.38888
3.32278
3.26034
3.21042
3.1772
3.17145
3.17873
3.20294
3.25832
3.36744
3.51221
3.68724
3.86625
4.00422
4.0975
4.1091
4.09676
4.06428
3.99699
3.92618
3.87035
3.82457
3.78765
3.76107
3.74565
3.73875
3.73305
3.72302
3.70289
3.67435
3.63752
3.59589
3.55099
3.50507
3.45833
3.41191
3.36526
3.31917
3.27287
3.22705
3.18095
3.13533
3.08951
3.04428
2.999
2.95448
2.91004
2.86649
2.82309
2.78066
2.73843
2.6972
2.65619
2.61622
2.57645
2.53779
2.49928
2.46213
2.42528
2.39147
2.36105
5.98256
5.60515
5.23457
4.87126
4.52091
4.18809
3.87627
3.58778
3.32332
3.08265
2.86474
2.66846
2.4919
2.33376
2.19216
2.06555
1.95276
1.85199
1.76274
1.68339
1.61367
1.5527
1.49981
1.45605
1.41973
1.39889
1.40076
1.41019
1.43727
1.50195
1.64315
1.93574
2.52836
3.10297
3.38008
3.44571
3.44443
3.43327
3.40223
3.33909
3.27222
3.21274
3.16058
3.11582
3.0799
3.05347
3.04785
3.05372
3.07298
3.11708
3.20553
3.33076
3.48468
3.65097
3.80368
3.91082
3.97103
3.9645
3.94269
3.90605
3.84235
3.7803
3.73182
3.69498
3.66788
3.65203
3.64248
3.63073
3.6143
3.58843
3.5565
3.51799
3.47602
3.43143
3.38612
3.34009
3.29451
3.24882
3.2038
3.15867
3.11414
3.06941
3.02526
2.98095
2.93732
2.89364
2.85079
2.80801
2.76616
2.72446
2.68375
2.64323
2.60373
2.56445
2.52625
2.48812
2.45148
2.41498
2.38157
2.35113
6.0359
5.66507
5.31041
4.96534
4.62995
4.30944
4.00717
3.72488
3.46374
3.22416
3.00506
2.80631
2.62591
2.46305
2.31615
2.18361
2.06469
1.9574
1.8615
1.77527
1.69843
1.63036
1.56966
1.51991
1.475
1.4592
1.46321
1.4804
1.52817
1.6408
1.88361
2.38547
3.00434
3.3451
3.44978
3.451
3.44048
3.40944
3.34554
3.27881
3.2205
3.16802
3.1191
3.07266
3.02884
2.98959
2.9556
2.9308
2.91932
2.92331
2.93743
2.97097
3.03973
3.14606
3.28296
3.4419
3.60324
3.73337
3.82338
3.84604
3.83679
3.8112
3.7556
3.68846
3.63567
3.59566
3.56772
3.54863
3.53372
3.5169
3.4967
3.46917
3.43669
3.39865
3.35764
3.3141
3.26985
3.22484
3.18029
3.13565
3.09175
3.04782
3.00459
2.96124
2.91858
2.87581
2.8338
2.79177
2.7506
2.70952
2.66938
2.6294
2.59043
2.55163
2.51392
2.4763
2.44009
2.40396
2.37101
2.34059
6.11664
5.73181
5.38372
5.05104
4.7294
4.42007
4.12693
3.85161
3.59424
3.35684
3.13779
2.93754
2.75477
2.58814
2.43724
2.29977
2.17579
2.063
1.96141
1.86936
1.78649
1.7125
1.6459
1.59193
1.54396
1.54443
1.55405
1.58728
1.67594
1.87505
2.2949
2.95112
3.3406
3.4756
3.47803
3.467
3.43065
3.35554
3.28272
3.22171
3.17014
3.12193
3.07596
3.03078
2.98628
2.94285
2.9015
2.86371
2.8301
2.80572
2.78807
2.7908
2.80083
2.82543
2.87496
2.96608
3.08875
3.24073
3.40456
3.56122
3.67199
3.74181
3.73469
3.71238
3.67777
3.6149
3.55381
3.50536
3.46972
3.44438
3.42405
3.40277
3.37993
3.35138
3.31876
3.2815
3.24157
3.1993
3.15631
3.11252
3.06916
3.02568
2.98299
2.94031
2.89843
2.85651
2.81537
2.77419
2.73382
2.69348
2.65403
2.61468
2.5763
2.53805
2.50087
2.46375
2.42802
2.39231
2.35981
2.32948
6.19894
5.80491
5.45594
5.13145
4.82076
4.52329
4.23739
3.9686
3.71601
3.48099
3.26346
3.06247
2.87841
2.70919
2.55497
2.41381
2.28527
2.16813
2.06142
1.96453
1.87666
1.79741
1.72864
1.66902
1.64248
1.64798
1.67295
1.74404
1.9108
2.26258
2.94119
3.3837
3.54143
3.54058
3.5266
3.481
3.39172
3.31238
3.2424
3.18066
3.12582
3.07641
3.03127
2.98669
2.94274
2.89925
2.8564
2.8145
2.77475
2.73763
2.70492
2.67935
2.65876
2.65855
2.66374
2.68071
2.71831
2.79342
2.9035
3.04652
3.21267
3.38838
3.52648
3.63356
3.63357
3.6206
3.58896
3.52332
3.46257
3.41276
3.3726
3.34181
3.31624
3.29098
3.26518
3.23569
3.20295
3.16669
3.12803
3.08719
3.04565
3.0032
2.96113
2.91893
2.87754
2.83621
2.79576
2.75536
2.71579
2.67625
2.63757
2.59896
2.56126
2.52365
2.48709
2.45047
2.41532
2.38004
2.34802
2.31781
6.32453
5.90046
5.53398
5.20958
4.90588
4.6168
4.34026
4.07736
3.8302
3.59832
3.38255
3.18216
2.99702
2.82642
2.66935
2.52535
2.39303
2.27202
2.16116
2.05997
1.96807
1.88577
1.81561
1.76387
1.76585
1.7833
1.84181
1.98817
2.30528
2.94987
3.46325
3.65291
3.65111
3.63137
3.57362
3.47036
3.37569
3.29517
3.22482
3.16148
3.1025
3.04679
2.99465
2.94647
2.9011
2.85691
2.81336
2.77059
2.72874
2.68816
2.64958
2.61321
2.5813
2.55397
2.5337
2.5261
2.52977
2.54213
2.57125
2.63144
2.72946
2.86234
3.02996
3.21863
3.3861
3.51592
3.53441
3.52332
3.49248
3.4304
3.37068
3.31972
3.27565
3.24007
3.20993
3.18142
3.15315
3.12289
3.09035
3.05493
3.01756
2.9781
2.938
2.89697
2.85632
2.81553
2.77559
2.73575
2.69683
2.65801
2.62007
2.58221
2.54527
2.50836
2.47248
2.43649
2.40193
2.36711
2.33567
2.30562
6.35229
6.00193
5.61993
5.28844
4.98819
4.70579
4.43693
4.18112
3.93818
3.70988
3.49615
3.29673
3.11142
2.93959
2.78075
2.63404
2.49894
2.3744
2.2602
2.15561
2.06067
1.97916
1.90982
1.8978
1.91022
1.95792
2.08964
2.38407
2.99611
3.58724
3.81643
3.81403
3.78891
3.71787
3.5866
3.46884
3.37271
3.29135
3.2201
3.15556
3.09322
3.03336
2.97562
2.92014
2.86854
2.82066
2.77452
2.73005
2.68689
2.64489
2.60405
2.5647
2.52713
2.49185
2.4604
2.43236
2.41244
2.39909
2.40149
2.41073
2.43365
2.48084
2.56643
2.69139
2.85974
3.05673
3.25204
3.40321
3.43229
3.42208
3.39304
3.33434
3.27534
3.22424
3.178
3.13919
3.10584
3.07473
3.04479
3.01374
2.98132
2.94653
2.91032
2.87216
2.83357
2.79409
2.75502
2.71582
2.67746
2.6392
2.60188
2.56468
2.52842
2.49222
2.45703
2.42175
2.38781
2.35356
2.32265
2.29287
6.31901
6.109
5.71988
5.37384
5.07035
4.79185
4.52893
4.27869
4.0416
3.81652
3.60513
3.40683
3.2217
3.04922
2.88885
2.74022
2.60253
2.47538
2.35839
2.25141
2.15729
2.07663
2.04261
2.05167
2.09265
2.21047
2.485
3.06481
3.74884
4.02672
4.0243
3.99464
3.90923
3.75289
3.61127
3.49318
3.39401
3.3072
3.22949
3.15749
3.09127
3.02926
2.9676
2.90766
2.84982
2.79461
2.74348
2.69578
2.65012
2.60615
2.5637
2.52267
2.48299
2.44493
2.40848
2.37448
2.34341
2.31571
2.29546
2.27848
2.28021
2.28685
2.30427
2.34196
2.41764
2.53592
2.70299
2.90603
3.12794
3.29117
3.32829
3.31883
3.29114
3.23489
3.1778
3.1275
3.08014
3.03934
3.00376
2.97076
2.93956
2.90795
2.87572
2.84152
2.80658
2.76977
2.73281
2.69501
2.6576
2.62006
2.58334
2.54671
2.51103
2.47544
2.44086
2.40624
2.37295
2.3393
2.30896
2.2795
6.22214
6.10686
5.84027
5.47542
5.1585
4.87812
4.61894
4.37358
4.14046
3.91936
3.71003
3.51321
3.3284
3.15551
2.99407
2.84378
2.70419
2.57498
2.45615
2.34997
2.25808
2.20351
2.20924
2.24306
2.34769
2.60317
3.15074
3.93381
4.2729
4.27142
4.2392
4.14128
3.95998
3.79521
3.65768
3.53995
3.43649
3.3427
3.25682
3.17658
3.10194
3.0312
2.96549
2.90325
2.84129
2.78148
2.72432
2.67071
2.62079
2.57358
2.52863
2.48557
2.44421
2.40439
2.36609
2.32942
2.29435
2.26167
2.23123
2.20443
2.18331
2.16553
2.16501
2.16915
2.18315
2.21618
2.28278
2.39412
2.56199
2.77262
3.01183
3.17803
3.22254
3.21358
3.18716
3.13368
3.07884
3.02942
2.98196
2.94013
2.90336
2.86929
2.83745
2.80562
2.77387
2.74048
2.70676
2.67144
2.63606
2.59991
2.56419
2.52833
2.49326
2.45824
2.42421
2.39015
2.35745
2.32434
2.29459
2.26549
6.11765
6.0677
5.90882
5.58325
5.25433
4.96759
4.70879
4.46676
4.23716
4.01899
3.81231
3.61626
3.43182
3.25871
3.09648
2.94503
2.80406
2.67379
2.55544
2.45383
2.3785
2.38118
2.40891
2.50275
2.74471
3.26389
4.14461
4.54942
4.5551
4.51904
4.40589
4.19988
4.01303
3.85558
3.72069
3.60054
3.49144
3.3902
3.29605
3.20741
3.12446
3.04598
2.97267
2.90299
2.83863
2.77609
2.71532
2.65673
2.60099
2.54913
2.5007
2.45473
2.41094
2.36911
2.32908
2.29068
2.25389
2.21867
2.18506
2.15364
2.12408
2.09823
2.07654
2.05923
2.05568
2.05905
2.07113
2.10066
2.1614
2.26731
2.43861
2.65714
2.90919
3.06801
3.11754
3.1088
3.08296
3.03096
2.9789
2.9302
2.88374
2.84189
2.80491
2.77064
2.7388
2.7072
2.676
2.64359
2.61098
2.57716
2.54326
2.50878
2.47475
2.44052
2.40714
2.37363
2.34151
2.30885
2.2797
2.25093
5.90064
5.96697
5.89481
5.7064
5.36906
5.06654
4.80154
4.55938
4.3318
4.11554
3.91045
3.71587
3.53193
3.35893
3.19638
3.04421
2.90304
2.77305
2.66182
2.5686
2.56494
2.58779
2.67109
2.89811
3.38222
4.35031
4.83857
4.86369
4.82367
4.6988
4.46825
4.25805
4.08153
3.92916
3.79355
3.66908
3.5537
3.44515
3.3433
3.2469
3.15632
3.07053
2.99003
2.91379
2.84242
2.77499
2.71232
2.65047
2.59123
2.53445
2.48103
2.43126
2.3843
2.33981
2.29751
2.25719
2.21868
2.18181
2.14655
2.11281
2.08065
2.05051
2.02202
1.99714
1.97544
1.95875
1.95334
1.95624
1.9671
1.9943
2.05114
2.1556
2.32775
2.55217
2.81712
2.96244
3.01268
3.00401
2.97862
2.92818
2.87888
2.83156
2.78653
2.74557
2.70911
2.6752
2.64364
2.61253
2.58197
2.55061
2.51913
2.48676
2.45444
2.42158
2.38926
2.35656
2.32514
2.29304
2.26445
2.23602
5.38251
5.85076
5.83572
5.7348
5.50369
5.18328
4.90163
4.65292
4.42439
4.20971
4.00593
3.81291
3.6298
3.45657
3.294
3.14226
3.00199
2.87939
2.77673
2.7558
2.77694
2.85848
3.08215
3.57348
4.56889
5.14326
5.19872
5.15607
5.01863
4.76175
4.52822
4.33149
4.16228
4.01062
3.87163
3.74164
3.6197
3.50419
3.3953
3.29193
3.19454
3.10212
3.01519
2.93274
2.85532
2.78206
2.71318
2.64863
2.58745
2.52757
2.47038
2.41583
2.36496
2.31729
2.27219
2.22939
2.18871
2.14998
2.11303
2.07773
2.04402
2.0118
1.98111
1.95233
1.92505
1.90123
1.88
1.8639
1.85775
1.8604
1.87054
1.89644
1.95084
2.05867
2.23218
2.45375
2.72787
2.85941
2.90716
2.89874
2.87461
2.82679
2.78016
2.73484
2.69155
2.65186
2.61621
2.58294
2.55191
2.52152
2.49175
2.46151
2.43132
2.40038
2.36973
2.33835
2.30805
2.27674
2.24891
2.22095
4.21224
5.54583
5.74945
5.70825
5.57791
5.30587
5.009
4.74941
4.51714
4.30213
4.0994
3.90725
3.7252
3.55301
3.39129
3.24067
3.10781
2.99513
2.95925
2.97866
3.05847
3.28296
3.78942
4.82692
5.4959
5.57162
5.5241
5.36759
5.08186
4.82217
4.60486
4.41748
4.25007
4.09566
3.95166
3.81557
3.68719
3.56519
3.44993
3.34036
3.23695
3.13865
3.046
2.95796
2.87512
2.79647
2.72259
2.65264
2.58691
2.52529
2.46569
2.40822
2.35345
2.30184
2.25356
2.20792
2.16468
2.12367
2.08471
2.04764
2.01233
1.97862
1.94648
1.91579
1.88657
1.85921
1.83319
1.81045
1.79008
1.7745
1.76868
1.77124
1.78119
1.80733
1.86195
1.97261
2.15003
2.37349
2.64067
2.76077
2.80409
2.79585
2.77274
2.72783
2.68405
2.64075
2.59932
2.56103
2.5264
2.49403
2.46385
2.43437
2.40568
2.37659
2.34789
2.31825
2.28963
2.2595
2.23281
2.2057
2.71427
4.82262
5.56418
5.63131
5.56973
5.41474
5.12337
4.85189
4.6126
4.39508
4.19217
4.0005
3.81905
3.64803
3.48811
3.34544
3.22344
3.17351
3.19137
3.26964
3.49534
4.01408
5.08635
5.87426
5.97842
5.92402
5.74535
5.42719
5.14035
4.90052
4.69483
4.5103
4.34058
4.18135
4.03147
3.88918
3.75464
3.62666
3.50567
3.39055
3.28177
3.17825
3.0805
2.98748
2.89979
2.81636
2.73787
2.66323
2.59318
2.52661
2.46442
2.40527
2.34803
2.29316
2.24117
2.19253
2.14657
2.10304
2.06179
2.02265
1.98548
1.95014
1.91649
1.88442
1.85386
1.82477
1.79702
1.77113
1.74643
1.72477
1.70562
1.69043
1.68583
1.6885
1.69884
1.72575
1.78242
1.89537
2.07314
2.30734
2.55922
2.66562
2.70439
2.69636
2.67429
2.63175
2.59081
2.54971
2.5103
2.47364
2.44035
2.4091
2.38002
2.35158
2.32419
2.29624
2.26937
2.24087
2.21562
2.18993
1.97084
3.31666
5.08975
5.51449
5.5099
5.43455
5.25502
4.97171
4.7161
4.49049
4.28469
4.09262
3.91217
3.74337
3.59088
3.46045
3.39912
3.41598
3.4943
3.72502
4.26122
5.37897
6.26885
6.40233
6.34289
6.1462
5.79601
5.48034