/*--------------------------------*- C++ -*----------------------------------*\
  =========                 |
  \\      /  F ield         | OpenFOAM: The Open Source CFD Toolbox
   \\    /   O peration     | Website:  https://openfoam.org
    \\  /    A nd           | Version:  10
     \\/     M anipulation  |
\*---------------------------------------------------------------------------*/
FoamFile
{
    format      ascii;
    class       volScalarField;
    location    "0.96";
    object      Exp1;
}
// * * * * * * * * * * * * * * * * * * * * * * * * * * * * * * * * * * * * * //

dimensions      [0 0 0 0 0 0 0];

internalField   uniform 0;

boundaryField
{
    frontAndBack
    {
        type            empty;
    }
    inlet
    {
        type            calculated;
        value           uniform 0;
    }
    outlet
    {
        type            calculated;
        value           uniform 0;
    }
    substrate
    {
        type            calculated;
        value           nonuniform List<scalar> 
400
(
1.59551e-16
4.7782e-16
7.94153e-16
1.1077e-15
1.41772e-15
1.72359e-15
2.02475e-15
2.32069e-15
2.611e-15
2.89531e-15
3.17331e-15
3.44475e-15
3.70941e-15
3.96713e-15
4.21778e-15
4.46129e-15
4.6976e-15
4.9267e-15
5.1486e-15
5.36334e-15
5.57098e-15
5.77159e-15
5.96528e-15
6.15216e-15
6.33235e-15
6.506e-15
6.67324e-15
6.83423e-15
6.98912e-15
7.13807e-15
7.28126e-15
7.41883e-15
7.55096e-15
7.67782e-15
7.79956e-15
7.91634e-15
8.02834e-15
8.13569e-15
8.23856e-15
8.3371e-15
8.43145e-15
8.52175e-15
8.60814e-15
8.69075e-15
8.76972e-15
8.84516e-15
8.9172e-15
8.98596e-15
9.05153e-15
9.11404e-15
9.17359e-15
9.23026e-15
9.28417e-15
9.33539e-15
9.38402e-15
9.43015e-15
9.47384e-15
9.51518e-15
9.55423e-15
9.59108e-15
9.62579e-15
9.65841e-15
9.68902e-15
9.71767e-15
9.74441e-15
9.76931e-15
9.79241e-15
9.81375e-15
9.8334e-15
9.85138e-15
9.86775e-15
9.88255e-15
9.89581e-15
9.90757e-15
9.91787e-15
9.92674e-15
9.93421e-15
9.94033e-15
9.94511e-15
9.94858e-15
9.95079e-15
9.95174e-15
9.95147e-15
9.95e-15
9.94736e-15
9.94356e-15
9.93864e-15
9.93261e-15
9.9255e-15
9.91732e-15
9.90809e-15
9.89784e-15
9.88658e-15
9.87433e-15
9.8611e-15
9.84692e-15
9.8318e-15
9.81575e-15
9.7988e-15
9.78095e-15
9.76223e-15
9.74264e-15
9.72221e-15
9.70094e-15
9.67885e-15
9.65595e-15
9.63226e-15
9.60778e-15
9.58254e-15
9.55655e-15
9.52981e-15
9.50235e-15
9.47416e-15
9.44528e-15
9.4157e-15
9.38543e-15
9.3545e-15
9.32291e-15
9.29068e-15
9.25781e-15
9.22432e-15
9.19021e-15
9.15551e-15
9.12021e-15
9.08434e-15
9.0479e-15
9.01091e-15
8.97337e-15
8.9353e-15
8.8967e-15
8.85759e-15
8.81798e-15
8.77787e-15
8.73729e-15
8.69624e-15
8.65473e-15
8.61277e-15
8.57037e-15
8.52754e-15
8.48429e-15
8.44064e-15
8.39659e-15
8.35216e-15
8.30735e-15
8.26217e-15
8.21664e-15
8.17076e-15
8.12454e-15
8.078e-15
8.03114e-15
7.98398e-15
7.93652e-15
7.88878e-15
7.84075e-15
7.79247e-15
7.74392e-15
7.69513e-15
7.6461e-15
7.59684e-15
7.54736e-15
7.49768e-15
7.44779e-15
7.39771e-15
7.34746e-15
7.29703e-15
7.24643e-15
7.19569e-15
7.14479e-15
7.09377e-15
7.04261e-15
6.99134e-15
6.93995e-15
6.88847e-15
6.8369e-15
6.78524e-15
6.7335e-15
6.6817e-15
6.62984e-15
6.57793e-15
6.52598e-15
6.47399e-15
6.42198e-15
6.36995e-15
6.31791e-15
6.26587e-15
6.21383e-15
6.1618e-15
6.1098e-15
6.05782e-15
6.00588e-15
5.95398e-15
5.90212e-15
5.85033e-15
5.7986e-15
5.74694e-15
5.69535e-15
5.64385e-15
5.59244e-15
5.54113e-15
5.48992e-15
5.43882e-15
5.38784e-15
5.33697e-15
5.28624e-15
5.23564e-15
5.18518e-15
5.13486e-15
5.0847e-15
5.03469e-15
4.98485e-15
4.93517e-15
4.88567e-15
4.83634e-15
4.7872e-15
4.73824e-15
4.68948e-15
4.64091e-15
4.59255e-15
4.54439e-15
4.49645e-15
4.44872e-15
4.40121e-15
4.35393e-15
4.30687e-15
4.26005e-15
4.21346e-15
4.16711e-15
4.12101e-15
4.07515e-15
4.02954e-15
3.98419e-15
3.9391e-15
3.89427e-15
3.8497e-15
3.80539e-15
3.76136e-15
3.7176e-15
3.67412e-15
3.63091e-15
3.58799e-15
3.54534e-15
3.50299e-15
3.46092e-15
3.41914e-15
3.37766e-15
3.33647e-15
3.29557e-15
3.25498e-15
3.21468e-15
3.17469e-15
3.135e-15
3.09561e-15
3.05653e-15
3.01776e-15
2.9793e-15
2.94115e-15
2.90331e-15
2.86579e-15
2.82858e-15
2.79168e-15
2.7551e-15
2.71884e-15
2.68289e-15
2.64726e-15
2.61195e-15
2.57696e-15
2.54229e-15
2.50794e-15
2.47391e-15
2.4402e-15
2.40681e-15
2.37375e-15
2.341e-15
2.30858e-15
2.27647e-15
2.24469e-15
2.21323e-15
2.18209e-15
2.15127e-15
2.12077e-15
2.09059e-15
2.06073e-15
2.03119e-15
2.00197e-15
1.97306e-15
1.94448e-15
1.91621e-15
1.88826e-15
1.86062e-15
1.8333e-15
1.80629e-15
1.77959e-15
1.75321e-15
1.72714e-15
1.70138e-15
1.67593e-15
1.65078e-15
1.62595e-15
1.60142e-15
1.5772e-15
1.55328e-15
1.52966e-15
1.50635e-15
1.48333e-15
1.46062e-15
1.4382e-15
1.41609e-15
1.39426e-15
1.37273e-15
1.3515e-15
1.33056e-15
1.3099e-15
1.28954e-15
1.26946e-15
1.24967e-15
1.23017e-15
1.21094e-15
1.192e-15
1.17334e-15
1.15496e-15
1.13686e-15
1.11903e-15
1.10148e-15
1.08419e-15
1.06719e-15
1.05045e-15
1.03398e-15
1.01777e-15
1.00183e-15
9.8616e-16
9.70749e-16
9.55598e-16
9.40706e-16
9.26073e-16
9.11696e-16
8.97574e-16
8.83705e-16
8.70089e-16
8.56723e-16
8.43606e-16
8.30736e-16
8.18113e-16
8.05734e-16
7.93599e-16
7.81706e-16
7.70053e-16
7.58639e-16
7.47463e-16
7.36523e-16
7.25818e-16
7.15347e-16
7.05108e-16
6.951e-16
6.85322e-16
6.75773e-16
6.6645e-16
6.57354e-16
6.48483e-16
6.39835e-16
6.3141e-16
6.23206e-16
6.15222e-16
6.07457e-16
5.9991e-16
5.92581e-16
5.85467e-16
5.78568e-16
5.71883e-16
5.65411e-16
5.59151e-16
5.53102e-16
5.47264e-16
5.41635e-16
5.36214e-16
5.31001e-16
5.25995e-16
5.21195e-16
5.16601e-16
5.12212e-16
5.08026e-16
5.04044e-16
5.00265e-16
4.96689e-16
4.93314e-16
4.9014e-16
4.87167e-16
4.84394e-16
4.81821e-16
4.79448e-16
4.77273e-16
4.75298e-16
4.7352e-16
4.71941e-16
4.7056e-16
4.69377e-16
4.68391e-16
4.67602e-16
4.67011e-16
4.66617e-16
4.6642e-16
)
;
    }
    Wall
    {
        type            calculated;
        value           nonuniform List<scalar> 
400
(
1.59552e-16
4.77821e-16
7.94154e-16
1.1077e-15
1.41773e-15
1.7236e-15
2.02475e-15
2.32069e-15
2.611e-15
2.89531e-15
3.17332e-15
3.44475e-15
3.70941e-15
3.96713e-15
4.21778e-15
4.46129e-15
4.6976e-15
4.9267e-15
5.1486e-15
5.36334e-15
5.57098e-15
5.77159e-15
5.96528e-15
6.15216e-15
6.33235e-15
6.506e-15
6.67324e-15
6.83422e-15
6.98911e-15
7.13807e-15
7.28125e-15
7.41883e-15
7.55096e-15
7.67781e-15
7.79955e-15
7.91634e-15
8.02833e-15
8.13568e-15
8.23856e-15
8.33709e-15
8.43144e-15
8.52174e-15
8.60813e-15
8.69074e-15
8.76971e-15
8.84515e-15
8.91719e-15
8.98594e-15
9.05152e-15
9.11403e-15
9.17357e-15
9.23025e-15
9.28415e-15
9.33538e-15
9.38401e-15
9.43013e-15
9.47382e-15
9.51516e-15
9.55421e-15
9.59106e-15
9.62577e-15
9.65839e-15
9.689e-15
9.71765e-15
9.74439e-15
9.76929e-15
9.79238e-15
9.81373e-15
9.83337e-15
9.85136e-15
9.86773e-15
9.88252e-15
9.89578e-15
9.90754e-15
9.91784e-15
9.92671e-15
9.93419e-15
9.9403e-15
9.94508e-15
9.94856e-15
9.95076e-15
9.95171e-15
9.95144e-15
9.94997e-15
9.94733e-15
9.94353e-15
9.93861e-15
9.93258e-15
9.92547e-15
9.91729e-15
9.90806e-15
9.89781e-15
9.88655e-15
9.8743e-15
9.86107e-15
9.84689e-15
9.83177e-15
9.81572e-15
9.79877e-15
9.78092e-15
9.7622e-15
9.74261e-15
9.72218e-15
9.70091e-15
9.67881e-15
9.65592e-15
9.63222e-15
9.60775e-15
9.58251e-15
9.55652e-15
9.52978e-15
9.50232e-15
9.47413e-15
9.44525e-15
9.41566e-15
9.3854e-15
9.35447e-15
9.32288e-15
9.29065e-15
9.25778e-15
9.22429e-15
9.19018e-15
9.15548e-15
9.12018e-15
9.08431e-15
9.04787e-15
9.01088e-15
8.97334e-15
8.93527e-15
8.89667e-15
8.85756e-15
8.81795e-15
8.77785e-15
8.73726e-15
8.69621e-15
8.6547e-15
8.61274e-15
8.57034e-15
8.52751e-15
8.48427e-15
8.44061e-15
8.39657e-15
8.35213e-15
8.30732e-15
8.26214e-15
8.21661e-15
8.17073e-15
8.12451e-15
8.07797e-15
8.03112e-15
7.98395e-15
7.93649e-15
7.88875e-15
7.84073e-15
7.79244e-15
7.74389e-15
7.6951e-15
7.64607e-15
7.59681e-15
7.54734e-15
7.49765e-15
7.44776e-15
7.39769e-15
7.34743e-15
7.297e-15
7.24641e-15
7.19566e-15
7.14477e-15
7.09374e-15
7.04259e-15
6.99131e-15
6.93993e-15
6.88845e-15
6.83687e-15
6.78521e-15
6.73348e-15
6.68168e-15
6.62982e-15
6.57791e-15
6.52596e-15
6.47397e-15
6.42196e-15
6.36993e-15
6.31789e-15
6.26584e-15
6.21381e-15
6.16178e-15
6.10977e-15
6.0578e-15
6.00585e-15
5.95395e-15
5.9021e-15
5.85031e-15
5.79858e-15
5.74692e-15
5.69533e-15
5.64383e-15
5.59242e-15
5.54111e-15
5.4899e-15
5.4388e-15
5.38782e-15
5.33696e-15
5.28622e-15
5.23562e-15
5.18516e-15
5.13485e-15
5.08468e-15
5.03468e-15
4.98483e-15
4.93515e-15
4.88565e-15
4.83632e-15
4.78718e-15
4.73822e-15
4.68946e-15
4.6409e-15
4.59253e-15
4.54438e-15
4.49643e-15
4.44871e-15
4.4012e-15
4.35391e-15
4.30686e-15
4.26003e-15
4.21344e-15
4.1671e-15
4.12099e-15
4.07514e-15
4.02953e-15
3.98418e-15
3.93908e-15
3.89425e-15
3.84968e-15
3.80538e-15
3.76135e-15
3.71759e-15
3.6741e-15
3.6309e-15
3.58797e-15
3.54533e-15
3.50298e-15
3.46091e-15
3.41913e-15
3.37764e-15
3.33645e-15
3.29556e-15
3.25496e-15
3.21467e-15
3.17468e-15
3.13499e-15
3.0956e-15
3.05652e-15
3.01775e-15
2.97929e-15
2.94114e-15
2.9033e-15
2.86578e-15
2.82857e-15
2.79167e-15
2.75509e-15
2.71883e-15
2.68288e-15
2.64725e-15
2.61194e-15
2.57695e-15
2.54228e-15
2.50793e-15
2.4739e-15
2.44019e-15
2.40681e-15
2.37374e-15
2.34099e-15
2.30857e-15
2.27647e-15
2.24468e-15
2.21322e-15
2.18208e-15
2.15126e-15
2.12076e-15
2.09058e-15
2.06072e-15
2.03118e-15
2.00196e-15
1.97306e-15
1.94447e-15
1.9162e-15
1.88825e-15
1.86061e-15
1.83329e-15
1.80628e-15
1.77959e-15
1.7532e-15
1.72713e-15
1.70137e-15
1.67592e-15
1.65078e-15
1.62594e-15
1.60141e-15
1.57719e-15
1.55327e-15
1.52965e-15
1.50634e-15
1.48333e-15
1.46061e-15
1.4382e-15
1.41608e-15
1.39426e-15
1.37273e-15
1.35149e-15
1.33055e-15
1.3099e-15
1.28953e-15
1.26946e-15
1.24967e-15
1.23016e-15
1.21094e-15
1.192e-15
1.17334e-15
1.15496e-15
1.13685e-15
1.11902e-15
1.10147e-15
1.08419e-15
1.06718e-15
1.05044e-15
1.03397e-15
1.01777e-15
1.00183e-15
9.86157e-16
9.70745e-16
9.55594e-16
9.40703e-16
9.2607e-16
9.11693e-16
8.97571e-16
8.83702e-16
8.70086e-16
8.5672e-16
8.43603e-16
8.30733e-16
8.1811e-16
8.05732e-16
7.93596e-16
7.81703e-16
7.7005e-16
7.58636e-16
7.4746e-16
7.3652e-16
7.25815e-16
7.15344e-16
7.05106e-16
6.95098e-16
6.8532e-16
6.7577e-16
6.66448e-16
6.57352e-16
6.4848e-16
6.39833e-16
6.31407e-16
6.23203e-16
6.1522e-16
6.07455e-16
5.99908e-16
5.92579e-16
5.85465e-16
5.78566e-16
5.71881e-16
5.65409e-16
5.59149e-16
5.53101e-16
5.47262e-16
5.41633e-16
5.36212e-16
5.30999e-16
5.25993e-16
5.21194e-16
5.16599e-16
5.1221e-16
5.08025e-16
5.04043e-16
5.00264e-16
4.96687e-16
4.93312e-16
4.90138e-16
4.87165e-16
4.84393e-16
4.8182e-16
4.79446e-16
4.77272e-16
4.75296e-16
4.73519e-16
4.71939e-16
4.70558e-16
4.69375e-16
4.68389e-16
4.676e-16
4.67009e-16
4.66615e-16
4.66418e-16
)
;
    }
}


// ************************************************************************* //
