/*--------------------------------*- C++ -*----------------------------------*\
  =========                 |
  \\      /  F ield         | OpenFOAM: The Open Source CFD Toolbox
   \\    /   O peration     | Website:  https://openfoam.org
    \\  /    A nd           | Version:  10
     \\/     M anipulation  |
\*---------------------------------------------------------------------------*/
FoamFile
{
    format      ascii;
    class       volScalarField;
    location    "0.96";
    object      N1;
}
// * * * * * * * * * * * * * * * * * * * * * * * * * * * * * * * * * * * * * //

dimensions      [0 0 0 0 0 0 0];

internalField   nonuniform List<scalar> 
8000
(
1.21115e-15
3.62855e-15
6.03305e-15
8.41808e-15
1.0778e-14
1.3108e-14
1.54037e-14
1.76613e-14
1.98775e-14
2.20495e-14
2.41748e-14
2.62514e-14
2.82777e-14
3.02521e-14
3.21739e-14
3.40421e-14
3.58563e-14
3.76163e-14
3.93221e-14
4.09739e-14
4.25721e-14
4.41172e-14
4.56097e-14
4.70507e-14
4.84408e-14
4.97811e-14
5.10726e-14
5.23164e-14
5.35136e-14
5.46655e-14
5.57732e-14
5.68379e-14
5.78609e-14
5.88433e-14
5.97865e-14
6.06916e-14
6.15597e-14
6.23922e-14
6.31901e-14
6.39546e-14
6.46867e-14
6.53876e-14
6.60583e-14
6.66998e-14
6.7313e-14
6.7899e-14
6.84587e-14
6.89929e-14
6.95025e-14
6.99884e-14
7.04512e-14
7.08918e-14
7.1311e-14
7.17093e-14
7.20875e-14
7.24463e-14
7.27862e-14
7.31078e-14
7.34118e-14
7.36986e-14
7.39687e-14
7.42228e-14
7.44611e-14
7.46843e-14
7.48927e-14
7.50867e-14
7.52668e-14
7.54334e-14
7.55867e-14
7.57271e-14
7.5855e-14
7.59707e-14
7.60745e-14
7.61667e-14
7.62476e-14
7.63174e-14
7.63763e-14
7.64248e-14
7.64629e-14
7.64909e-14
7.6509e-14
7.65175e-14
7.65165e-14
7.65062e-14
7.64869e-14
7.64586e-14
7.64216e-14
7.63761e-14
7.63222e-14
7.626e-14
7.61897e-14
7.61116e-14
7.60256e-14
7.59319e-14
7.58308e-14
7.57222e-14
7.56065e-14
7.54835e-14
7.53536e-14
7.52168e-14
7.50732e-14
7.49229e-14
7.47661e-14
7.46028e-14
7.44333e-14
7.42575e-14
7.40755e-14
7.38876e-14
7.36937e-14
7.3494e-14
7.32887e-14
7.30776e-14
7.28611e-14
7.26391e-14
7.24118e-14
7.21792e-14
7.19415e-14
7.16987e-14
7.14509e-14
7.11982e-14
7.09408e-14
7.06786e-14
7.04118e-14
7.01405e-14
6.98647e-14
6.95846e-14
6.93001e-14
6.90115e-14
6.87187e-14
6.8422e-14
6.81213e-14
6.78167e-14
6.75083e-14
6.71963e-14
6.68806e-14
6.65614e-14
6.62387e-14
6.59127e-14
6.55833e-14
6.52508e-14
6.49151e-14
6.45764e-14
6.42347e-14
6.38901e-14
6.35426e-14
6.31925e-14
6.28396e-14
6.24842e-14
6.21263e-14
6.1766e-14
6.14033e-14
6.10383e-14
6.06711e-14
6.03018e-14
5.99304e-14
5.95571e-14
5.91818e-14
5.88048e-14
5.8426e-14
5.80454e-14
5.76633e-14
5.72797e-14
5.68945e-14
5.6508e-14
5.61202e-14
5.57311e-14
5.53408e-14
5.49494e-14
5.4557e-14
5.41636e-14
5.37692e-14
5.33741e-14
5.29781e-14
5.25815e-14
5.21842e-14
5.17863e-14
5.13879e-14
5.0989e-14
5.05898e-14
5.01903e-14
4.97904e-14
4.93904e-14
4.89903e-14
4.859e-14
4.81898e-14
4.77896e-14
4.73894e-14
4.69895e-14
4.65897e-14
4.61903e-14
4.57911e-14
4.53923e-14
4.4994e-14
4.45961e-14
4.41988e-14
4.38021e-14
4.3406e-14
4.30106e-14
4.2616e-14
4.22221e-14
4.18291e-14
4.1437e-14
4.10459e-14
4.06557e-14
4.02665e-14
3.98784e-14
3.94915e-14
3.91057e-14
3.87211e-14
3.83377e-14
3.79556e-14
3.75749e-14
3.71956e-14
3.68176e-14
3.64411e-14
3.60661e-14
3.56926e-14
3.53206e-14
3.49502e-14
3.45815e-14
3.42144e-14
3.38491e-14
3.34854e-14
3.31235e-14
3.27634e-14
3.24051e-14
3.20486e-14
3.1694e-14
3.13414e-14
3.09906e-14
3.06418e-14
3.0295e-14
2.99502e-14
2.96074e-14
2.92667e-14
2.89281e-14
2.85915e-14
2.82571e-14
2.79248e-14
2.75947e-14
2.72667e-14
2.69409e-14
2.66174e-14
2.62961e-14
2.5977e-14
2.56603e-14
2.53457e-14
2.50335e-14
2.47236e-14
2.4416e-14
2.41108e-14
2.38079e-14
2.35073e-14
2.32092e-14
2.29134e-14
2.262e-14
2.2329e-14
2.20404e-14
2.17542e-14
2.14704e-14
2.11891e-14
2.09102e-14
2.06337e-14
2.03597e-14
2.00881e-14
1.9819e-14
1.95524e-14
1.92882e-14
1.90265e-14
1.87672e-14
1.85104e-14
1.82561e-14
1.80043e-14
1.77549e-14
1.7508e-14
1.72636e-14
1.70216e-14
1.67821e-14
1.65451e-14
1.63105e-14
1.60784e-14
1.58488e-14
1.56216e-14
1.53968e-14
1.51745e-14
1.49547e-14
1.47373e-14
1.45223e-14
1.43097e-14
1.40996e-14
1.38919e-14
1.36866e-14
1.34837e-14
1.32832e-14
1.3085e-14
1.28893e-14
1.26959e-14
1.25049e-14
1.23163e-14
1.213e-14
1.1946e-14
1.17644e-14
1.15851e-14
1.14081e-14
1.12334e-14
1.1061e-14
1.08909e-14
1.07231e-14
1.05575e-14
1.03942e-14
1.02331e-14
1.00743e-14
9.91764e-15
9.76324e-15
9.61103e-15
9.46102e-15
9.31318e-15
9.16751e-15
9.02399e-15
8.88263e-15
8.74339e-15
8.60628e-15
8.47128e-15
8.33838e-15
8.20756e-15
8.07883e-15
7.95215e-15
7.82754e-15
7.70496e-15
7.58441e-15
7.46588e-15
7.34936e-15
7.23483e-15
7.12229e-15
7.01172e-15
6.90311e-15
6.79645e-15
6.69172e-15
6.58893e-15
6.48804e-15
6.38907e-15
6.29198e-15
6.19678e-15
6.10345e-15
6.01198e-15
5.92236e-15
5.83458e-15
5.74862e-15
5.66449e-15
5.58216e-15
5.50162e-15
5.42288e-15
5.34591e-15
5.27071e-15
5.19726e-15
5.12557e-15
5.05561e-15
4.98738e-15
4.92087e-15
4.85608e-15
4.79298e-15
4.73158e-15
4.67186e-15
4.61382e-15
4.55745e-15
4.50274e-15
4.44968e-15
4.39827e-15
4.34849e-15
4.30035e-15
4.25383e-15
4.20892e-15
4.16563e-15
4.12394e-15
4.08385e-15
4.04535e-15
4.00843e-15
3.9731e-15
3.93934e-15
3.90715e-15
3.87653e-15
3.84747e-15
3.81996e-15
3.794e-15
3.76959e-15
3.74673e-15
3.7254e-15
3.70561e-15
3.68736e-15
3.67064e-15
3.65544e-15
3.64177e-15
3.62963e-15
3.61901e-15
3.6099e-15
3.60232e-15
3.59626e-15
3.59171e-15
3.58868e-15
3.58716e-15
1.22355e-15
3.66682e-15
6.09921e-15
8.51445e-15
1.0907e-14
1.32719e-14
1.56048e-14
1.79018e-14
2.01595e-14
2.23748e-14
2.45453e-14
2.66687e-14
2.8743e-14
3.07669e-14
3.27391e-14
3.46587e-14
3.6525e-14
3.83376e-14
4.00964e-14
4.18014e-14
4.34527e-14
4.50509e-14
4.65963e-14
4.80897e-14
4.95318e-14
5.09235e-14
5.22657e-14
5.35594e-14
5.48056e-14
5.60055e-14
5.71603e-14
5.8271e-14
5.93388e-14
6.0365e-14
6.13507e-14
6.22972e-14
6.32055e-14
6.40769e-14
6.49125e-14
6.57134e-14
6.64808e-14
6.72157e-14
6.79192e-14
6.85922e-14
6.92359e-14
6.98512e-14
7.04389e-14
7.10001e-14
7.15356e-14
7.20462e-14
7.25328e-14
7.29962e-14
7.3437e-14
7.38561e-14
7.42541e-14
7.46316e-14
7.49895e-14
7.53282e-14
7.56483e-14
7.59505e-14
7.62353e-14
7.65031e-14
7.67545e-14
7.699e-14
7.721e-14
7.7415e-14
7.76053e-14
7.77814e-14
7.79437e-14
7.80925e-14
7.82282e-14
7.83511e-14
7.84616e-14
7.85599e-14
7.86463e-14
7.87212e-14
7.87848e-14
7.88374e-14
7.88791e-14
7.89103e-14
7.89312e-14
7.8942e-14
7.8943e-14
7.89343e-14
7.8916e-14
7.88886e-14
7.8852e-14
7.88065e-14
7.87522e-14
7.86894e-14
7.86182e-14
7.85387e-14
7.84511e-14
7.83555e-14
7.82521e-14
7.81411e-14
7.80225e-14
7.78965e-14
7.77632e-14
7.76227e-14
7.74752e-14
7.73208e-14
7.71596e-14
7.69917e-14
7.68173e-14
7.66364e-14
7.64491e-14
7.62556e-14
7.6056e-14
7.58503e-14
7.56387e-14
7.54213e-14
7.51982e-14
7.49694e-14
7.47351e-14
7.44953e-14
7.42503e-14
7.39999e-14
7.37444e-14
7.34839e-14
7.32184e-14
7.2948e-14
7.26728e-14
7.2393e-14
7.21085e-14
7.18195e-14
7.15261e-14
7.12283e-14
7.09263e-14
7.06202e-14
7.03099e-14
6.99956e-14
6.96775e-14
6.93555e-14
6.90298e-14
6.87004e-14
6.83674e-14
6.8031e-14
6.76911e-14
6.7348e-14
6.70016e-14
6.6652e-14
6.62994e-14
6.59437e-14
6.55852e-14
6.52238e-14
6.48597e-14
6.44929e-14
6.41235e-14
6.37516e-14
6.33773e-14
6.30006e-14
6.26217e-14
6.22405e-14
6.18572e-14
6.14719e-14
6.10846e-14
6.06955e-14
6.03045e-14
5.99117e-14
5.95174e-14
5.91214e-14
5.87239e-14
5.8325e-14
5.79247e-14
5.75231e-14
5.71203e-14
5.67163e-14
5.63112e-14
5.59052e-14
5.54982e-14
5.50903e-14
5.46816e-14
5.42722e-14
5.38622e-14
5.34515e-14
5.30403e-14
5.26287e-14
5.22166e-14
5.18042e-14
5.13915e-14
5.09787e-14
5.05656e-14
5.01525e-14
4.97394e-14
4.93263e-14
4.89134e-14
4.85005e-14
4.80879e-14
4.76756e-14
4.72636e-14
4.6852e-14
4.64409e-14
4.60302e-14
4.56201e-14
4.52107e-14
4.48018e-14
4.43937e-14
4.39864e-14
4.35799e-14
4.31743e-14
4.27695e-14
4.23658e-14
4.19631e-14
4.15614e-14
4.11608e-14
4.07614e-14
4.03632e-14
3.99662e-14
3.95706e-14
3.91762e-14
3.87832e-14
3.83917e-14
3.80016e-14
3.7613e-14
3.72259e-14
3.68404e-14
3.64564e-14
3.60742e-14
3.56936e-14
3.53147e-14
3.49376e-14
3.45622e-14
3.41887e-14
3.3817e-14
3.34472e-14
3.30792e-14
3.27133e-14
3.23492e-14
3.19872e-14
3.16272e-14
3.12692e-14
3.09133e-14
3.05595e-14
3.02079e-14
2.98583e-14
2.9511e-14
2.91658e-14
2.88228e-14
2.8482e-14
2.81435e-14
2.78073e-14
2.74734e-14
2.71417e-14
2.68124e-14
2.64854e-14
2.61608e-14
2.58386e-14
2.55187e-14
2.52012e-14
2.48861e-14
2.45735e-14
2.42633e-14
2.39555e-14
2.36502e-14
2.33474e-14
2.3047e-14
2.27491e-14
2.24537e-14
2.21609e-14
2.18705e-14
2.15826e-14
2.12973e-14
2.10144e-14
2.07341e-14
2.04564e-14
2.01812e-14
1.99085e-14
1.96383e-14
1.93708e-14
1.91057e-14
1.88432e-14
1.85833e-14
1.83259e-14
1.8071e-14
1.78187e-14
1.7569e-14
1.73218e-14
1.70771e-14
1.6835e-14
1.65955e-14
1.63584e-14
1.61239e-14
1.5892e-14
1.56625e-14
1.54356e-14
1.52112e-14
1.49893e-14
1.47699e-14
1.4553e-14
1.43386e-14
1.41267e-14
1.39173e-14
1.37103e-14
1.35058e-14
1.33038e-14
1.31042e-14
1.29071e-14
1.27123e-14
1.252e-14
1.23302e-14
1.21427e-14
1.19576e-14
1.1775e-14
1.15947e-14
1.14167e-14
1.12411e-14
1.10679e-14
1.0897e-14
1.07284e-14
1.05622e-14
1.03982e-14
1.02366e-14
1.00772e-14
9.92011e-15
9.76526e-15
9.61267e-15
9.46232e-15
9.31419e-15
9.16828e-15
9.02456e-15
8.88304e-15
8.7437e-15
8.60653e-15
8.4715e-15
8.33863e-15
8.20788e-15
8.07925e-15
7.95274e-15
7.82831e-15
7.70597e-15
7.5857e-15
7.46749e-15
7.35133e-15
7.2372e-15
7.1251e-15
7.01501e-15
6.90692e-15
6.80081e-15
6.69669e-15
6.59453e-15
6.49432e-15
6.39606e-15
6.29973e-15
6.20532e-15
6.11281e-15
6.02221e-15
5.93349e-15
5.84665e-15
5.76167e-15
5.67855e-15
5.59727e-15
5.51783e-15
5.44021e-15
5.3644e-15
5.2904e-15
5.21819e-15
5.14777e-15
5.07912e-15
5.01224e-15
4.94711e-15
4.88374e-15
4.8221e-15
4.76219e-15
4.70401e-15
4.64754e-15
4.59277e-15
4.53971e-15
4.48833e-15
4.43864e-15
4.39062e-15
4.34427e-15
4.29959e-15
4.25656e-15
4.21518e-15
4.17544e-15
4.13734e-15
4.10087e-15
4.06602e-15
4.0328e-15
4.00119e-15
3.97119e-15
3.9428e-15
3.91601e-15
3.89082e-15
3.86722e-15
3.8452e-15
3.82478e-15
3.80594e-15
3.78868e-15
3.773e-15
3.75889e-15
3.74635e-15
3.73539e-15
3.72599e-15
3.71817e-15
3.71191e-15
3.70721e-15
3.70408e-15
3.70252e-15
1.23571e-15
3.70384e-15
6.16235e-15
8.60537e-15
1.10275e-14
1.34239e-14
1.57902e-14
1.81224e-14
2.04171e-14
2.26711e-14
2.48817e-14
2.70466e-14
2.91638e-14
3.12316e-14
3.32486e-14
3.52139e-14
3.71265e-14
3.89859e-14
4.07918e-14
4.25441e-14
4.42429e-14
4.58883e-14
4.74809e-14
4.90211e-14
5.05095e-14
5.1947e-14
5.33345e-14
5.46727e-14
5.59627e-14
5.72056e-14
5.84024e-14
5.95543e-14
6.06623e-14
6.17276e-14
6.27515e-14
6.3735e-14
6.46793e-14
6.55856e-14
6.6455e-14
6.72887e-14
6.80876e-14
6.88531e-14
6.9586e-14
7.02875e-14
7.09585e-14
7.16e-14
7.22131e-14
7.27985e-14
7.33573e-14
7.38902e-14
7.43982e-14
7.48819e-14
7.53423e-14
7.578e-14
7.61958e-14
7.65904e-14
7.69644e-14
7.73185e-14
7.76532e-14
7.79693e-14
7.82672e-14
7.85474e-14
7.88106e-14
7.90572e-14
7.92877e-14
7.95025e-14
7.97021e-14
7.98869e-14
8.00573e-14
8.02136e-14
8.03564e-14
8.04858e-14
8.06023e-14
8.07061e-14
8.07976e-14
8.08771e-14
8.09448e-14
8.10011e-14
8.10462e-14
8.10803e-14
8.11037e-14
8.11167e-14
8.11194e-14
8.11121e-14
8.10949e-14
8.10681e-14
8.10319e-14
8.09865e-14
8.0932e-14
8.08686e-14
8.07965e-14
8.07159e-14
8.06268e-14
8.05295e-14
8.04242e-14
8.03109e-14
8.01897e-14
8.0061e-14
7.99247e-14
7.9781e-14
7.963e-14
7.94719e-14
7.93068e-14
7.91347e-14
7.89559e-14
7.87704e-14
7.85784e-14
7.83799e-14
7.81751e-14
7.79641e-14
7.7747e-14
7.75238e-14
7.72948e-14
7.70599e-14
7.68193e-14
7.65732e-14
7.63215e-14
7.60644e-14
7.5802e-14
7.55344e-14
7.52617e-14
7.49839e-14
7.47012e-14
7.44137e-14
7.41215e-14
7.38246e-14
7.35231e-14
7.32171e-14
7.29068e-14
7.25922e-14
7.22734e-14
7.19504e-14
7.16235e-14
7.12926e-14
7.09578e-14
7.06193e-14
7.02771e-14
6.99314e-14
6.95821e-14
6.92294e-14
6.88734e-14
6.85141e-14
6.81517e-14
6.77861e-14
6.74176e-14
6.70462e-14
6.66719e-14
6.62949e-14
6.59153e-14
6.5533e-14
6.51483e-14
6.47611e-14
6.43716e-14
6.39798e-14
6.35858e-14
6.31898e-14
6.27917e-14
6.23916e-14
6.19898e-14
6.15861e-14
6.11807e-14
6.07737e-14
6.03651e-14
5.9955e-14
5.95435e-14
5.91307e-14
5.87167e-14
5.83014e-14
5.78851e-14
5.74677e-14
5.70493e-14
5.663e-14
5.62099e-14
5.57891e-14
5.53676e-14
5.49455e-14
5.45228e-14
5.40996e-14
5.3676e-14
5.32521e-14
5.28279e-14
5.24035e-14
5.1979e-14
5.15543e-14
5.11296e-14
5.0705e-14
5.02805e-14
4.98561e-14
4.9432e-14
4.90082e-14
4.85847e-14
4.81616e-14
4.77389e-14
4.73168e-14
4.68952e-14
4.64743e-14
4.60541e-14
4.56346e-14
4.52159e-14
4.4798e-14
4.4381e-14
4.3965e-14
4.355e-14
4.3136e-14
4.27231e-14
4.23113e-14
4.19007e-14
4.14914e-14
4.10833e-14
4.06766e-14
4.02712e-14
3.98673e-14
3.94648e-14
3.90638e-14
3.86643e-14
3.82664e-14
3.78701e-14
3.74754e-14
3.70825e-14
3.66913e-14
3.63018e-14
3.59141e-14
3.55283e-14
3.51443e-14
3.47622e-14
3.43821e-14
3.40039e-14
3.36276e-14
3.32535e-14
3.28813e-14
3.25112e-14
3.21433e-14
3.17774e-14
3.14137e-14
3.10522e-14
3.06929e-14
3.03358e-14
2.9981e-14
2.96284e-14
2.92782e-14
2.89302e-14
2.85846e-14
2.82413e-14
2.79004e-14
2.75619e-14
2.72257e-14
2.6892e-14
2.65608e-14
2.6232e-14
2.59056e-14
2.55817e-14
2.52604e-14
2.49415e-14
2.46251e-14
2.43113e-14
2.4e-14
2.36912e-14
2.3385e-14
2.30814e-14
2.27803e-14
2.24818e-14
2.21859e-14
2.18925e-14
2.16018e-14
2.13137e-14
2.10282e-14
2.07453e-14
2.0465e-14
2.01873e-14
1.99122e-14
1.96397e-14
1.93699e-14
1.91027e-14
1.88381e-14
1.85762e-14
1.83168e-14
1.80601e-14
1.7806e-14
1.75545e-14
1.73056e-14
1.70593e-14
1.68157e-14
1.65746e-14
1.63362e-14
1.61003e-14
1.5867e-14
1.56364e-14
1.54083e-14
1.51827e-14
1.49598e-14
1.47394e-14
1.45216e-14
1.43063e-14
1.40935e-14
1.38833e-14
1.36756e-14
1.34705e-14
1.32678e-14
1.30677e-14
1.287e-14
1.26748e-14
1.24821e-14
1.22919e-14
1.21041e-14
1.19187e-14
1.17358e-14
1.15553e-14
1.13773e-14
1.12016e-14
1.10283e-14
1.08574e-14
1.06889e-14
1.05227e-14
1.03589e-14
1.01974e-14
1.00382e-14
9.88136e-15
9.7268e-15
9.57454e-15
9.42454e-15
9.27681e-15
9.13134e-15
8.9881e-15
8.84709e-15
8.7083e-15
8.5717e-15
8.4373e-15
8.30508e-15
8.17503e-15
8.04712e-15
7.92136e-15
7.79773e-15
7.67622e-15
7.55681e-15
7.43949e-15
7.32425e-15
7.21109e-15
7.09997e-15
6.99091e-15
6.88387e-15
6.77886e-15
6.67585e-15
6.57484e-15
6.47581e-15
6.37876e-15
6.28367e-15
6.19054e-15
6.09934e-15
6.01007e-15
5.92272e-15
5.83727e-15
5.75372e-15
5.67206e-15
5.59227e-15
5.51434e-15
5.43827e-15
5.36405e-15
5.29166e-15
5.22109e-15
5.15234e-15
5.08539e-15
5.02024e-15
4.95688e-15
4.8953e-15
4.83549e-15
4.77744e-15
4.72115e-15
4.6666e-15
4.61379e-15
4.56271e-15
4.51335e-15
4.4657e-15
4.41977e-15
4.37554e-15
4.333e-15
4.29215e-15
4.25298e-15
4.21549e-15
4.17968e-15
4.14552e-15
4.11303e-15
4.08219e-15
4.05301e-15
4.02547e-15
3.99957e-15
3.97531e-15
3.95268e-15
3.93169e-15
3.91232e-15
3.89458e-15
3.87846e-15
3.86395e-15
3.85107e-15
3.8398e-15
3.83014e-15
3.82209e-15
3.81566e-15
3.81083e-15
3.80762e-15
3.80601e-15
1.24706e-15
3.73822e-15
6.2206e-15
8.68867e-15
1.11373e-14
1.35616e-14
1.59574e-14
1.83206e-14
2.06478e-14
2.29357e-14
2.51815e-14
2.73828e-14
2.95375e-14
3.16437e-14
3.37e-14
3.57052e-14
3.76583e-14
3.95587e-14
4.14059e-14
4.31997e-14
4.49399e-14
4.66268e-14
4.82607e-14
4.98419e-14
5.13711e-14
5.28489e-14
5.4276e-14
5.56534e-14
5.69819e-14
5.82626e-14
5.94964e-14
6.06844e-14
6.18278e-14
6.29276e-14
6.39851e-14
6.50012e-14
6.59773e-14
6.69143e-14
6.78136e-14
6.86761e-14
6.9503e-14
7.02954e-14
7.10543e-14
7.17809e-14
7.2476e-14
7.31408e-14
7.37762e-14
7.43831e-14
7.49624e-14
7.55151e-14
7.60419e-14
7.65438e-14
7.70214e-14
7.74757e-14
7.79072e-14
7.83168e-14
7.87051e-14
7.90728e-14
7.94205e-14
7.97488e-14
8.00584e-14
8.03497e-14
8.06233e-14
8.08797e-14
8.11195e-14
8.1343e-14
8.15508e-14
8.17433e-14
8.19209e-14
8.20839e-14
8.22329e-14
8.23681e-14
8.24899e-14
8.25986e-14
8.26946e-14
8.27782e-14
8.28497e-14
8.29092e-14
8.29573e-14
8.2994e-14
8.30197e-14
8.30345e-14
8.30388e-14
8.30327e-14
8.30165e-14
8.29904e-14
8.29546e-14
8.29092e-14
8.28545e-14
8.27906e-14
8.27178e-14
8.26361e-14
8.25458e-14
8.2447e-14
8.23399e-14
8.22246e-14
8.21013e-14
8.19701e-14
8.18312e-14
8.16846e-14
8.15306e-14
8.13692e-14
8.12007e-14
8.1025e-14
8.08423e-14
8.06528e-14
8.04566e-14
8.02537e-14
8.00444e-14
7.98286e-14
7.96066e-14
7.93784e-14
7.91441e-14
7.89039e-14
7.86578e-14
7.8406e-14
7.81485e-14
7.78854e-14
7.76169e-14
7.73431e-14
7.7064e-14
7.67798e-14
7.64905e-14
7.61962e-14
7.58971e-14
7.55932e-14
7.52846e-14
7.49714e-14
7.46538e-14
7.43317e-14
7.40053e-14
7.36748e-14
7.334e-14
7.30013e-14
7.26586e-14
7.2312e-14
7.19617e-14
7.16077e-14
7.12501e-14
7.0889e-14
7.05245e-14
7.01567e-14
6.97856e-14
6.94114e-14
6.9034e-14
6.86537e-14
6.82705e-14
6.78845e-14
6.74958e-14
6.71044e-14
6.67104e-14
6.6314e-14
6.59152e-14
6.5514e-14
6.51106e-14
6.47051e-14
6.42975e-14
6.38879e-14
6.34764e-14
6.3063e-14
6.26479e-14
6.22311e-14
6.18128e-14
6.13929e-14
6.09715e-14
6.05489e-14
6.01249e-14
5.96997e-14
5.92733e-14
5.88459e-14
5.84175e-14
5.79882e-14
5.75581e-14
5.71272e-14
5.66955e-14
5.62633e-14
5.58305e-14
5.53972e-14
5.49634e-14
5.45293e-14
5.4095e-14
5.36604e-14
5.32257e-14
5.27908e-14
5.2356e-14
5.19212e-14
5.14865e-14
5.10519e-14
5.06176e-14
5.01836e-14
4.975e-14
4.93167e-14
4.8884e-14
4.84517e-14
4.802e-14
4.7589e-14
4.71587e-14
4.67291e-14
4.63004e-14
4.58725e-14
4.54455e-14
4.50195e-14
4.45945e-14
4.41706e-14
4.37478e-14
4.33262e-14
4.29058e-14
4.24866e-14
4.20688e-14
4.16523e-14
4.12372e-14
4.08235e-14
4.04114e-14
4.00007e-14
3.95917e-14
3.91842e-14
3.87784e-14
3.83743e-14
3.79719e-14
3.75713e-14
3.71725e-14
3.67756e-14
3.63805e-14
3.59873e-14
3.5596e-14
3.52067e-14
3.48195e-14
3.44342e-14
3.40511e-14
3.367e-14
3.3291e-14
3.29142e-14
3.25396e-14
3.21672e-14
3.1797e-14
3.14291e-14
3.10635e-14
3.07001e-14
3.03391e-14
2.99804e-14
2.96241e-14
2.92702e-14
2.89187e-14
2.85696e-14
2.8223e-14
2.78788e-14
2.75371e-14
2.71979e-14
2.68612e-14
2.6527e-14
2.61953e-14
2.58663e-14
2.55397e-14
2.52158e-14
2.48944e-14
2.45756e-14
2.42595e-14
2.39459e-14
2.3635e-14
2.33267e-14
2.3021e-14
2.2718e-14
2.24177e-14
2.212e-14
2.18249e-14
2.15325e-14
2.12428e-14
2.09558e-14
2.06715e-14
2.03898e-14
2.01108e-14
1.98345e-14
1.95609e-14
1.929e-14
1.90217e-14
1.87561e-14
1.84933e-14
1.82331e-14
1.79755e-14
1.77207e-14
1.74685e-14
1.7219e-14
1.69722e-14
1.6728e-14
1.64865e-14
1.62476e-14
1.60114e-14
1.57779e-14
1.55469e-14
1.53186e-14
1.50929e-14
1.48699e-14
1.46494e-14
1.44316e-14
1.42163e-14
1.40037e-14
1.37936e-14
1.35861e-14
1.33811e-14
1.31787e-14
1.29788e-14
1.27815e-14
1.25867e-14
1.23944e-14
1.22046e-14
1.20173e-14
1.18325e-14
1.16502e-14
1.14703e-14
1.12928e-14
1.11178e-14
1.09453e-14
1.07751e-14
1.06073e-14
1.0442e-14
1.0279e-14
1.01184e-14
9.96011e-15
9.80419e-15
9.6506e-15
9.49933e-15
9.35036e-15
9.20369e-15
9.0593e-15
8.91717e-15
8.7773e-15
8.63968e-15
8.50429e-15
8.37111e-15
8.24014e-15
8.11136e-15
7.98477e-15
7.86034e-15
7.73807e-15
7.61793e-15
7.49993e-15
7.38405e-15
7.27027e-15
7.15859e-15
7.04899e-15
6.94145e-15
6.83598e-15
6.73254e-15
6.63114e-15
6.53176e-15
6.43439e-15
6.33902e-15
6.24564e-15
6.15422e-15
6.06478e-15
5.97728e-15
5.89173e-15
5.80811e-15
5.7264e-15
5.64661e-15
5.56871e-15
5.49271e-15
5.41858e-15
5.34632e-15
5.27592e-15
5.20737e-15
5.14066e-15
5.07578e-15
5.01272e-15
4.95148e-15
4.89203e-15
4.83439e-15
4.77853e-15
4.72445e-15
4.67215e-15
4.6216e-15
4.57282e-15
4.52578e-15
4.48049e-15
4.43693e-15
4.3951e-15
4.35499e-15
4.31661e-15
4.27993e-15
4.24496e-15
4.21169e-15
4.18011e-15
4.15022e-15
4.12202e-15
4.0955e-15
4.07066e-15
4.04749e-15
4.02599e-15
4.00616e-15
3.98799e-15
3.97148e-15
3.95663e-15
3.94344e-15
3.9319e-15
3.92201e-15
3.91377e-15
3.90718e-15
3.90224e-15
3.89895e-15
3.8973e-15
1.25726e-15
3.76902e-15
6.27259e-15
8.76271e-15
1.12344e-14
1.36831e-14
1.61044e-14
1.84944e-14
2.08495e-14
2.31665e-14
2.54425e-14
2.76751e-14
2.98619e-14
3.20011e-14
3.4091e-14
3.61305e-14
3.81184e-14
4.00539e-14
4.19365e-14
4.37658e-14
4.55417e-14
4.72642e-14
4.89336e-14
5.05501e-14
5.21142e-14
5.36266e-14
5.50879e-14
5.64989e-14
5.78605e-14
5.91737e-14
6.04394e-14
6.16586e-14
6.28325e-14
6.3962e-14
6.50484e-14
6.60927e-14
6.70962e-14
6.80598e-14
6.89848e-14
6.98722e-14
7.07232e-14
7.15389e-14
7.23203e-14
7.30685e-14
7.37845e-14
7.44694e-14
7.51241e-14
7.57495e-14
7.63466e-14
7.69164e-14
7.74596e-14
7.79771e-14
7.84697e-14
7.89382e-14
7.93834e-14
7.9806e-14
8.02067e-14
8.05862e-14
8.09451e-14
8.12841e-14
8.16037e-14
8.19045e-14
8.21872e-14
8.24521e-14
8.26999e-14
8.29311e-14
8.3146e-14
8.33451e-14
8.35289e-14
8.36978e-14
8.38521e-14
8.39924e-14
8.41188e-14
8.42318e-14
8.43317e-14
8.44188e-14
8.44935e-14
8.4556e-14
8.46066e-14
8.46455e-14
8.46732e-14
8.46897e-14
8.46953e-14
8.46904e-14
8.4675e-14
8.46495e-14
8.46139e-14
8.45686e-14
8.45137e-14
8.44495e-14
8.4376e-14
8.42935e-14
8.42021e-14
8.4102e-14
8.39934e-14
8.38765e-14
8.37513e-14
8.3618e-14
8.34768e-14
8.33278e-14
8.31711e-14
8.30069e-14
8.28353e-14
8.26565e-14
8.24706e-14
8.22776e-14
8.20777e-14
8.18711e-14
8.16578e-14
8.1438e-14
8.12117e-14
8.09792e-14
8.07404e-14
8.04955e-14
8.02447e-14
7.9988e-14
7.97255e-14
7.94573e-14
7.91835e-14
7.89043e-14
7.86198e-14
7.83299e-14
7.80349e-14
7.77348e-14
7.74297e-14
7.71198e-14
7.68051e-14
7.64857e-14
7.61617e-14
7.58332e-14
7.55003e-14
7.51632e-14
7.48217e-14
7.44762e-14
7.41267e-14
7.37732e-14
7.34158e-14
7.30547e-14
7.26899e-14
7.23216e-14
7.19498e-14
7.15745e-14
7.1196e-14
7.08142e-14
7.04293e-14
7.00413e-14
6.96504e-14
6.92566e-14
6.88601e-14
6.84608e-14
6.80589e-14
6.76545e-14
6.72476e-14
6.68383e-14
6.64268e-14
6.60131e-14
6.55973e-14
6.51794e-14
6.47596e-14
6.43379e-14
6.39144e-14
6.34892e-14
6.30624e-14
6.2634e-14
6.22042e-14
6.1773e-14
6.13404e-14
6.09066e-14
6.04717e-14
6.00356e-14
5.95986e-14
5.91606e-14
5.87218e-14
5.82821e-14
5.78418e-14
5.74008e-14
5.69592e-14
5.65172e-14
5.60747e-14
5.56318e-14
5.51887e-14
5.47453e-14
5.43018e-14
5.38582e-14
5.34145e-14
5.29709e-14
5.25275e-14
5.20841e-14
5.16411e-14
5.11983e-14
5.07559e-14
5.03139e-14
4.98723e-14
4.94313e-14
4.8991e-14
4.85512e-14
4.81122e-14
4.7674e-14
4.72365e-14
4.68e-14
4.63644e-14
4.59298e-14
4.54962e-14
4.50637e-14
4.46324e-14
4.42022e-14
4.37733e-14
4.33456e-14
4.29194e-14
4.24944e-14
4.2071e-14
4.16489e-14
4.12285e-14
4.08095e-14
4.03922e-14
3.99765e-14
3.95625e-14
3.91502e-14
3.87397e-14
3.8331e-14
3.79241e-14
3.75191e-14
3.7116e-14
3.67149e-14
3.63157e-14
3.59186e-14
3.55235e-14
3.51305e-14
3.47396e-14
3.43508e-14
3.39642e-14
3.35797e-14
3.31976e-14
3.28176e-14
3.24399e-14
3.20646e-14
3.16915e-14
3.13209e-14
3.09525e-14
3.05866e-14
3.02231e-14
2.9862e-14
2.95034e-14
2.91473e-14
2.87936e-14
2.84425e-14
2.80939e-14
2.77478e-14
2.74043e-14
2.70633e-14
2.6725e-14
2.63893e-14
2.60561e-14
2.57256e-14
2.53978e-14
2.50725e-14
2.475e-14
2.44301e-14
2.41129e-14
2.37983e-14
2.34865e-14
2.31774e-14
2.28709e-14
2.25672e-14
2.22662e-14
2.19679e-14
2.16724e-14
2.13795e-14
2.10894e-14
2.08021e-14
2.05174e-14
2.02356e-14
1.99564e-14
1.968e-14
1.94063e-14
1.91354e-14
1.88672e-14
1.86017e-14
1.8339e-14
1.8079e-14
1.78217e-14
1.75672e-14
1.73153e-14
1.70662e-14
1.68198e-14
1.65761e-14
1.63352e-14
1.60969e-14
1.58613e-14
1.56283e-14
1.53981e-14
1.51705e-14
1.49456e-14
1.47234e-14
1.45038e-14
1.42868e-14
1.40725e-14
1.38608e-14
1.36517e-14
1.34452e-14
1.32413e-14
1.30399e-14
1.28412e-14
1.2645e-14
1.24514e-14
1.22603e-14
1.20717e-14
1.18857e-14
1.17022e-14
1.15212e-14
1.13426e-14
1.11666e-14
1.0993e-14
1.08218e-14
1.06531e-14
1.04868e-14
1.0323e-14
1.01615e-14
1.00024e-14
9.84573e-15
9.6914e-15
9.53942e-15
9.38978e-15
9.24247e-15
9.09747e-15
8.95478e-15
8.81437e-15
8.67624e-15
8.54037e-15
8.40675e-15
8.27537e-15
8.14621e-15
8.01927e-15
7.89452e-15
7.77196e-15
7.65158e-15
7.53335e-15
7.41727e-15
7.30333e-15
7.19151e-15
7.0818e-15
6.97419e-15
6.86867e-15
6.76522e-15
6.66383e-15
6.56449e-15
6.46719e-15
6.37192e-15
6.27866e-15
6.1874e-15
6.09814e-15
6.01086e-15
5.92554e-15
5.84219e-15
5.76078e-15
5.68131e-15
5.60377e-15
5.52814e-15
5.45442e-15
5.3826e-15
5.31266e-15
5.2446e-15
5.17841e-15
5.11408e-15
5.05159e-15
4.99095e-15
4.93214e-15
4.87515e-15
4.81998e-15
4.76661e-15
4.71505e-15
4.66528e-15
4.61729e-15
4.57108e-15
4.52664e-15
4.48397e-15
4.44305e-15
4.40389e-15
4.36647e-15
4.33079e-15
4.29684e-15
4.26463e-15
4.23414e-15
4.20537e-15
4.17831e-15
4.15297e-15
4.12933e-15
4.1074e-15
4.08716e-15
4.06863e-15
4.05178e-15
4.03663e-15
4.02317e-15
4.0114e-15
4.00131e-15
3.9929e-15
3.98618e-15
3.98114e-15
3.97778e-15
3.9761e-15
1.26605e-15
3.79555e-15
6.31727e-15
8.82617e-15
1.13175e-14
1.37866e-14
1.62293e-14
1.86418e-14
2.10203e-14
2.33616e-14
2.56629e-14
2.79215e-14
3.01351e-14
3.23018e-14
3.44198e-14
3.64879e-14
3.85047e-14
4.04695e-14
4.23816e-14
4.42406e-14
4.60463e-14
4.77985e-14
4.94974e-14
5.11434e-14
5.27367e-14
5.4278e-14
5.57678e-14
5.7207e-14
5.85963e-14
5.99367e-14
6.1229e-14
6.24744e-14
6.36737e-14
6.48281e-14
6.59388e-14
6.70067e-14
6.8033e-14
6.90189e-14
6.99655e-14
7.08738e-14
7.1745e-14
7.25802e-14
7.33805e-14
7.41469e-14
7.48804e-14
7.55821e-14
7.6253e-14
7.6894e-14
7.75061e-14
7.80901e-14
7.86471e-14
7.91777e-14
7.96829e-14
8.01634e-14
8.06201e-14
8.10536e-14
8.14647e-14
8.18541e-14
8.22225e-14
8.25704e-14
8.28985e-14
8.32074e-14
8.34976e-14
8.37698e-14
8.40243e-14
8.42618e-14
8.44827e-14
8.46874e-14
8.48765e-14
8.50502e-14
8.52092e-14
8.53536e-14
8.54839e-14
8.56005e-14
8.57037e-14
8.57938e-14
8.58712e-14
8.59361e-14
8.59889e-14
8.60298e-14
8.6059e-14
8.6077e-14
8.60838e-14
8.60798e-14
8.60651e-14
8.604e-14
8.60048e-14
8.59595e-14
8.59045e-14
8.58399e-14
8.57659e-14
8.56827e-14
8.55904e-14
8.54893e-14
8.53794e-14
8.5261e-14
8.51343e-14
8.49992e-14
8.48561e-14
8.47051e-14
8.45462e-14
8.43797e-14
8.42056e-14
8.40242e-14
8.38354e-14
8.36395e-14
8.34366e-14
8.32269e-14
8.30103e-14
8.2787e-14
8.25573e-14
8.2321e-14
8.20785e-14
8.18298e-14
8.15749e-14
8.13141e-14
8.10474e-14
8.07749e-14
8.04968e-14
8.02131e-14
7.99239e-14
7.96293e-14
7.93295e-14
7.90246e-14
7.87145e-14
7.83995e-14
7.80797e-14
7.77551e-14
7.74258e-14
7.70919e-14
7.67536e-14
7.64108e-14
7.60638e-14
7.57126e-14
7.53573e-14
7.4998e-14
7.46348e-14
7.42677e-14
7.38969e-14
7.35225e-14
7.31445e-14
7.27631e-14
7.23783e-14
7.19902e-14
7.15989e-14
7.12046e-14
7.08072e-14
7.04069e-14
7.00037e-14
6.95978e-14
6.91893e-14
6.87781e-14
6.83645e-14
6.79485e-14
6.75302e-14
6.71096e-14
6.66869e-14
6.62621e-14
6.58353e-14
6.54066e-14
6.49761e-14
6.45438e-14
6.41099e-14
6.36745e-14
6.32375e-14
6.27991e-14
6.23594e-14
6.19184e-14
6.14762e-14
6.1033e-14
6.05887e-14
6.01434e-14
5.96973e-14
5.92503e-14
5.88027e-14
5.83544e-14
5.79055e-14
5.74561e-14
5.70062e-14
5.6556e-14
5.61055e-14
5.56548e-14
5.52039e-14
5.47529e-14
5.43019e-14
5.3851e-14
5.34001e-14
5.29494e-14
5.2499e-14
5.20488e-14
5.15991e-14
5.11497e-14
5.07009e-14
5.02526e-14
4.98049e-14
4.93578e-14
4.89115e-14
4.8466e-14
4.80213e-14
4.75775e-14
4.71347e-14
4.66928e-14
4.6252e-14
4.58124e-14
4.53738e-14
4.49365e-14
4.45005e-14
4.40658e-14
4.36324e-14
4.32004e-14
4.27699e-14
4.23409e-14
4.19134e-14
4.14875e-14
4.10633e-14
4.06407e-14
4.02198e-14
3.98007e-14
3.93833e-14
3.89678e-14
3.85542e-14
3.81425e-14
3.77327e-14
3.73249e-14
3.69191e-14
3.65153e-14
3.61137e-14
3.57141e-14
3.53167e-14
3.49215e-14
3.45284e-14
3.41376e-14
3.37491e-14
3.33628e-14
3.29789e-14
3.25973e-14
3.22181e-14
3.18412e-14
3.14668e-14
3.10948e-14
3.07252e-14
3.03581e-14
2.99936e-14
2.96315e-14
2.9272e-14
2.8915e-14
2.85606e-14
2.82088e-14
2.78596e-14
2.7513e-14
2.7169e-14
2.68277e-14
2.6489e-14
2.6153e-14
2.58197e-14
2.54891e-14
2.51612e-14
2.4836e-14
2.45135e-14
2.41937e-14
2.38767e-14
2.35624e-14
2.32509e-14
2.29421e-14
2.26361e-14
2.23329e-14
2.20324e-14
2.17347e-14
2.14398e-14
2.11477e-14
2.08583e-14
2.05717e-14
2.0288e-14
2.0007e-14
1.97287e-14
1.94533e-14
1.91806e-14
1.89108e-14
1.86437e-14
1.83794e-14
1.81178e-14
1.7859e-14
1.7603e-14
1.73498e-14
1.70993e-14
1.68515e-14
1.66065e-14
1.63643e-14
1.61248e-14
1.5888e-14
1.56539e-14
1.54226e-14
1.51939e-14
1.4968e-14
1.47447e-14
1.45242e-14
1.43063e-14
1.4091e-14
1.38785e-14
1.36685e-14
1.34612e-14
1.32566e-14
1.30545e-14
1.28551e-14
1.26583e-14
1.2464e-14
1.22723e-14
1.20832e-14
1.18966e-14
1.17126e-14
1.15311e-14
1.13521e-14
1.11756e-14
1.10016e-14
1.08301e-14
1.06611e-14
1.04945e-14
1.03303e-14
1.01686e-14
1.00093e-14
9.85241e-15
9.6979e-15
9.54578e-15
9.39602e-15
9.24861e-15
9.10355e-15
8.96081e-15
8.82038e-15
8.68226e-15
8.54642e-15
8.41285e-15
8.28155e-15
8.1525e-15
8.02568e-15
7.90108e-15
7.7787e-15
7.65851e-15
7.5405e-15
7.42467e-15
7.31099e-15
7.19946e-15
7.09006e-15
6.98278e-15
6.87761e-15
6.77454e-15
6.67355e-15
6.57464e-15
6.47778e-15
6.38297e-15
6.2902e-15
6.19945e-15
6.11072e-15
6.02399e-15
5.93925e-15
5.85649e-15
5.7757e-15
5.69687e-15
5.61998e-15
5.54504e-15
5.47202e-15
5.40092e-15
5.33173e-15
5.26444e-15
5.19904e-15
5.13552e-15
5.07387e-15
5.01408e-15
4.95614e-15
4.90006e-15
4.8458e-15
4.79338e-15
4.74278e-15
4.694e-15
4.64702e-15
4.60185e-15
4.55846e-15
4.51687e-15
4.47705e-15
4.43901e-15
4.40274e-15
4.36823e-15
4.33548e-15
4.30448e-15
4.27523e-15
4.24773e-15
4.22196e-15
4.19793e-15
4.17564e-15
4.15507e-15
4.13622e-15
4.1191e-15
4.1037e-15
4.09001e-15
4.07804e-15
4.06778e-15
4.05924e-15
4.0524e-15
4.04728e-15
4.04387e-15
4.04216e-15
1.27327e-15
3.81731e-15
6.35386e-15
8.87806e-15
1.13852e-14
1.38709e-14
1.63309e-14
1.87614e-14
2.11587e-14
2.35196e-14
2.58411e-14
2.81205e-14
3.03556e-14
3.25443e-14
3.46848e-14
3.67757e-14
3.88157e-14
4.0804e-14
4.27397e-14
4.46225e-14
4.64519e-14
4.82279e-14
4.99506e-14
5.16201e-14
5.32368e-14
5.48013e-14
5.6314e-14
5.77758e-14
5.91873e-14
6.05495e-14
6.18632e-14
6.31295e-14
6.43493e-14
6.55237e-14
6.66538e-14
6.77407e-14
6.87855e-14
6.97892e-14
7.07531e-14
7.16783e-14
7.25657e-14
7.34166e-14
7.42321e-14
7.50131e-14
7.57607e-14
7.6476e-14
7.71599e-14
7.78134e-14
7.84375e-14
7.90331e-14
7.96011e-14
8.01423e-14
8.06577e-14
8.11479e-14
8.16138e-14
8.20561e-14
8.24756e-14
8.2873e-14
8.32489e-14
8.3604e-14
8.39389e-14
8.42543e-14
8.45507e-14
8.48286e-14
8.50886e-14
8.53312e-14
8.55569e-14
8.57662e-14
8.59595e-14