/*--------------------------------*- C++ -*----------------------------------*\
  =========                 |
  \\      /  F ield         | OpenFOAM: The Open Source CFD Toolbox
   \\    /   O peration     | Website:  https://openfoam.org
    \\  /    A nd           | Version:  10
     \\/     M anipulation  |
\*---------------------------------------------------------------------------*/
FoamFile
{
    format      ascii;
    class       volScalarField;
    location    "6.5";
    object      Ma;
}
// * * * * * * * * * * * * * * * * * * * * * * * * * * * * * * * * * * * * * //

dimensions      [0 0 0 0 0 0 0];

internalField   nonuniform List<scalar> 
5250
(
3
2.99996
2.9999
2.99972
2.99934
2.99823
2.996
2.98914
2.9754
2.93494
2.84448
2.60653
2.0821
1.15191
0.481459
0.297974
0.330678
0.336575
0.304193
0.250794
0.200423
0.159358
0.118621
0.0736834
0.0403436
3
2.99997
2.99989
2.99975
2.9993
2.99838
2.99577
2.9899
2.97461
2.93764
2.84432
2.61382
2.09185
1.16695
0.489966
0.298434
0.332283
0.339017
0.306917
0.254347
0.205233
0.165592
0.127061
0.0873006
0.0633026
3
2.99997
2.9999
2.99974
2.99934
2.9984
2.99589
2.99034
2.9748
2.94056
2.84751
2.62608
2.11463
1.20099
0.509427
0.301207
0.337579
0.34642
0.315349
0.264951
0.218721
0.182441
0.148756
0.117182
0.101042
3
2.99997
2.99991
2.99974
2.99942
2.99835
2.99638
2.99011
2.97737
2.94092
2.8576
2.64017
2.15192
1.25491
0.539445
0.30608
0.346498
0.358721
0.329311
0.281986
0.239505
0.207403
0.179033
0.154203
0.142374
3
2.99997
2.99991
2.99977
2.99942
2.99852
2.9965
2.99084
2.97881
2.94437
2.86721
2.66261
2.20062
1.33054
0.580112
0.31434
0.359531
0.375918
0.348449
0.304662
0.266016
0.238162
0.214799
0.195313
0.186287
3
2.99997
2.99992
2.99979
2.99947
2.99867
2.99668
2.99197
2.97953
2.95102
2.87541
2.69339
2.26071
1.43083
0.632128
0.329053
0.378261
0.39888
0.373327
0.333287
0.298439
0.274727
0.256126
0.241514
0.235531
3
2.99998
2.99993
2.99981
2.99951
2.99883
2.99691
2.99296
2.9812
2.95663
2.88731
2.72607
2.33192
1.55528
0.696655
0.35613
0.406128
0.429296
0.405215
0.368606
0.337147
0.317519
0.303926
0.294926
0.293788
3
2.99998
2.99994
2.99982
2.9996
2.99886
2.99751
2.99321
2.98454
2.95961
2.90374
2.75599
2.41201
1.70168
0.773375
0.398994
0.445837
0.467669
0.444743
0.411484
0.383047
0.367464
0.359482
0.358107
0.367025
3
2.99999
2.99994
2.99986
2.99959
2.9991
2.99754
2.99439
2.98534
2.96529
2.91181
2.7842
2.46795
1.80704
0.843529
0.433284
0.476524
0.496917
0.482214
0.456112
0.433767
0.423967
0.423622
0.43547
0.466679
3
2.99999
2.99996
2.99986
2.99968
2.99909
2.99803
2.99452
2.98783
2.96743
2.92366
2.8043
2.52393
1.90942
0.947862
0.495486
0.499002
0.514435
0.514092
0.49841
0.485999
0.484371
0.498048
0.537255
0.637122
3
2.99999
2.99996
2.99988
2.99972
2.9992
2.99826
2.99517
2.98922
2.97127
2.93253
2.82715
2.57777
2.01695
1.08004
0.570675
0.513963
0.531177
0.541569
0.537709
0.536348
0.546833
0.581232
0.660337
0.822329
3
2.99999
2.99996
2.99991
2.99973
2.99938
2.99835
2.99612
2.99012
2.97596
2.94027
2.85189
2.63157
2.13246
1.24043
0.659527
0.531059
0.549469
0.567547
0.574314
0.583442
0.607284
0.659195
0.758693
0.926565
3
2.99999
2.99997
2.99992
2.99979
2.99944
2.99868
2.99653
2.99206
2.97889
2.95108
2.87342
2.69153
2.25649
1.43581
0.765099
0.559685
0.575969
0.596672
0.610681
0.628122
0.662004
0.722681
0.821046
0.96257
3
3
2.99998
2.99994
2.99981
2.99957
2.99885
2.99734
2.99314
2.98357
2.95894
2.89922
2.74886
2.39322
1.67349
0.889091
0.610829
0.617336
0.633773
0.651094
0.672059
0.709278
0.770109
0.859282
0.977854
3
3
2.99998
2.99995
2.99985
2.99966
2.99906
2.99789
2.99442
2.98701
2.96682
2.92017
2.79969
2.51414
1.90292
1.0259
0.674563
0.662287
0.675735
0.694037
0.715391
0.75131
0.807953
0.88654
0.988169
3.00001
3
2.99999
2.99996
2.99989
2.99971
2.99929
2.99822
2.99561
2.98938
2.97315
2.93557
2.83749
2.60247
2.07554
1.19581
0.755244
0.696925
0.710991
0.730154
0.754315
0.788732
0.840263
0.909623
0.99717
3.00001
3
2.99999
2.99997
2.99992
2.99976
2.99946
2.99853
2.99663
2.99128
2.97921
2.9478
2.87207
2.68118
2.24383
1.42911
0.869228
0.730167
0.740107
0.759635
0.787149
0.821489
0.868535
0.930012
1.00588
3.00001
3
3
2.99998
2.99993
2.99983
2.99956
2.99893
2.99724
2.99366
2.98323
2.96144
2.90011
2.75931
2.41253
1.71808
1.0108
0.781451
0.774694
0.789965
0.818058
0.852223
0.894958
0.949185
1.01514
3.00001
3
3
2.99998
2.99995
2.99986
2.99969
2.99913
2.99812
2.99477
2.98849
2.96924
2.92865
2.81811
2.56279
2.00172
1.18129
0.851481
0.815055
0.826254
0.850568
0.882786
0.920777
0.96826
1.02558
3.00001
3.00001
3
2.99999
2.99996
2.99991
2.99974
2.99942
2.9984
2.99645
2.99053
2.97816
2.94388
2.86529
2.66314
2.21264
1.40722
0.949163
0.85211
0.858956
0.879726
0.910021
0.945072
0.987141
1.03728
3.00001
3.00001
3
3
2.99997
2.99993
2.99981
2.99956
2.99886
2.99728
2.99326
2.98344
2.95966
2.89992
2.75386
2.40742
1.71292
1.08992
0.902412
0.892728
0.906627
0.93409
0.96858
1.00654
1.05063
3.00001
3.00001
3
3
2.99999
2.99995
2.99988
2.99966
2.99924
2.99798
2.99533
2.9881
2.97162
2.92942
2.8281
2.58045
2.04554
1.2773
0.976111
0.931276
0.93852
0.960884
0.992379
1.02667
1.06552
3.00001
3.00001
3
3
2.99999
2.99997
2.99991
2.99976
2.99946
2.99852
2.99679
2.99114
2.98045
2.94816
2.87871
2.69404
2.28538
1.53186
1.0812
0.971356
0.969896
0.986008
1.01444
1.04715
1.08205
3.00001
3.00001
3.00001
3
3
2.99998
2.99994
2.99984
2.99961
2.99903
2.99761
2.99426
2.98557
2.96589
2.91403
2.79274
2.49789
1.88781
1.24008
1.02908
1.00471
1.01425
1.03771
1.06855
1.10037
3.00001
3.00001
3.00001
3
3
2.99999
2.99996
2.99989
2.99974
2.99932
2.99838
2.996
2.99024
2.97643
2.94134
2.85853
2.65244
2.19571
1.45571
1.1103
1.04167
1.04417
1.06173
1.08936
1.11958
3.00001
3.00001
3.00001
3.00001
3
2.99999
2.99998
2.99993
2.99983
2.99952
2.99894
2.99718
2.99357
2.98349
2.96096
2.90251
2.76352
2.43248
1.77808
1.24549
1.08993
1.07513
1.08542
1.10894
1.13883
3.00001
3.00001
3.00001
3.00001
3
3
2.99999
2.99995
2.99989
2.99969
2.9993
2.99811
2.99589
2.98875
2.97529
2.93497
2.84822
2.62528
2.1444
1.44925
1.16671
1.11304
1.11437
1.13129
1.15653
3.00001
3.00001
3.00001
3.00001
3.00001
3
2.99999
2.99997
2.99992
2.99981
2.99951
2.99882
2.99712
2.99289
2.98319
2.95744
2.89951
2.74975
2.41074
1.7536
1.28909
1.15705
1.14334
1.15203
1.17275
3.00001
3.00001
3.00001
3.00001
3.00001
3
3
2.99999
2.99995
2.99989
2.99967
2.99929
2.99807
2.9957
2.98879
2.97414
2.93489
2.84486
2.62282
2.14059
1.48488
1.22804
1.17942
1.17862
1.19283
3.00001
3.00001
3.00001
3.00001
3.00001
3.00001
3
2.99999
2.99997
2.99992
2.99981
2.99949
2.99889
2.99693
2.99339
2.98221
2.95992
2.89726
2.75684
2.41737
1.7824
1.34353
1.22025
1.20553
1.21254
3.00001
3.00001
3.00001
3.00001
3.00001
3.00001
3
3
2.99999
2.99996
2.99988
2.99971
2.99922
2.9983
2.99538
2.99004
2.97324
2.93993
2.84694
2.64089
2.17139
1.54226
1.29076
1.24122
1.23823
3.00001
3.00001
3.00001
3.00001
3.00001
3.00001
3.00001
3
2.99999
2.99997
2.99993
2.99982
2.99952
2.99893
2.99711
2.99376
2.98313
2.96259
2.90333
2.77326
2.45489
1.85275
1.41087
1.28187
1.26419
3.00001
3.00001
3.00001
3.00001
3.00001
3.00001
3.00001
3
3
2.99999
2.99996
2.99988
2.99974
2.99928
2.99841
2.99584
2.99053
2.97607
2.94359
2.86124
2.66972
2.23561
1.62153
1.35922
1.30224
3.00001
3.00001
3.00001
3.00001
3.00001
3.00001
3.00001
3.00001
3
3
2.99998
2.99994
2.99983
2.99961
2.99894
2.99771
2.99376
2.98647
2.96432
2.91865
2.79627
2.52414
1.96814
1.4994
1.34819
3.00001
3.00001
3.00001
3.00001
3.00001
3.00001
3.00001
3.00001
3
3
2.99999
2.99996
2.99991
2.99975
2.99942
2.99852
2.99652
2.99155
2.97945
2.95098
2.88
2.71364
2.33198
1.73539
1.43772
3.00001
3.00001
3.00001
3.00001
3.00001
3.00001
3.00001
3.00001
3.00001
3
3
2.99998
2.99994
2.99987
2.99964
2.99917
2.99794
2.9951
2.98825
2.97134
2.93213
2.8347
2.60998
2.13134
1.60718
3.00001
3.00001
3.00001
3.00001
3.00001
3.00001
3.00001
3.00001
3.00001
3
3
2.99999
2.99997
2.99992
2.99979
2.99953
2.99874
2.99727
2.99262
2.98406
2.95794
2.90459
2.76202
2.44986
1.87755
3.00001
3.00001
3.00001
3.00001
3.00001
3.00001
3.00001
3.00001
3.00001
3.00001
3
3
2.99999
2.99996
2.99989
2.99971
2.99934
2.99825
2.99622
2.98984
2.97788
2.94261
2.86842
2.679
2.27125
3.00001
3.00001
3.00001
3.00001
3.00001
3.00001
3.00001
3.00001
3.00001
3.00001
3.00001
3
2.99999
2.99998
2.99993
2.99985
2.99959
2.99907
2.99764
2.99448
2.98665
2.96773
2.92327
2.81441
2.56344
3.00001
3.00001
3.00001
3.00001
3.00001
3.00001
3.00001
3.00001
3.00001
3.00001
3.00001
3
3
2.99999
2.99997
2.99991
2.99976
2.99946
2.99857
2.99688
2.99165
2.98192
2.95252
2.89254
2.73427
3.00001
3.00001
3.00001
3.00001
3.00001
3.00001
3.00001
3.00001
3.00001
3.00001
3.00001
3.00001
3
3
2.99998
2.99994
2.99986
2.99963
2.99918
2.99781
2.99528
2.98727
2.97214
2.9278
2.83327
3.00001
3.00001
3.00001
3.00001
3.00001
3.00001
3.00001
3.00001
3.00001
3.00001
3.00001
3.00001
3
3
2.99999
2.99996
2.9999
2.99974
2.99937
2.99843
2.99619
2.99081
2.97701
2.94524
2.86274
3.00001
3.00001
3.00001
3.00001
3.00001
3.00001
3.00001
3.00001
3.00001
3.00001
3.00001
3.00001
3.00001
3
2.99999
2.99997
2.99992
2.99978
2.99944
2.99864
2.99651
2.99176
2.97843
2.94893
2.868
3.00001
3.00001
3.00001
3.00001
3.00001
3.00001
3.00001
3.00001
3.00001
3.00001
3.00001
3.00001
3.00001
3
2.99999
2.99997
2.99992
2.99978
2.9995
2.99859
2.9969
2.99122
2.98046
2.94674
2.8725
3.00001
3.00001
3.00001
3.00001
3.00001
3.00001
3.00001
3.00001
3.00001
3.00001
3.00001
3.00001
3.00001
3
2.99999
2.99997
2.99993
2.99979
2.99949
2.99869
2.99672
2.9919
2.97924
2.94913
2.86956
3.00001
3.00001
3.00001
3.00001
3.00001
3.00001
3.00001
3.00001
3.00001
3.00001
3.00001
3.00001
3.00001
3
2.99999
2.99997
2.99992
2.9998
2.99946
2.99876
2.99658
2.9923
2.97864
2.95043
2.86838
3.00001
3.00001
3.00001
3.00001
3.00001
3.00001
3.00001
3.00001
3.00001
3.00001
3.00001
3.00001
3.00001
3
2.99999
2.99997
2.99993
2.99979
2.99953
2.99863
2.99701
2.99146
2.98072
2.94772
2.87331
3.00001
3.00001
3.00001
3.00001
3.00001
3.00001
3.00001
3.00001
3.00001
3.00001
3.00001
3.00001
3.00001
3
3
2.99997
2.99993
2.99979
2.99953
2.99867
2.99695
2.99179
2.98043
2.94897
2.87353
3.00001
3.00001
3.00001
3.00001
3.00001
3.00001
3.00001
3.00001
3.00001
3.00001
3.00001
3.00001
3.00001
3
2.99999
2.99997
2.99993
2.9998
2.99952
2.99869
2.99701
2.9917
2.98104
2.94856
2.8756
3.00001
3.00001
3.00001
3.00001
3.00001
3.00001
3.00001
3.00001
3.00001
3.00001
3.00001
3.00001
3.00001
3
2.99999
2.99998
2.99992
2.99981
2.99949
2.99877
2.99686
2.99213
2.9804
2.95005
2.87447
1.04716
1.01944
0.532289
0.207439
0.147042
0.265033
0.353995
0.39332
0.415621
0.4434
0.480293
0.516469
0.548017
0.576907
0.606932
0.638404
0.669776
0.698922
0.724916
0.749774
0.776337
0.799353
0.812604
0.818835
0.818884
0.806713
0.777796
0.734666
0.682802
0.626612
0.57033
0.514982
0.462226
0.411675
0.364573
0.320179
0.278485
0.238978
0.200914
0.164345
0.129459
0.0961771
0.0645837
0.035829
0.0172092
0.0345541
0.0604998
0.0864242
0.111429
0.135591
0.158857
0.180721
0.202042
0.223875
0.245757
0.266679
0.287018
0.306663
0.325918
0.344704
0.363141
0.381174
0.398914
0.416306
0.43342
0.450231
0.466823
0.483133
0.499242
0.515103
0.530807
0.54628
0.561614
0.576749
0.591765
0.606618
0.621346
0.635929
0.65039
0.664723
0.678927
0.693007
0.706934
0.72075
0.734397
0.747931
0.76128
0.774498
0.787509
0.800359
0.81296
0.825336
0.837348
0.849002
0.86007
0.870482
0.879842
0.887947
0.89398
0.898475
1.04147
0.996886
0.772169
0.489871
0.400091
0.29695
0.177718
0.0729373
0.102041
0.179146
0.247277
0.295547
0.328707
0.356197
0.387019
0.421967
0.457137
0.49013
0.51907
0.546114
0.573936
0.600632
0.616636
0.622156
0.619434
0.603644
0.569804
0.522001
0.465772
0.407475
0.350597
0.296322
0.245455
0.197789
0.154694
0.115211
0.0804482
0.0539445
0.044104
0.0584346
0.0829811
0.109505
0.135973
0.16154
0.186052
0.209792
0.233444
0.256565
0.279172
0.301038
0.322213
0.342213
0.361506
0.381159
0.40101
0.420116
0.438562
0.45645
0.473975
0.491081
0.507907
0.524345
0.540545
0.556369
0.571998
0.587285
0.602408
0.617221
0.631897
0.646306
0.660595
0.674661
0.688613
0.702386
0.716048
0.729559
0.742964
0.756238
0.769405
0.782459
0.795388
0.808226
0.820914
0.833525
0.845968
0.858333
0.870516
0.882614
0.894502
0.906286
0.917811
0.92918
0.940185
0.95091
0.961078
0.970726
0.979457
0.987044
0.992634
0.996646
1.0482
1.0575
0.982217
0.830189
0.730354
0.649223
0.551158
0.45046
0.35114
0.263534
0.18648
0.114424
0.0597717
0.0842858
0.134011
0.180883
0.221505
0.25745
0.28746
0.313177
0.339429
0.366769
0.386387
0.390534
0.383398
0.362548
0.327145
0.277536
0.22414
0.174452
0.131704
0.101434
0.0891919
0.096381
0.116181
0.14165
0.168778
0.195647
0.221478
0.246449
0.271219
0.295272
0.318573
0.340993
0.362507
0.3833
0.403609
0.423508
0.442947
0.461906
0.480321
0.497778
0.514539
0.531419
0.548717
0.565649
0.581947
0.597787
0.613286
0.628534
0.643506
0.65826
0.672757
0.687053
0.701111
0.714984
0.728647
0.742156
0.755476
0.768668
0.781676
0.794574
0.807288
0.81991
0.832357
0.844738
0.856945
0.869114
0.881097
0.893059
0.904818
0.916563
0.928094
0.939604
0.950905
0.962162
0.973225
0.984213
0.995016
1.00569
1.01618
1.02646
1.03652
1.04625
1.05573
1.06455
1.07274
1.0796
1.08491
1.08819
1.06654
1.10863
1.09653
1.03148
0.955071
0.886662
0.81347
0.733773
0.655418
0.581016
0.509839
0.439772
0.37053
0.30295
0.243362
0.190316
0.14192
0.0981115
0.064976
0.0577057
0.078656
0.104071
0.130777
0.137785
0.111137
0.0936948
0.0836601
0.106152
0.138868
0.17219
0.207407
0.240336
0.270284
0.297039
0.322875
0.347913
0.37196
0.394904
0.416702
0.43754
0.457823
0.47748
0.496597
0.514961
0.532759
0.549933
0.56677
0.583215
0.599344
0.61511
0.630524
0.645122
0.65909
0.672944
0.68738
0.701727
0.715685
0.729092
0.742355
0.755266
0.76817
0.780749
0.793348
0.805635
0.817945
0.829992
0.842069
0.853936
0.865825
0.877529
0.889248
0.900802
0.912381
0.923818
0.935287
0.946632
0.957994
0.969234
0.980476
0.991579
1.00269
1.01362
1.02458
1.0353
1.0461
1.05659
1.0672
1.07741
1.08781
1.0977
1.10786
1.11746
1.12736
1.13649
1.14577
1.15395
1.162
1.16836
1.17369
1.17653
1.07733
1.136
1.15676
1.13881
1.09661
1.04953
0.997433
0.941178
0.880735
0.823224
0.76505
0.707186
0.648071
0.589953
0.534755
0.48359
0.435223
0.387969
0.341982
0.296528
0.255372
0.219015
0.188799
0.170523
0.185285
0.220491
0.268844
0.3212
0.368695
0.40785
0.440526
0.468271
0.492162
0.512964
0.532435
0.550804
0.568589
0.58536
0.601536
0.616885
0.631969
0.646542
0.660913
0.674749
0.688405
0.701567
0.7147
0.727478
0.740279
0.75277
0.765314
0.777143
0.78855
0.799687
0.81146
0.823434
0.835313
0.84674
0.85805
0.869097
0.880136
0.890996
0.901847
0.912526
0.92319
0.933701
0.944204
0.954567
0.964923
0.975156
0.985397
0.995541
1.00572
1.0158
1.02594
1.03598
1.0461
1.05609
1.06619
1.07614
1.08622
1.09609
1.10613
1.1159
1.12587
1.13553
1.1454
1.15497
1.16482
1.17436
1.18413
1.19346
1.20291
1.21183
1.22071
1.22887
1.23664
1.24325
1.24851
1.25169
1.08209
1.14722
1.18589
1.19509
1.18171
1.15755
1.1251
1.08811
1.04626
1.00313
0.959536
0.913927
0.867958
0.821053
0.776353
0.732171
0.689031
0.645943
0.603454
0.561529
0.522147
0.487503
0.458965
0.445615
0.449391
0.47346
0.512161
0.557603
0.601215
0.63804
0.66584
0.685961
0.701123
0.713374
0.724382
0.735138
0.745704
0.755925
0.765823
0.775385
0.784835
0.794164
0.803498
0.812711
0.82193
0.83103
0.840162
0.849273
0.858468
0.867678
0.877077
0.886168
0.894899
0.903448
0.912491
0.922029
0.931831
0.941404
0.950961
0.96034
0.969792
0.979157
0.988621
0.998032
1.00754
1.01699
1.02652
1.03597
1.04551
1.05496
1.0645
1.07396
1.08349
1.09293
1.10243
1.11187
1.12137
1.1308
1.1403
1.14969
1.15916
1.16849
1.17791
1.18716
1.19655
1.20577
1.21522
1.22442
1.23378
1.24281
1.25198
1.26077
1.26967
1.27808
1.28651
1.29426
1.30177
1.30813
1.31343
1.3164
1.08375
1.15039
1.19825
1.22503
1.23198
1.22598
1.21117
1.18966
1.16384
1.13425
1.10373
1.07067
1.03668
1.00111
0.965931
0.930778
0.895509
0.859487
0.821747
0.783521
0.744697
0.708533
0.678492
0.659052
0.65335
0.670927
0.709222
0.755834
0.800854
0.838509
0.866869
0.883468
0.890513
0.892416
0.89288
0.894262
0.896856
0.900039
0.903847
0.907764
0.912051
0.916486
0.921384
0.926457
0.932006
0.937654
0.943721
0.949906
0.956476
0.963193
0.970309
0.977368
0.984263
0.990933
0.997931
1.00546
1.01348
1.02151
1.02959
1.03759
1.04563
1.05368
1.06181
1.06999
1.07824
1.08653
1.09487
1.10326
1.11171
1.12021
1.12878
1.13738
1.14607
1.15476
1.16359
1.17236
1.1813
1.1901
1.19912
1.20793
1.21698
1.22578
1.23489
1.24378
1.253
1.26192
1.27111
1.27997
1.28909
1.29787
1.30688
1.3155
1.32429
1.33263
1.34101
1.34879
1.35634
1.36292
1.36841
1.37165
1.08525
1.14982
1.20195
1.23873
1.2598
1.26785
1.26672
1.25827
1.24535
1.22783
1.20858
1.1866
1.16304
1.13778
1.11142
1.08495
1.05672
1.02762
0.9943
0.958543
0.920849
0.885033
0.849824
0.816175
0.802131
0.820447
0.859577
0.907864
0.956295
0.994842
1.02393
1.04351
1.04904
1.04393
1.03454
1.02578
1.01952
1.01551
1.01372
1.01311
1.01367
1.01482
1.01656
1.01883
1.0216
1.02477
1.02844
1.03245
1.03692
1.04169
1.04691
1.05236
1.05783
1.0631
1.06858
1.07453
1.08115
1.088
1.09505
1.10207
1.10922
1.11635
1.12367
1.13098
1.13852
1.14603
1.15376
1.16144
1.16933
1.17715
1.18517
1.19311
1.20125
1.2093
1.21755
1.22573
1.23409
1.24238
1.25085
1.25922
1.26779
1.27632
1.28501
1.29355
1.30223
1.31074
1.31939
1.32784
1.33644
1.3448
1.3533
1.36154
1.36988
1.37796
1.38601
1.39372
1.40111
1.40787
1.41345
1.41701
1.08812
1.14888
1.2018
1.2437
1.27355
1.2919
1.30137
1.30329
1.30018
1.29299
1.28283
1.27058
1.25563
1.23974
1.22109
1.20236
1.18032
1.15616
1.12539
1.09157
1.05555
1.01541
0.966158
0.920275
0.90661
0.927604
0.967019
1.01491
1.06562
1.10742
1.13718
1.15871
1.17056
1.17101
1.16111
1.14633
1.13174
1.11966
1.11092
1.10501
1.10151
1.09946
1.0986
1.09836
1.09869
1.09954
1.10095
1.10272
1.10513
1.10788
1.11125
1.11499
1.11909
1.12299
1.12706
1.13144
1.13657
1.14212
1.14807
1.15413
1.1604
1.16671
1.17322
1.17979
1.18658
1.19345
1.20051
1.20766
1.21498
1.22238
1.22994
1.23756
1.24533
1.25311
1.26106
1.26896
1.27704
1.28502
1.29322
1.30136
1.30969
1.31785
1.32623
1.33443
1.34286
1.3511
1.35954
1.36782
1.37621
1.38446
1.39274
1.40089
1.40898
1.41693
1.42473
1.43229
1.43953
1.44616
1.45182
1.45525
1.09265
1.14872
1.20042
1.24445
1.27944
1.3047
1.32199
1.33203
1.33677
1.33734
1.33471
1.33001
1.32247
1.31376
1.30227
1.28913
1.27248
1.24975
1.2216
1.18966
1.15098
1.10006
1.03225
0.983592
0.978205
1.00223
1.04002
1.08989
1.14327
1.18863
1.22041
1.24161
1.25695
1.26501
1.26383
1.2539
1.23726
1.21817
1.20106
1.18713
1.17725
1.1702
1.16584
1.16277
1.16095
1.15971
1.15915
1.15916
1.15976
1.16093
1.16273
1.1651
1.16805
1.17112
1.17425
1.17762
1.18158
1.18617
1.19125
1.1966
1.20221
1.20793
1.21386
1.21989
1.22614
1.23249
1.23906
1.24571
1.25258
1.2595
1.26665
1.27382
1.28124
1.28866
1.29635
1.30399
1.31191
1.3198
1.32788
1.33582
1.34395
1.35193
1.36009
1.36811
1.37627
1.38433
1.39251
1.40059
1.4088
1.4169
1.42512
1.43317
1.44134
1.44925
1.4572
1.46479
1.47222
1.47896
1.48486
1.48842
1.09967
1.15053
1.19972
1.24361
1.28113
1.31083
1.3334
1.34961
1.3604
1.36711
1.37054
1.37134
1.37009
1.36667
1.36057
1.35171
1.33682
1.31562
1.2888
1.25612
1.20839
1.13667
1.05831
1.02114
1.02648
1.05184
1.09179
1.14335
1.19625
1.24089
1.27563
1.2994
1.3157
1.32684
1.33205
1.33091
1.32322
1.30755
1.28702
1.2665
1.24878
1.23496
1.22516
1.21835
1.21391
1.21089
1.20894
1.2077
1.20712
1.20709
1.20771
1.20892
1.21086
1.2132
1.21578
1.21835
1.2214
1.225
1.22931
1.23393
1.23897
1.24414
1.24964
1.25519
1.26105
1.26696
1.27319
1.27947
1.28604
1.29265
1.29954
1.30645
1.31362
1.32081
1.32823
1.33567
1.34331
1.35087
1.3586
1.36628
1.37411
1.3819
1.38982
1.3977
1.40567
1.41359
1.42158
1.42951
1.43748
1.44541
1.45335
1.46124
1.46911
1.47692
1.48464
1.49223
1.49953
1.50642
1.51237
1.51617
1.10905
1.15482
1.2006
1.24322
1.28116
1.31338
1.33943
1.35979
1.37532
1.3865
1.39465
1.39997
1.40299
1.40356
1.40124
1.39373
1.37839
1.35831
1.3308
1.29014
1.22485
1.13121
1.06055
1.04476
1.05918
1.08622
1.12934
1.18127
1.2301
1.27212
1.30706
1.33443
1.35473
1.36845
1.37767
1.38264
1.38313
1.37797
1.36561
1.3466
1.32489
1.30434
1.28709
1.27391
1.26449
1.25816
1.25395
1.25124
1.2494
1.24835
1.2479
1.24805
1.24886
1.25029
1.25222
1.25424
1.25652
1.25922
1.26269
1.26669
1.27117
1.27594
1.28101
1.28628
1.29179
1.29747
1.30339
1.30945
1.31575
1.32217
1.32886
1.33562
1.34267
1.34976
1.35712
1.36442
1.37191
1.37934
1.38695
1.39449
1.40219
1.40983
1.4176
1.42533
1.43315
1.44094
1.4488
1.45663
1.46449
1.47232
1.48016
1.48792
1.49569
1.50332
1.51093
1.51831
1.52556
1.53225
1.53826
1.54189
1.12077
1.16188
1.20376
1.24409
1.28133
1.31412
1.34245
1.36535
1.38427
1.39892
1.4105
1.41916
1.4254
1.42835
1.42723
1.41806
1.40275
1.38082
1.34794
1.29023
1.1963
1.10182
1.06144
1.06253
1.08049
1.11309
1.15825
1.20628
1.25015
1.2887
1.32221
1.35077
1.37444
1.39323
1.40668
1.41553
1.42087
1.42265
1.42001
1.41144
1.39553
1.37468
1.35275
1.33279
1.31642
1.30439
1.29593
1.29053
1.28701
1.28493
1.28366
1.28314
1.28315
1.28378
1.28507
1.2867
1.28855
1.29056
1.29318
1.29643
1.30037
1.30462
1.30932
1.31419
1.3194
1.32473
1.33036
1.33609
1.34211
1.34822
1.35463
1.36113
1.36794
1.37478
1.38184
1.3889
1.39617
1.40341
1.41085
1.41827
1.42584
1.43339
1.44103
1.44868
1.45637
1.46407
1.4718
1.47952
1.48727
1.49499
1.50273
1.51043
1.51811
1.52574
1.53327
1.54071
1.5479
1.55474
1.56076
1.56462
1.13482
1.17155
1.20939
1.24683
1.28253
1.3149
1.34378
1.36865
1.38931
1.40666
1.4206
1.43144
1.4395
1.44304
1.43918
1.42784
1.41136
1.3831
1.33384
1.24663
1.14029
1.07612
1.06458
1.07556
1.09831
1.13527
1.17936
1.22143
1.25983
1.29478
1.32656
1.35525
1.38073
1.40291
1.42134
1.43585
1.4455
1.45139
1.45488
1.45476
1.44987
1.43853
1.42071
1.39914
1.37793
1.35891
1.34412
1.33326
1.3262
1.32165
1.31906
1.31756
1.3169
1.31685
1.31738
1.31849
1.32004
1.32165
1.32362
1.32605
1.32931
1.33309
1.33738
1.34195
1.34689
1.35201
1.35744
1.36302
1.36891
1.37494
1.38127
1.38775
1.39448
1.4012
1.40814
1.41507
1.42217
1.42928
1.4365
1.44375
1.45108
1.45845
1.46588
1.47333
1.48086
1.48837
1.49596
1.50349
1.5111
1.51862
1.5262
1.5337
1.54119
1.54862
1.55596
1.56322
1.57026
1.57695
1.58291
1.58669
1.15069
1.18327
1.21744
1.25163
1.28522
1.31659
1.3452
1.37067
1.39295
1.41129
1.42726
1.43887
1.44706
1.44761
1.4401
1.42669
1.40336
1.35973
1.2806
1.17138
1.09034
1.06622
1.07137
1.08602
1.11436
1.15292
1.19199
1.22842
1.26227
1.2942
1.32432
1.3527
1.37909
1.40325
1.42481
1.44354
1.45897
1.47035
1.47767
1.48191
1.48412
1.48256
1.47563
1.46212
1.44274
1.42135
1.40062
1.3833
1.36977
1.3606
1.35455
1.35118
1.34925
1.3485
1.3484
1.3489
1.35
1.35136
1.35294
1.35471
1.35716
1.36027
1.3641
1.36828
1.37292
1.37776
1.38294
1.38827
1.39392
1.3997
1.40584
1.41205
1.41848
1.42499
1.43168
1.43843
1.44536
1.45232
1.45944
1.46656
1.47381
1.48104
1.48838
1.49571
1.50311
1.51051
1.51797
1.52542
1.5329
1.54037
1.54782
1.55527
1.56263
1.56999
1.5772
1.58437
1.59127
1.59786
1.60374
1.60749
1.16725
1.19629
1.22695
1.25818
1.28927
1.31922
1.34717
1.37245
1.39523
1.4145
1.43043
1.44231
1.44692
1.44271
1.4317
1.4117
1.37344
1.30206
1.19336
1.10142
1.06625
1.06562
1.07633
1.09836
1.13034
1.16504
1.19833
1.22993
1.2603
1.28992
1.3187
1.34667
1.37335
1.39863
1.42209
1.44353
1.46257
1.4789
1.49205
1.50113
1.50705
1.51073
1.51226
1.50942
1.50069
1.4849
1.46514
1.44388
1.42445
1.40823
1.39647
1.38847
1.38383
1.38127
1.38027
1.38016
1.38074
1.38181
1.38327
1.38473
1.3866
1.38892
1.39211
1.3958
1.40004
1.40456
1.40947
1.41457
1.42002
1.42567
1.43161
1.43763
1.44391
1.45025
1.4568
1.46339
1.47016
1.47696
1.4839
1.49087
1.49795
1.50503
1.51221
1.51937
1.52662
1.53382
1.54111
1.54835
1.55563
1.5629
1.57014
1.5774
1.58456
1.59174
1.59875
1.60575
1.61247
1.61889
1.62464
1.6283
1.18341
1.21013
1.23795
1.26666
1.29539
1.3236
1.35044
1.37511
1.39739
1.41655
1.43166
1.44023
1.43875
1.42946
1.41186
1.37809
1.31324
1.20755
1.1097
1.06609
1.06061
1.0682
1.08514
1.11181
1.14245
1.17203
1.20058
1.22855
1.25647
1.28433
1.31203
1.33939
1.366
1.39175
1.41625
1.43939
1.46082
1.48034
1.49756
1.51222
1.52328
1.531
1.53659
1.54
1.54065
1.53635
1.5254
1.50848
1.48774
1.46723
1.44861
1.43421
1.42378
1.4174
1.41379
1.4123
1.412
1.41257
1.41376
1.41507
1.41661
1.41834
1.42074
1.42378
1.4275
1.43159
1.43616
1.44099
1.4462
1.45159
1.45724
1.46302
1.46903
1.47513
1.48145
1.48784
1.49441
1.50103
1.5078
1.51459
1.5215
1.52843
1.53544
1.54247
1.54955
1.55664
1.56376
1.57088
1.578
1.58513
1.5922
1.5993
1.60629
1.61329
1.62012
1.6269
1.63343
1.63963
1.64521
1.64873
1.19957
1.22511
1.25038
1.27658
1.30314
1.32944
1.35481
1.37846
1.39956
1.41695
1.42932
1.43028
1.42226
1.40721
1.37673
1.31684
1.21543
1.11535
1.06543
1.0557
1.0612
1.07444
1.09711
1.12428
1.15064
1.17597
1.20102
1.2265
1.25254
1.27911
1.30583
1.33256
1.35887
1.38471
1.40971
1.4338
1.45667
1.47825
1.49819
1.51638
1.53218
1.54535
1.55498
1.56234
1.56763
1.57055
1.5699
1.56373
1.5509
1.53249
1.51208
1.49183
1.47482
1.46158
1.45297
1.44766
1.44526
1.44455
1.44505
1.4462
1.44763
1.44905
1.4509
1.45319
1.45622
1.45973
1.46381
1.46824
1.47316
1.4783
1.48373
1.48929
1.4951
1.501
1.50712
1.5133
1.51967
1.52609
1.53265
1.53926
1.54596
1.55272
1.55954
1.5664
1.57329
1.58022
1.58713
1.59409
1.601
1.60794
1.6148
1.62169
1.62846
1.63522
1.64184
1.64835
1.65464
1.66056
1.66591
1.66927
1.21539
1.24037
1.26429
1.28832
1.31264
1.33697
1.36049
1.38248
1.40145
1.41552
1.41941
1.41286
1.39854
1.37039
1.31468
1.21808
1.11809
1.06419
1.05153
1.0557
1.06647
1.08608
1.11053
1.13396
1.15634
1.17839
1.20126
1.22502
1.24979
1.27512
1.301
1.3269
1.35289
1.3785
1.40376
1.42826
1.45211
1.47486
1.49669
1.51706
1.53601
1.55301
1.56752
1.57933
1.58816
1.59535
1.59998
1.60205
1.60014
1.59205
1.57728
1.55796
1.53731
1.51799
1.50213
1.49046
1.48321
1.47926
1.47781
1.47802
1.47911
1.4804
1.48189
1.48362
1.48596
1.48883
1.4923
1.49625
1.50072
1.50547
1.51057
1.51585
1.5214
1.52706
1.53296
1.53893
1.5451
1.55133
1.5577
1.56413
1.57066
1.57725
1.58388
1.59056
1.59726
1.60401
1.61073
1.61749
1.62419
1.63093
1.63758
1.64424
1.65078
1.6573
1.66364
1.66988
1.67585
1.68146
1.68646
1.68961
1.23118
1.2555
1.27886
1.30117
1.3236
1.34561
1.36694
1.38596
1.40132
1.40739
1.40222
1.38825
1.36158
1.30887
1.21649
1.11779
1.0623
1.04793
1.05108
1.06016
1.07783
1.10042
1.1219
1.14173
1.16136
1.1815
1.20291
1.22531
1.24896
1.27324
1.29829
1.32352
1.34903
1.37428
1.39946
1.4241
1.44834
1.47186
1.49472
1.51657
1.53742
1.5567
1.5746
1.59035
1.60368
1.61422
1.62268
1.62959
1.6334
1.63442
1.63098
1.62091
1.60407
1.58467
1.56382
1.54576
1.53097
1.52112
1.51499
1.51234
1.51172
1.51255
1.51387
1.51526
1.51704
1.51929
1.52214
1.5255
1.52941
1.53368
1.53837
1.54329
1.54853
1.55392
1.55955
1.56529
1.57121
1.57723
1.58337
1.58961
1.59592
1.60232
1.60874
1.61523
1.62171
1.62825
1.63475
1.6413
1.64777
1.65427
1.66066
1.66705
1.6733
1.67949
1.68549
1.69136
1.69693
1.70211
1.70665
1.70951
1.24966
1.27017
1.29346
1.31504
1.33536
1.35527
1.37353
1.38851
1.3954
1.39099
1.37699
1.35114
1.30042
1.21137
1.11478
1.05918
1.04403
1.04688
1.05553
1.07266
1.09451
1.11434
1.13229
1.14945
1.16725
1.1861
1.20641
1.22791
1.2506
1.27402
1.2982
1.32265
1.34751
1.3723
1.39718
1.42173
1.44617
1.47
1.49343
1.51602
1.53791
1.55881
1.57861
1.59694
1.61372
1.62837
1.6405
1.65041
1.65873
1.66461
1.66755
1.66745
1.6623
1.65012
1.63224
1.61198
1.59184
1.5745
1.56127
1.55253
1.54791
1.54602
1.54639
1.54755
1.54889
1.55053
1.55281
1.55562
1.55895
1.56269
1.56687
1.57136
1.57622
1.58128
1.5866
1.59208
1.59774
1.60351
1.60943
1.61544
1.62152
1.6277
1.6339
1.64018
1.64642
1.65274
1.65899
1.6653
1.67151
1.67774
1.68385
1.68994
1.69587
1.70172
1.70734
1.71278
1.71784
1.7225
1.7264
1.72884
1.26947
1.28586
1.30759
1.32792
1.34693
1.36391
1.37808
1.38516
1.38074
1.36623
1.3404
1.29032
1.20313
1.1088
1.05444
1.03945
1.04247
1.0518
1.06962
1.09123
1.11008
1.12655
1.14196
1.15775
1.17457
1.19278
1.2123
1.23304
1.25478
1.27737
1.30066
1.32441
1.34858
1.37287
1.39733
1.42163
1.44587
1.4697
1.49328
1.51629
1.53878
1.56059
1.58148
1.60153
1.62025
1.63767
1.65338
1.66686
1.67816
1.68759
1.69554
1.70027
1.70221
1.70067
1.69349
1.67931
1.66089
1.63982
1.62052
1.60385
1.59223
1.58471
1.58141
1.58056
1.58146
1.58259
1.58422
1.58639
1.58918
1.59234
1.59598
1.59999
1.60437
1.60907
1.61401
1.6192
1.62454
1.63009
1.63572
1.64153
1.64734
1.65332
1.65925
1.66532
1.67131
1.67739
1.68338
1.68941
1.69533
1.70126
1.70704
1.71279
1.71831
1.72376
1.72887
1.73379
1.73818
1.74214
1.74517
1.74706
1.29555
1.30298
1.31974
1.34041
1.35777
1.37143
1.37751
1.3724
1.35693
1.33022
1.2793
1.19217
1.10008
1.04808
1.03406
1.03775
1.04894
1.06847
1.09
1.10849
1.12388
1.13814
1.15243
1.16775
1.18417
1.20197
1.22085
1.24092
1.26183
1.28366
1.30605
1.32908
1.35242
1.37612
1.39992
1.42381
1.44762
1.47131
1.49477
1.51787
1.5406
1.56272
1.58433
1.60514
1.62521
1.64423
1.66217
1.67858
1.69332
1.70576
1.71639
1.72548
1.73242
1.73614
1.73689
1.73373
1.72449
1.70855
1.68909
1.66806
1.64929
1.634
1.62374
1.61779
1.61538
1.61553
1.61656
1.6179
1.61988
1.62248
1.6256
1.62909
1.63299
1.63717
1.64171
1.64649
1.65152
1.65675
1.6621
1.66762
1.67318
1.6789
1.6846
1.69041
1.69617
1.70201
1.70774
1.71352
1.71914
1.72477
1.73016
1.73554
1.74057
1.74553
1.75
1.75424
1.75775
1.76074
1.76256
1.76375
1.32227
1.32233
1.33355
1.35023
1.36614
1.37295
1.36683
1.34977
1.3211
1.26794
1.17899
1.08842
1.03952
1.02705
1.03171
1.04543
1.06729
1.08935
1.10789
1.12289
1.13651
1.14976
1.16397
1.17902
1.19543
1.21275
1.2313
1.25064
1.27095
1.2919
1.31355
1.33569
1.35827
1.38122
1.40436
1.42774
1.45107
1.47445
1.49759
1.52058
1.5432
1.56549
1.58735
1.60867
1.62949
1.64948
1.66877
1.68689
1.70396
1.71936
1.733
1.74461
1.75474
1.76339
1.76891
1.77137
1.77094
1.76619
1.75459
1.73732
1.7166
1.69635
1.67779
1.66438
1.65505
1.6507
1.64925
1.64999
1.651
1.6526
1.65504
1.65817
1.66158
1.66539
1.66938
1.6738
1.67834
1.68323
1.68822
1.69343
1.69873
1.70413
1.7096
1.71512
1.72064
1.72621
1.73167
1.73718
1.74247
1.7478
1.7528
1.75777
1.76228
1.76663
1.77035
1.77365
1.77599
1.77765
1.77834
1.77893
1.3597
1.34629
1.3487
1.35911
1.36874
1.36312
1.34437
1.31323
1.25676
1.1642
1.07388
1.02872
1.01857
1.02445
1.04151
1.06599
1.08924
1.10785
1.12309
1.13622
1.14913
1.16226
1.1766