/*--------------------------------*- C++ -*----------------------------------*\
  =========                 |
  \\      /  F ield         | OpenFOAM: The Open Source CFD Toolbox
   \\    /   O peration     | Website:  https://openfoam.org
    \\  /    A nd           | Version:  10
     \\/     M anipulation  |
\*---------------------------------------------------------------------------*/
FoamFile
{
    format      ascii;
    class       surfaceScalarField;
    location    "6.5";
    object      phi;
}
// * * * * * * * * * * * * * * * * * * * * * * * * * * * * * * * * * * * * * //

dimensions      [1 0 -1 0 0 0 0];

internalField   nonuniform List<scalar> 
10325
(
0.00840003
1.15278e-10
0.0084
6.17608e-10
0.00840012
1.81969e-09
0.00839982
6.11867e-09
0.00840053
1.38303e-08
0.00839882
3.3383e-08
0.00840276
1.07648e-07
0.00839381
1.70021e-07
0.00841154
7.29264e-07
0.00837823
1.01628e-06
0.00841916
4.00569e-06
0.00836069
8.86605e-06
0.00836746
3.12916e-05
0.00822896
0.000116719
0.00763097
0.000594349
0.00698975
0.000643381
0.00637136
0.000618805
0.00572847
0.000642206
0.00505372
0.000674004
0.00433836
0.00071455
0.00357176
0.000765693
0.00275215
0.000818445
0.00188494
0.000866419
0.000969404
0.000915416
0.000969033
0.00840003
5.92045e-11
0.00840002
1.69268e-09
0.00840002
2.08797e-09
0.00840001
1.63836e-08
0.00840005
1.45874e-08
0.00839962
1.04744e-07
0.00840073
8.61171e-08
0.00839677
6.30056e-07
0.00840443
6.24141e-07
0.00838854
3.45899e-06
0.00840386
5.78598e-06
0.00837572
2.10244e-05
0.00835809
6.13646e-05
0.00822776
0.000237162
0.00762894
0.00118668
0.00697649
0.00129756
0.0063658
0.00123
0.00573134
0.001276
0.00506082
0.00134379
0.00433899
0.0014356
0.00356393
0.00153985
0.00273665
0.00164458
0.00185922
0.00174308
0.000939544
0.00183497
0.0019082
0.00840003
3.19096e-10
0.00840004
1.32021e-09
0.00839998
6.46412e-09
0.00840014
1.28927e-08
0.00839965
4.66376e-08
0.00840091
9.40986e-08
0.00839754
2.67998e-07
0.00840551
6.40719e-07
0.00838765
1.55476e-06
0.00841805
4.12778e-06
0.00836861
1.02968e-05
0.00840775
2.95845e-05
0.00833607
9.37381e-05
0.00824045
0.000350042
0.007667
0.00174818
0.00700693
0.00195938
0.00639967
0.00183762
0.00577293
0.00190208
0.0051086
0.00200747
0.00438747
0.00215594
0.00360889
0.0023175
0.00277468
0.00247758
0.00188602
0.00263111
0.000951687
0.00276894
0.00285919
0.00840003
4.32817e-10
0.00840002
1.73031e-09
0.00840008
8.39638e-09
0.00839991
1.68772e-08
0.00840024
6.13698e-08
0.00839952
1.12725e-07
0.00840055
3.93792e-07
0.00839825
6.94921e-07
0.00840112
2.41778e-06
0.00839308
4.66418e-06
0.00840172
1.46883e-05
0.00837467
3.74468e-05
0.00836075
0.000123306
0.00825155
0.000449698
0.00775127
0.00224138
0.00708718
0.00262598
0.00648032
0.00244492
0.00586101
0.00252077
0.00520435
0.00266323
0.00449034
0.00286945
0.00371206
0.00309526
0.00286969
0.00331867
0.00196112
0.00353868
0.000995849
0.00373485
0.00385537
0.00840003
2.51116e-10
0.00840001
2.96786e-09
0.00840008
6.44454e-09
0.00839989
2.92884e-08
0.00840036
5.04667e-08
0.00839905
1.90138e-07
0.0084023
3.37652e-07
0.00839445
1.14807e-06
0.00841165
2.22636e-06
0.00837738
6.89011e-06
0.00842366
1.57314e-05
0.00836033
4.74868e-05
0.0083812
0.000144484
0.00827586
0.00053022
0.00790507
0.00260818
0.00723323
0.00330048
0.00661786
0.00306095
0.00600144
0.0031366
0.00535309
0.00331094
0.00464455
0.00357733
0.00386917
0.00386969
0.00302138
0.00416534
0.002091
0.00446857
0.00107304
0.00475324
0.00492858
0.00840003
4.44607e-10
0.00840004
2.72507e-09
0.00839999
9.51853e-09
0.0084001
2.60138e-08
0.00839978
7.14244e-08
0.00840061
1.70293e-07
0.00839827
4.61549e-07
0.00840404
1.06999e-06
0.00839049
2.89371e-06
0.00841551
6.89441e-06
0.00837421
1.87524e-05
0.00841359
5.08406e-05
0.00836134
0.000159756
0.00833801
0.000570858
0.0081744
0.00275839
0.00748922
0.00398789
0.00684159
0.00370927
0.00621712
0.00376077
0.00557469
0.00395303
0.00487385
0.00427775
0.00409847
0.0046444
0.0032382
0.00502491
0.00227528
0.00543107
0.00119253
0.0058355
0.00612065
0.00840003
4.79513e-10
0.00840004
2.54526e-09
0.00839998
1.02282e-08
0.00840014
2.52946e-08
0.00839972
7.50759e-08
0.00840085
1.76231e-07
0.00839814
4.56263e-07
0.00840474
1.14615e-06
0.00839055
2.75362e-06
0.00841799
7.35492e-06
0.00837453
1.8191e-05
0.00842562
5.14756e-05
0.00838296
0.000156561
0.0084238
0.000552131
0.00862586
0.00254224
0.00792555
0.00468874
0.00719238
0.00444295
0.00654274
0.00441033
0.00589328
0.00460231
0.0051966
0.00497389
0.00442123
0.00541927
0.00354809
0.00589739
0.00254926
0.00642944
0.00137838
0.00700622
0.00749859
0.00840003
4.31877e-10
0.00840002
2.42102e-09
0.00840007
8.79381e-09
0.00839996
2.33537e-08
0.00840022
6.60663e-08
0.00839973
1.48173e-07
0.00840056
4.38266e-07
0.00839946
8.71757e-07
0.00840104
2.76863e-06
0.00839958
5.42845e-06
0.00840811
1.67937e-05
0.00840572
4.00312e-05
0.00845265
0.00012458
0.0085836
0.000412572
0.00933225
0.00178919
0.00863246
0.00538667
0.00770299
0.00537179
0.00700838
0.00510473
0.0063392
0.00527115
0.00563366
0.00567904
0.00485423
0.00619785
0.00396892
0.00678209
0.00294301
0.00745463
0.00168013
0.00826868
0.0091786
0.00840003
3.24927e-10
0.00840004
2.31061e-09
0.00840001
7.46505e-09
0.00840008
2.26611e-08
0.00839996
5.51486e-08
0.00840009
1.54985e-07
0.00840015
3.33008e-07
0.0083992
9.82948e-07
0.00840196
1.9641e-06
0.00839742
6.0639e-06
0.00840508
1.28731e-05
0.00840691
3.82272e-05
0.00842167
0.000105691
0.00847938
0.000354617
0.0087775
0.00148898
0.00859858
0.00555995
0.00793248
0.00603486
0.00737237
0.00566472
0.00672799
0.00591535
0.00609435
0.00631179
0.00535955
0.00693206
0.00452927
0.00761142
0.00354664
0.00843686
0.00219761
0.00961749
0.0113762
0.00840003
3.46267e-10
0.00840002
2.14425e-09
0.00840006
7.52026e-09
0.00839996
2.10608e-08
0.00840022
5.55669e-08
0.00839967
1.39404e-07
0.0084009
3.46567e-07
0.00839843
8.57786e-07
0.0084031
2.11985e-06
0.00839442
5.27425e-06
0.00841057
1.33624e-05
0.00838764
3.5199e-05
0.00841966
0.0001012
0.00842738
0.000330587
0.00859465
0.00132183
0.00842152
0.00572619
0.00818093
0.00627436
0.00760898
0.00623629
0.0070819
0.00644176
0.00653986
0.00685284
0.00593787
0.00753313
0.00525528
0.00829295
0.00435707
0.00933426
0.00307035
0.0109037
0.0144466
0.00840003
3.92842e-10
0.00840002
2.05671e-09
0.00840006
7.90127e-09
0.00839997
2.00741e-08
0.00840019
5.79643e-08
0.00839971
1.31153e-07
0.0084007
3.71516e-07
0.00839875
7.88288e-07
0.008402
2.31851e-06
0.00839578
4.83101e-06
0.00840654
1.42072e-05
0.00838891
3.36384e-05
0.0084134
0.000100747
0.00840671
0.000317699
0.00851366
0.00122144
0.00850046
0.00572935
0.00814865
0.00662569
0.00775965
0.00662515
0.00739828
0.00680247
0.00697392
0.00727611
0.00657665
0.00792944
0.0061072
0.0087614
0.00566084
0.00977961
0.00559728
0.0109665
0.0114113
0.00863157
0.00840003
3.32624e-10
0.00840003
2.13549e-09
0.00840003
7.31984e-09
0.00840003
2.08664e-08
0.00840004
5.38532e-08
0.00839993
1.40445e-07
0.0084003
3.34781e-07
0.00839884
8.8601e-07
0.00840273
2.04621e-06
0.00839329
5.51195e-06
0.00841028
1.30567e-05
0.00838721
3.56273e-05
0.00841008
9.74967e-05
0.0083985
0.00031176
0.00848151
0.00114621
0.0087116
0.00548882
0.0083497
0.00698788
0.00796965
0.00700528
0.00765793
0.00711364
0.00736712
0.00756575
0.00708904
0.00820634
0.00685904
0.00899016
0.00677888
0.00985845
0.00717563
0.0105679
0.010463
0.00812233
0.00840003
3.28891e-10
0.00840002
2.10985e-09
0.00840005
7.04075e-09
0.00839998
2.06731e-08
0.00840016
5.27697e-08
0.00839969
1.36198e-07
0.00840095
3.40217e-07
0.00839796
8.32337e-07
0.00840534
2.12328e-06
0.00839001
5.12459e-06
0.00841925
1.33914e-05
0.00837605
3.37957e-05
0.00842973
9.48577e-05
0.00840517
0.000292022
0.0085269
0.00104509
0.00920237
0.00479988
0.00878736
0.00740338
0.00831487
0.0074781
0.00800211
0.00742654
0.00777771
0.00778909
0.00760353
0.00837919
0.00755356
0.00903888
0.00774067
0.00966991
0.00822306
0.0100838
0.00989266
0.00879062
0.00840003
2.79241e-10
0.00840003
1.90445e-09
0.00840003
6.15367e-09
0.00840004
1.84535e-08
0.00840003
4.61512e-08
0.00840004
1.21071e-07
0.00840016
2.93921e-07
0.00839963
7.51174e-07
0.00840178
1.82291e-06
0.00839697
4.63017e-06
0.0084094
1.14506e-05
0.00839789
2.96166e-05
0.00842898
7.94741e-05
0.00846918
0.000238282
0.00870826
0.000813019
0.0100832
0.00341219
0.0094673
0.0080195
0.0089357
0.00801015
0.00850236
0.0078602
0.00825639
0.00803464
0.00815477
0.00847981
0.00819912
0.00899305
0.00842846
0.00943881
0.00884906
0.00966095
0.00943262
0.00930678
0.00840003
2.17242e-10
0.00840003
1.6113e-09
0.00840002
5.0151e-09
0.00840006
1.57273e-08
0.0084
3.72161e-08
0.00840013
1.04636e-07
0.00840003
2.29623e-07
0.00840011
6.46562e-07
0.00840097
1.38893e-06
0.0083996
3.92342e-06
0.00840631
8.60535e-06
0.00840677
2.39888e-05
0.00842991
5.89595e-05
0.00849348
0.000174599
0.00874746
0.000559815
0.00991858
0.00223339
0.00994952
0.007986
0.00957287
0.00838613
0.00903025
0.00840241
0.00876243
0.00830174
0.00867554
0.00856592
0.00873905
0.00892838
0.00895258
0.00922383
0.00929821
0.00931295
0.00905715
0.0096709
0.00840003
2.16739e-10
0.00840003
1.25869e-09
0.00840003
4.66608e-09
0.00840004
1.2316e-08
0.00840001
3.43291e-08
0.00840012
8.23199e-08
0.00839981
2.13385e-07
0.0084009
5.1073e-07
0.00839834
1.28129e-06
0.00840601
3.1192e-06
0.00839143
7.77367e-06
0.00842443
1.95289e-05
0.0083922
5.05922e-05
0.00846742
0.000141657
0.00854085
0.00044982
0.00909418
0.00169583
0.00997434
0.00709351
0.00976688
0.00859201
0.00946371
0.00870464
0.00920192
0.00856299
0.00912139
0.00864536
0.00918542
0.00886307
0.00937037
0.00903748
0.00964592
0.00903547
0.00876327
0.00993718
0.00840003
1.74472e-10
0.00840003
1.1361e-09
0.00840004
3.77253e-09
0.00840002
1.11235e-08
0.00840006
2.83351e-08
0.0084
7.29644e-08
0.00840009
1.81933e-07
0.00840019
4.42144e-07
0.00839966
1.13175e-06
0.00840208
2.67998e-06
0.00839735
7.00809e-06
0.00841022
1.6856e-05
0.00840175
4.50063e-05
0.00843457
0.000121465
0.00849473
0.000377785
0.00884495
0.00135048
0.0101182
0.0058096
0.01004
0.00866979
0.00980109
0.00894288
0.00956824
0.00879581
0.00950143
0.00871154
0.00955628
0.00880689
0.00970652
0.0088858
0.00992094
0.00881918
0.00854043
0.0101415
0.00840003
1.61409e-10
0.00840003
8.95425e-10
0.00840003
3.41604e-09
0.00840004
8.73318e-09
0.0084
2.5105e-08
0.00840013
5.86233e-08
0.00839983
1.5602e-07
0.00840081
3.67944e-07
0.00839871
9.39298e-07
0.00840492
2.28345e-06
0.00839343
5.66177e-06
0.0084222
1.43015e-05
0.00838785
3.60302e-05
0.00846553
9.72142e-05
0.00850664
0.000286875
0.00890917
0.000973183
0.0108197
0.00388253
0.0105374
0.00895069
0.0103735
0.00910676
0.010071
0.0090982
0.00990013
0.0088819
0.00990034
0.00880565
0.0100036
0.00878135
0.0101595
0.00866166
0.00837835
0.0103194
0.00840003
1.13425e-10
0.00840003
7.62843e-10
0.00840004
2.46793e-09
0.00840002
7.39086e-09
0.00840008
1.85012e-08
0.00839997
4.77384e-08
0.00840028
1.18363e-07
0.00839981
2.86594e-07
0.0084012
7.2891e-07
0.00839935
1.69329e-06
0.00840496
4.4838e-06
0.00840036
1.02332e-05
0.0084238
2.76096e-05
0.0084289
6.8264e-05
0.00854403
0.000197065
0.00887898
0.000622997
0.0103814
0.00237795
0.0110568
0.00827037
0.0108346
0.00932792
0.0105317
0.0094002
0.0103001
0.0091128
0.0102335
0.0088712
0.0102823
0.00873114
0.0103827
0.00855988
0.00826981
0.0104895
0.00840003
9.61083e-11
0.00840003
5.68265e-10
0.00840003
2.0519e-09
0.00840004
5.58962e-09
0.00840001
1.51316e-08
0.0084001
3.71172e-08
0.00839997
9.43228e-08
0.00840031
2.2874e-07
0.00840001
5.67098e-07
0.00840064
1.39799e-06
0.00840142
3.3992e-06
0.00840264
8.55471e-06
0.00840863
2.1067e-05
0.00842618
5.47244e-05
0.00846296
0.00014912
0.0086347
0.000461895
0.00932278
0.00167981
0.0109843
0.00660194
0.0110415
0.00926947
0.0108814
0.00955923
0.0106328
0.00936085
0.0105415
0.00896165
0.0105442
0.00872734
0.0105958
0.0085068
0.00820822
0.0106556
0.00840003
6.92848e-11
0.00840003
4.67978e-10
0.00840003
1.55894e-09
0.00840004
4.57585e-09
0.00840003
1.15343e-08
0.00840005
3.05721e-08
0.00840006
7.14315e-08
0.00840003
1.89641e-07
0.00840047
4.29515e-07
0.0083995
1.15877e-06
0.00840366
2.59362e-06
0.00839687
7.04392e-06
0.00841826
1.61859e-05
0.0084032
4.39128e-05
0.00846892
0.00011287
0.00856327
0.000339461
0.00910488
0.00115278
0.0113086
0.00438219
0.0113736
0.00920204
0.0113292
0.00960322
0.0111242
0.00956555
0.0108927
0.00919255
0.0108141
0.00880503
0.0108149
0.00850527
0.00818846
0.0108332
0.00840003
5.76633e-11
0.00840003
3.33238e-10
0.00840003
1.2238e-09
0.00840003
3.2566e-09
0.00840004
8.99611e-09
0.00840003
2.14849e-08
0.00840008
5.62739e-08
0.00840009
1.30736e-07
0.00840016
3.39488e-07
0.00840073
7.85021e-07
0.00840018
2.03618e-06
0.00840522
4.75079e-06
0.00840273
1.22322e-05
0.00842692
2.97541e-05
0.00845071
7.80854e-05
0.00858037
0.000216658
0.00903996
0.000686879
0.0108941
0.00252681
0.0118269
0.00826111
0.011728
0.00970061
0.0114917
0.00980083
0.0112343
0.00944957
0.0111034
0.00893558
0.0110468
0.00856101
0.00821202
0.0110223
0.00840003
3.73895e-11
0.00840003
2.69949e-10
0.00840003
8.3894e-10
0.00840003
2.62719e-09
0.00840004
6.28849e-09
0.00840001
1.71432e-08
0.00840012
3.95895e-08
0.00839994
1.03734e-07
0.00840053
2.4144e-07
0.00839967
6.16952e-07
0.00840254
1.46469e-06
0.00839884
3.66879e-06
0.00841105
8.98355e-06
0.00840189
2.23802e-05
0.00844898
5.74833e-05
0.00847203
0.000154909
0.00872304
0.000471802
0.00954082
0.00168374
0.0116818
0.00611562
0.0119155
0.00946603
0.0118686
0.00984686
0.0116303
0.00968711
0.0114187
0.00914735
0.0112974
0.00868211
0.00828185
0.0112275
0.00840003
3.0454e-11
0.00840003
1.81922e-10
0.00840003
6.56037e-10
0.00840003
1.78374e-09
0.00840003
4.81945e-09
0.00840004
1.17957e-08
0.00840004
2.99469e-08
0.00840011
7.2256e-08
0.0084
1.79873e-07
0.00840069
4.34498e-07
0.00839959
1.07095e-06
0.00840454
2.61795e-06
0.00839778
6.42588e-06
0.00842405
1.59353e-05
0.00840713
3.99608e-05
0.00850137
0.00010463
0.00863062
0.000298917
0.009357
0.000979572
0.0119271
0.00352565
0.0123078
0.00908201
0.0122983
0.00985705
0.0120953
0.00989068
0.0117497
0.0094939
0.0115754
0.00885622
0.00839856
0.011458
0.00840003
2.16709e-11
0.00840003
1.30669e-10
0.00840003
4.6607e-10
0.00840003
1.27582e-09
0.00840003
3.43725e-09
0.00840003
8.38219e-09
0.00840005
2.14527e-08
0.00840006
5.08363e-08
0.00840008
1.288e-07
0.00840037
3.04648e-07
0.00839999
7.64193e-07
0.00840276
1.82705e-06
0.00839922
4.54193e-06
0.00841697
1.10547e-05
0.00840351
2.76841e-05
0.00847668
7.03821e-05
0.00853633
0.000192889
0.00896592
0.000590555
0.0103532
0.00210938
0.0123161
0.00711461
0.0124918
0.00968138
0.0124103
0.00997249
0.0120481
0.00985687
0.0118679
0.00903692
0.00856309
0.0117031
0.00840003
1.5191e-11
0.00840003
9.40025e-11
0.00840003
3.27224e-10
0.00840003
9.17075e-10
0.00840004
2.42814e-09
0.00840003
5.98822e-09
0.00840006
1.52296e-08
0.00840002
3.61661e-08
0.00840015
9.18885e-08
0.00840009
2.15412e-07
0.00840041
5.51819e-07
0.00840101
1.28116e-06
0.00840108
3.30554e-06
0.00840726
7.74265e-06
0.00840827
2.00126e-05
0.00843889
4.90299e-05
0.0084906
0.000131824
0.00870755
0.000379916
0.00951213
0.00129675
0.0121478
0.00446698
0.0126482
0.00917909
0.0127116
0.00990964
0.012642
0.00992701
0.0122062
0.00947337
0.00881063
0.0119588
0.00840003
9.98785e-12
0.00840003
6.67874e-11
0.00840003
2.18761e-10
0.00840003
6.51837e-10
0.00840003
1.61888e-09
0.00840003
4.23812e-09
0.00840005
1.0153e-08
0.00840002
2.54354e-08
0.00840016
6.14413e-08
0.00839997
1.499e-07
0.00840077
3.68514e-07
0.00839982
8.8128e-07
0.00840411
2.20544e-06
0.0083996
5.21575e-06
0.0084205
1.32737e-05
0.00841209
3.19469e-05
0.00849742
8.37882e-05
0.00860736
0.000226708
0.00922273
0.000707115
0.0112291
0.00244919
0.0128417
0.00755767
0.0129313
0.00981933
0.0128685
0.00998959
0.0124877
0.00985427
0.00904573
0.0122532
0.00840003
6.76954e-12
0.00840003
4.54991e-11
0.00840003
1.5096e-10
0.00840003
4.42954e-10
0.00840003
1.11653e-09
0.00840003
2.90982e-09
0.00840003
6.91378e-09
0.00840004
1.76827e-08
0.00840007
4.13297e-08
0.00840006
1.05304e-07
0.00840036
2.46695e-07
0.0084
6.22806e-07
0.00840252
1.47464e-06
0.00839923
3.69143e-06
0.00841545
8.91184e-06
0.00840049
2.22545e-05
0.00846962
5.58363e-05
0.00849443
0.000147725
0.00882024
0.000431578
0.00975838
0.00147701
0.0124699
0.00484098
0.0130423
0.00924496
0.0131394
0.00989231
0.0130391
0.00995454
0.00946357
0.0126216
0.00840003
4.94431e-12
0.00840003
2.84305e-11
0.00840003
1.05967e-10
0.00840003
2.78524e-10
0.00840003
7.78337e-10
0.00840003
1.8372e-09
0.00840003
4.77763e-09
0.00840005
1.12133e-08
0.00840003
2.81725e-08
0.00840015
6.73294e-08
0.00840006
1.64427e-07
0.00840055
4.03556e-07
0.00840071
9.57725e-07
0.00840197
2.41373e-06
0.00840579
5.61562e-06
0.00841096
1.45006e-05
0.00843579
3.42343e-05
0.00849092
9.0725e-05
0.00867773
0.000243164
0.00939147
0.000760789
0.0116755
0.00255614
0.0132484
0.00766256
0.0133062
0.00983286
0.0133337
0.00992616
0.00981519
0.0129811
0.00840003
2.95832e-12
0.00840003
2.06041e-11
0.00840003
6.57893e-11
0.00840003
2.00767e-10
0.00840003
4.86055e-10
0.00840003
1.30366e-09
0.00840004
3.02624e-09
0.00840003
7.80459e-09
0.00840007
1.81844e-08
0.00840002
4.58206e-08
0.00840024
1.08708e-07
0.00840004
2.67358e-07
0.00840109
6.49467e-07
0.0084004
1.55948e-06
0.00840495
3.89304e-06
0.00840451
9.20206e-06
0.00842527
2.3562e-05
0.00844026
5.72951e-05
0.0085566
0.000153857
0.00884239
0.000444113
0.00990933
0.00150547
0.0127488
0.00480443
0.0134245
0.0091538
0.0135434
0.00980626
0.009953
0.0134047
0.00840003
2.06044e-12
0.00840003
1.26979e-11
0.00840003
4.47605e-11
0.00840003
1.23876e-10
0.00840003
3.2856e-10
0.00840003
8.09218e-10
0.00840003
2.01826e-09
0.00840004
4.88286e-09
0.00840003
1.19596e-08
0.00840009
2.88982e-08
0.00840002
7.01904e-08
0.00840037
1.70144e-07
0.00840005
4.11225e-07
0.0084019
1.00062e-06
0.00840054
2.41217e-06
0.00841006
5.90109e-06
0.00840606
1.43364e-05
0.00845219
3.56184e-05
0.00847686
9.0281e-05
0.00871749
0.000245925
0.00943682
0.000755837
0.0117517
0.00249313
0.0135316
0.00736444
0.0136192
0.00971691
0.00981468
0.0137561
0.00840003
1.38725e-12
0.00840003
7.98462e-12
0.00840003
2.96058e-11
0.00840003
7.79809e-11
0.00840003
2.16507e-10
0.00840003
5.10445e-10
0.00840003
1.33236e-09
0.00840004
3.07902e-09
0.00840003
7.85881e-09
0.00840007
1.83136e-08
0.00840003
4.582e-08
0.00840025
1.08682e-07
0.00840002
2.66108e-07
0.00840124
6.47045e-07
0.00840026
1.54217e-06
0.00840633
3.85605e-06
0.00840297
9.04789e-06
0.0084317
2.3159e-05
0.00843807
5.58281e-05
0.00857343
0.000149239
0.00886213
0.000424326
0.00996629
0.00141149
0.0128962
0.00441346
0.0137498
0.00885798
0.00968438
0.0138789
0.00840003
7.76943e-13
0.00840003
5.41255e-12
0.00840003
1.73502e-11
0.00840003
5.2662e-11
0.00840003
1.28489e-10
0.00840003
3.4059e-10
0.00840003
7.95693e-10
0.00840003
2.03118e-09
0.00840004
4.7478e-09
0.00840003
1.18545e-08
0.00840008
2.8146e-08
0.00840006
6.8805e-08
0.00840027
1.66536e-07
0.00840035
3.98225e-07
0.00840094
9.86735e-07
0.00840279
2.31018e-06
0.00840397
5.84466e-06
0.00841798
1.36221e-05
0.00842985
3.50976e-05
0.00850419
8.57516e-05
0.00868154
0.000235232
0.00939304
0.000708271
0.0114891
0.00230462
0.0136789
0.00665943
0.00950828
0.0138523
0.00840003
5.45076e-13
0.00840003
3.17582e-12
0.00840003
1.16744e-11
0.00840003
3.10522e-11
0.00840003
8.54103e-11
0.00840003
2.02982e-10
0.00840003
5.23102e-10
0.00840003
1.21971e-09
0.00840003
3.0708e-09
0.00840004
7.22801e-09
0.00840003
1.78652e-08
0.00840012
4.25936e-08
0.00840004
1.03423e-07
0.00840052
2.51502e-07
0.00840019
5.99308e-07
0.00840265
1.47688e-06
0.00840151
3.49082e-06
0.00841322
8.72904e-06
0.00841435
2.06734e-05
0.00846966
5.28416e-05
0.00853599
0.000133259
0.00890134
0.000379541
0.00996235
0.00121506
0.0128837
0.00372987
0.00839138
0.0139951
0.00840003
3.10956e-13
0.00840003
2.07268e-12
0.00840003
6.81525e-12
0.00840003
2.02069e-11
0.00840003
5.01546e-11
0.00840003
1.30445e-10
0.00840003
3.10664e-10
0.00840003
7.72536e-10
0.00840003
1.85739e-09
0.00840003
4.48604e-09
0.00840005
1.09741e-08
0.00840005
2.59314e-08
0.0084001
6.47786e-08
0.0084002
1.49931e-07
0.0084003
3.80383e-07
0.00840136
8.73188e-07
0.00840097
2.2234e-06
0.00840903
5.12588e-06
0.00840559
1.30826e-05
0.00844927
3.08361e-05
0.00846796
8.00562e-05
0.00867786
0.000207291
0.00923987
0.00062171
0.0109819
0.00199696
0.00572582
0.0136289
0.00840003
1.96064e-13
0.00840003
1.20904e-12
0.00840003
4.28016e-12
0.00840003
1.18026e-11
0.00840003
3.12643e-11
0.00840003
7.69492e-11
0.00840003
1.90026e-10
0.00840003
4.63503e-10
0.00840003
1.10862e-09
0.00840004
2.72668e-09
0.00840003
6.41082e-09
0.00840005
1.59597e-08
0.00840007
3.70393e-08
0.00840012
9.27833e-08
0.00840034
2.14402e-07
0.0084004
5.37849e-07
0.00840218
1.24627e-06
0.00840176
3.10615e-06
0.00841375
7.28837e-06
0.00841183
1.81394e-05
0.00847474
4.38511e-05
0.00852929
0.000112607
0.0088871
0.00030521
0.00990258
0.000949496
0.00284259
0.0127725
0.00840003
1.1923e-13
0.00840003
7.28657e-13
0.00840003
2.55817e-12
0.00840003
7.07861e-12
0.00840003
1.88171e-11
0.00840003
4.55622e-11
0.00840003
1.16156e-10
0.00840003
2.69433e-10
0.00840003
6.85197e-10
0.00840003
1.56835e-09
0.00840003
3.98905e-09
0.00840005
9.12078e-09
0.00840004
2.30469e-08
0.00840015
5.32483e-08
0.00840006
1.32722e-07
0.00840069
3.11192e-07
0.00840029
7.62921e-07
0.00840357
1.82445e-06
0.00840222
4.39717e-06
0.00841785
1.0763e-05
0.00841979
2.58372e-05
0.00849337
6.55086e-05
0.00858891
0.000167649
0.00909423
0.000486328
0.0015539
0.0103471
0.00840003
6.57833e-14
0.00840003
4.42206e-13
0.00840003
1.46536e-12
0.00840003
4.3176e-12
0.00840003
1.07186e-11
0.00840003
2.79998e-11
0.00840003
6.52456e-11
0.00840003
1.6646e-10
0.00840003
3.82346e-10
0.00840003
9.68864e-10
0.00840003
2.22559e-09
0.00840003
5.57983e-09
0.00840006
1.29803e-08
0.00840004
3.20541e-08
0.0084002
7.56693e-08
0.00840009
1.83638e-07
0.00840097
4.41862e-07
0.00840054
1.05409e-06
0.00840508
2.5717e-06
0.00840385
6.08721e-06
0.00842615
1.51072e-05
0.00843377
3.60989e-05
0.00854229
9.25345e-05
0.00874277
0.000243343
0.000732355
0.00959035
0.00840003
4.10976e-14
0.00840003
2.44233e-13
0.00840003
8.89316e-13
0.00840003
2.37698e-12
0.00840003
6.47409e-12
0.00840003
1.54472e-11
0.00840003
3.92185e-11
0.00840003
9.22392e-11
0.00840003
2.27401e-10
0.00840003
5.40441e-10
0.00840003
1.30316e-09
0.00840004
3.15239e-09
0.00840003
7.4435e-09
0.00840006
1.82984e-08
0.00840007
4.26009e-08
0.00840018
1.05869e-07
0.00840035
2.44193e-07
0.00840064
6.09835e-07
0.00840243
1.40732e-06
0.00840261
3.50609e-06
0.00841583
8.16948e-06
0.00841625
2.03879e-05
0.0084871
4.9059e-05
0.00856223
0.000127046
0.000347924
0.00898792
0.00840003
2.22108e-14
0.00840003
1.42118e-13
0.00840003
4.80747e-13
0.00840003
1.38412e-12
0.00840003
3.52536e-12
0.00840003
8.84181e-12
0.00840003
2.16236e-11
0.00840003
5.15486e-11
0.00840003
1.27537e-10
0.00840003
2.94128e-10
0.00840003
7.41141e-10
0.00840003
1.67499e-09
0.00840003
4.26733e-09
0.00840005
9.59764e-09
0.00840004
2.43127e-08
0.00840017
5.53108e-08
0.00840008
1.37977e-07
0.00840084
3.1898e-07
0.00840042
7.80073e-07
0.00840447
1.84553e-06
0.00840298
4.4213e-06
0.00842324
1.07236e-05
0.00842512
2.55927e-05
0.00852285
6.45144e-05
0.000166168
0.0086506
0.00840003
1.20116e-14
0.00840003
7.35648e-14
0.00840003
2.62341e-13
0.00840003
7.1483e-13
0.00840003
1.90724e-12
0.00840003
4.59495e-12
0.00840003
1.14111e-11
0.00840003
2.71817e-11
0.00840003
6.48659e-11
0.00840003
1.57092e-10
0.00840003
3.63303e-10
0.00840003
8.99062e-10
0.00840004
2.03298e-09
0.00840003
5.09178e-09
0.00840006
1.13577e-08
0.00840004
2.86401e-08
0.00840024
6.34244e-08
0.0084001
1.59449e-07
0.00840119
3.54345e-07
0.00840068
8.78035e-07
0.00840621
1.97461e-06
0.00840499
4.80898e-06
0.00843156
1.10782e-05
0.00844367
2.69004e-05
6.60508e-05
0.00857327
0.00840003
5.82474e-15
0.00840003
3.79969e-14
0.00840003
1.2922e-13
0.00840003
3.68264e-13
0.00840003
9.29096e-13
0.00840003
2.3431e-12
0.00840003
5.51959e-12
0.00840003
1.35191e-11
0.00840003
3.11693e-11
0.00840003
7.5827e-11
0.00840003
1.73512e-10
0.00840003
4.1849e-10
0.00840003
9.53704e-10
0.00840003
2.28322e-09
0.00840004
5.21701e-09
0.00840005
1.22731e-08
0.00840007
2.8044e-08
0.00840022
6.46615e-08
0.00840013
1.4878e-07
0.00840139
3.33867e-07
0.00840012
7.63197e-07
0.00840858
1.68309e-06
0.00840103
3.8354e-06
0.0084418
8.40189e-06
1.94863e-05
0.00843897
0.00840003
2.60016e-15
0.00840003
1.97663e-14
0.00840003
5.83452e-14
0.00840003
1.88173e-13
0.00840003
4.28819e-13
0.00840003
1.14334e-12
0.00840003
2.60106e-12
0.00840003
6.25393e-12
0.00840003
1.49958e-11
0.00840003
3.26158e-11
0.00840003
8.43362e-11
0.00840003
1.67058e-10
0.00840003
4.65008e-10
0.00840003
8.42284e-10
0.00840003
2.4919e-09
0.00840005
4.164e-09
0.00840001
1.29244e-08
0.00840017
2.044e-08
0.00839983
6.4003e-08
0.00840103
1.00478e-07
0.00839847
2.98337e-07
0.00840584
4.89295e-07
0.00839168
1.30777e-06
0.00842101
2.22598e-06
5.08143e-06
0.00838257
0.00840003
1.64506e-15
0.00840003
7.15964e-15
0.00840003
3.3267e-14
0.00840003
7.14653e-14
0.00840003
2.30537e-13
0.00840003
4.7418e-13
0.00840003
1.27591e-12
0.00840003
2.84993e-12
0.00840003
6.51758e-12
0.00840003
1.66071e-11
0.00840003
3.19198e-11
0.00840003
9.3751e-11
0.00840003
1.54025e-10
0.00840003
5.13147e-10
0.00840004
7.03865e-10
0.00840001
2.75989e-09
0.0084001
3.02887e-09
0.00839989
1.42772e-08
0.00840038
1.18524e-08
0.00839921
6.87865e-08
0.00840186
4.8754e-08
0.0083953
3.08117e-07
0.00840724
1.81891e-07
0.0083807
1.1456e-06
7.23198e-07
0.00840834
0.00840003
4.34982e-16
0.00840003
4.78786e-15
0.00840003
1.17762e-14
0.00840003
4.57086e-14
0.00840003
8.41565e-14
0.00840003
2.88424e-13
0.00840003
4.71835e-13
0.00840003
1.65374e-12
0.00840003
2.42211e-12
0.00840003
9.27227e-12
0.00840003
1.25933e-11
0.00840003
4.97174e-11
0.00840003
6.60755e-11
0.00840003
2.49789e-10
0.00840003
3.91503e-10
0.00840003
1.14704e-09
0.00840001
2.35155e-09
0.00840006
5.08819e-09
0.00839975
1.37413e-08
0.00840046
2.1399e-08
0.00839794
7.5986e-08
0.00840297
8.85115e-08
0.00838852
4.0213e-07
0.00840675
3.70044e-07
1.59547e-06
0.00836365
0.00840003
3.73264e-16
0.00840003
2.40774e-15
0.00840003
7.06943e-15
0.00840003
2.28444e-14
0.00840003
5.38632e-14
0.00840003
1.21105e-13
0.00840003
3.85156e-13
0.00840003
5.38677e-13
0.00840003
2.65803e-12
0.00840003
2.28988e-12
0.00840003
1.73284e-11
0.00840003
7.82325e-12
0.00840003
1.07504e-10
0.00840003
2.42846e-11
0.00840002
6.09878e-10
0.00840005
7.01192e-11
0.00839996
3.23852e-09
0.00840015
1.43206e-09
0.0083996
1.6468e-08
0.00840076
1.39739e-08
0.00839754
7.72068e-08
0.00840377
1.16449e-07
0.00838679
3.29376e-07
0.00840855
7.81342e-07
1.56285e-06
0.00835626
0.00840003
4.07443e-16
0.00840003
4.159e-16
0.00840003
6.74116e-15
0.00840003
4.99286e-15
0.00840003
4.42936e-14
0.00840003
4.34014e-14
0.00840003
2.38371e-13
0.00840003
3.19021e-13
0.00840003
1.21038e-12
0.00840003
2.28691e-12
0.00840003
6.47722e-12
0.00840003
1.54093e-11
0.00840003
3.48435e-11
0.00840003
1.08143e-10
0.00840004
2.16769e-10
0.0084
7.52808e-10
0.00840007
1.16267e-09
0.00839989
4.9478e-09
0.00840025
4.19713e-09
0.00839925
3.30499e-08
0.00840082
1.56664e-08
0.00839589
1.99028e-07
0.00840171
1.45358e-07
0.00838147
9.53919e-07
1.59718e-06
0.00839209
0.00840003
-2.99294e-16
0.00840003
1.96715e-15
0.00840003
-1.70808e-15
0.00840003
1.83635e-14
0.00840003
-9.06881e-15
0.00840003
1.06913e-13
0.00840003
-2.97087e-14
0.00840003
5.56391e-13
0.00840003
1.74008e-13
0.00840003
2.43148e-12
0.00840003
3.60664e-12
0.00840003
1.10307e-11
0.00840003
3.51028e-11
0.00840003
4.34387e-11
0.00840004
2.94368e-10
0.00840001
1.60954e-10
0.00840005
2.13447e-09
0.00839994
3.48187e-10
0.00840001
1.5589e-08
0.00839977
-2.62606e-09
0.00839911
1.04476e-07
0.0083991
-3.53855e-08
0.00839473
5.79274e-07
0.00839131
9.78047e-08
2.37337e-06
0.00837869
0.00840003
-2.12233e-17
0.00840003
5.10984e-16
0.00840003
1.05005e-16
0.00840003
5.64715e-15
0.00840003
1.88619e-15
0.00840003
5.14072e-14
0.00840003
-1.1266e-14
0.00840003
3.73228e-13
0.00840003
-1.2172e-13
0.00840003
2.55793e-12
0.00840003
-1.04463e-12
0.00840003
1.53089e-11
0.00840003
-4.91808e-12
0.00840003
8.33494e-11
0.00840004
6.50066e-12
0.00840001
3.35793e-10
0.00840007
5.33258e-10
0.00839986
1.30802e-09
0.00840035
5.80509e-09
0.00839894
3.90065e-09
0.00840184
4.4819e-08
0.00839374
1.28049e-08
0.00840738
3.068e-07
0.00837271
1.10118e-07
1.47314e-06
0.00840186
0.00840003
0.00840003
0.00840003
0.00840003
0.00840003
0.00840003
0.00840003
0.00840003
0.00840003
0.00840003
0.00840003
0.00840003
0.00840003
0.00840003
0.00840003
0.00840003
0.00840002
0.00839996
0.00840008
0.00839929
0.00840087
0.00839495
0.00840394
0.00837786
0.00839285
0.00443683
0.00419041
0.00242033
0.00200853
0.00122578
0.00117576
-0.000500186
0.00171216
-0.00127029
0.0007632
-0.00183961
0.000562112
-0.00220826
0.000360116
-0.00236663
0.000149798
-0.00245524
8.19496e-05
-0.00259888
0.000137677
-0.00276251
0.00015803
-0.00290743
0.000139452
-0.00302303
0.000110278
-0.00312429
9.68842e-05
-0.00322476
9.6485e-05
-0.00332121
9.30085e-05
-0.00341139
8.66607e-05
-0.00349099
7.60684e-05
-0.00355357
5.90464e-05
-0.0035943
3.77785e-05
-0.00362204
2.48673e-05
-0.00366673
4.03126e-05
-0.00371736
4.50471e-05
-0.00376074
3.69583e-05
-0.00379309
2.33639e-05
-0.00380775
1.5084e-06
-0.00379011
-3.35506e-05
-0.00372705
-8.13161e-05
-0.00361534
-0.000130753
-0.00346396
-0.000170671
-0.00328127
-0.00020127
-0.00307531
-0.000223729
-0.00285126
-0.000240865
-0.00261422
-0.000252402
-0.00237114
-0.000257337
-0.00212573
-0.000257812
-0.00187787
-0.000259268
-0.0016299
-0.000258039
-0.00137758
-0.000261049
-0.0011238
-0.000261244
-0.000873094
-0.000257244
-0.000624041
-0.000254016
-0.000376617
-0.000251463
-0.000126048
-0.000253463
0.000119525
-0.000247479
0.000351176
-0.000232526
0.000572279
-0.000221107
0.000785136
-0.000211901
0.000990041
-0.00020322
0.00118746
-0.000194901
0.00137714
-0.000186409
0.0015585
-0.000177633
0.00173353
-0.000170889
0.00190541
-0.00016672
0.00207249
-0.000161664
0.002233
-0.000154754
0.00238698
-0.000147866
0.00253405
-0.000141155
0.00267535
-0.00013516
0.00281082
-0.000129412
0.00294064
-0.000123933
0.00306501
-0.000118625
0.00318426
-0.000113558
0.00329835
-0.000108657
0.00340743
-0.000103923
0.00351185
-9.93553e-05
0.00361169