/*--------------------------------*- C++ -*----------------------------------*\
  =========                 |
  \\      /  F ield         | OpenFOAM: The Open Source CFD Toolbox
   \\    /   O peration     | Website:  https://openfoam.org
    \\  /    A nd           | Version:  10
     \\/     M anipulation  |
\*---------------------------------------------------------------------------*/
FoamFile
{
    format      ascii;
    class       volScalarField;
    location    "6.5";
    object      rho;
}
// * * * * * * * * * * * * * * * * * * * * * * * * * * * * * * * * * * * * * //

dimensions      [1 -3 0 0 0 0 0];

internalField   nonuniform List<scalar> 
5250
(
1.40001
1.40003
1.40007
1.40018
1.40041
1.40108
1.40254
1.40642
1.41546
1.43796
1.48912
1.60505
1.84637
2.40751
4.68962
5.81603
5.72175
5.65219
5.67058
5.74789
5.83318
5.88473
5.92259
5.9549
5.98601
1.40001
1.40003
1.40006
1.40018
1.40039
1.40112
1.40235
1.40674
1.41434
1.43908
1.48576
1.60472
1.83943
2.39374
4.64168
5.82006
5.72228
5.64923
5.66803
5.74593
5.83129
5.88304
5.92173
5.95487
5.9869
1.40001
1.40002
1.40007
1.40015
1.40044
1.40094
1.40261
1.4058
1.41547
1.43517
1.48754
1.59471
1.8324
2.36121
4.53504
5.82988
5.72282
5.6399
5.65813
5.73569
5.81974
5.87022
5.90874
5.94211
5.97459
1.40001
1.40002
1.40007
1.40015
1.40041
1.40091
1.40251
1.40544
1.41505
1.43314
1.48425
1.58658
1.81579
2.31546
4.36649
5.84837
5.72496
5.62473
5.64146
5.71568
5.79991
5.84948
5.88634
5.91616
5.94882
1.40001
1.40002
1.40005
1.40016
1.40034
1.40095
1.40211
1.40565
1.4129
1.43331
1.47597
1.57968
1.79034
2.25805
4.13482
5.87635
5.73036
5.60472
5.61884
5.68877
5.76844
5.815
5.85186
5.8853
5.91782
1.40001
1.40002
1.40006
1.40013
1.40036
1.40077
1.40217
1.4047
1.4129
1.42865
1.47325
1.56228
1.76619
2.18689
3.83912
5.91224
5.74045
5.58219
5.59178
5.65564
5.73201
5.77305
5.80393
5.83288
5.86878
1.40001
1.40002
1.40005
1.40012
1.40032
1.40072
1.4019
1.4044
1.41129
1.42649
1.46531
1.54836
1.7335
2.11257
3.4912
5.94491
5.75583
5.5584
5.56093
5.61194
5.68313
5.71867
5.74238
5.7649
5.79983
1.40001
1.40002
1.40005
1.40011
1.40028
1.40064
1.40173
1.40376
1.41043
1.42267
1.45934
1.5313
1.7008
2.03861
3.10714
5.94021
5.7661
5.53763
5.53018
5.56316
5.62278
5.64674
5.65747
5.66662
5.69706
1.40001
1.40002
1.40004
1.4001
1.40023
1.40064
1.40134
1.40389
1.40806
1.42287
1.44915
1.52351
1.66831
1.98295
2.87439
5.76419
5.70096
5.50004
5.48654
5.50014
5.54642
5.5551
5.54567
5.52857
5.53461
1.40001
1.40001
1.40004
1.40009
1.40022
1.40052
1.40135
1.40307
1.40819
1.41837
1.44749
1.50701
1.64652
1.92864
2.67777
5.41312
5.55637
5.47238
5.42584
5.42646
5.44815
5.43662
5.40215
5.32792
5.27122
1.40001
1.40001
1.40003
1.40008
1.4002
1.40045
1.4012
1.4027
1.40728
1.41616
1.44234
1.49494
1.62153
1.87693
2.5032
4.97998
5.48114
5.4339
5.35518
5.34621
5.33447
5.30027
5.207
4.98852
4.36219
1.40001
1.40001
1.40003
1.40007
1.40015
1.40044
1.40091
1.40265
1.40552
1.41573
1.43378
1.4874
1.59056
1.82674
2.34156
4.47097
5.44061
5.40121
5.2918
5.25539
5.22311
5.15384
5.00214
4.69042
4.02427
1.40001
1.40001
1.40002
1.40006
1.40013
1.40036
1.40081
1.40214
1.40494
1.41272
1.42968
1.47306
1.56486
1.76799
2.19269
3.88777
5.42999
5.38093
5.24479
5.16845
5.11447
5.013
4.82353
4.4956
3.96907
1.40001
1.40001
1.40002
1.40005
1.40011
1.40031
1.40064
1.40183
1.40385
1.41088
1.42336
1.46161
1.53498
1.70983
2.05267
3.23913
5.39958
5.36118
5.22421
5.09662
5.01285
4.88959
4.69109
4.38868
3.97704
1.40001
1.40001
1.40002
1.40004
1.40009
1.40024
1.40053
1.40147
1.40311
1.40877
1.41873
1.45005
1.5095
1.65546
1.93924
2.71773
5.20864
5.29643
5.20824
5.03994
4.92816
4.79323
4.59984
4.32581
3.98487
1.40001
1.40001
1.40002
1.40003
1.40008
1.40017
1.40049
1.40102
1.4029
1.40619
1.41704
1.43745
1.49458
1.60683
1.85815
2.43179
4.67947
5.19174
5.14082
4.99444
4.857
4.7142
4.53019
4.28461
3.9876
1.40001
1.40001
1.40001
1.40003
1.40007
1.40014
1.40039
1.40081
1.40233
1.40487
1.41377
1.42958
1.47691
1.56782
1.77842
2.21092
3.96012
5.10755
5.07989
4.96641
4.80334
4.65096
4.47306
4.2506
3.98775
1.40001
1.40001
1.40001
1.40002
1.40005
1.40011
1.4003
1.40065
1.40173
1.40396
1.41018
1.42369
1.45875
1.53287
1.70059
2.02942
3.17303
5.02969
5.03862
4.96038
4.78258
4.60657
4.43063
4.22518
3.98897
1.40001
1.40001
1.40001
1.40002
1.40004
1.40009
1.40022
1.4005
1.4013
1.40294
1.40785
1.41741
1.44517
1.50081
1.63331
1.89135
2.55559
4.75443
5.0104
4.94275
4.77509
4.57788
4.39933
4.2073
3.99178
1.40001
1.40001
1.40001
1.40002
1.40003
1.40007
1.40016
1.40041
1.4009
1.40249
1.40525
1.41473
1.43159
1.48145
1.57773
1.79638
2.25556
4.07524
4.91542
4.88278
4.77014
4.56393
4.38009
4.19558
3.99629
1.40001
1.40001
1.40001
1.40001
1.40002
1.40006
1.40011
1.40031
1.40065
1.40185
1.40387
1.41088
1.42329
1.46128
1.53351
1.70617
2.03184
3.22684
4.80359
4.8291
4.76015
4.58577
4.37895
4.19275
4.0049
1.40001
1.40001
1.40001
1.40001
1.40002
1.40004
1.40009
1.4002
1.40054
1.40113
1.40323
1.40673
1.41878
1.44036
1.50176
1.62098
1.87042
2.48728
4.49619
4.81086
4.7542
4.6093
4.39151
4.19868
4.01596
1.40001
1.40001
1.40001
1.40001
1.40001
1.40003
1.40006
1.40015
1.40036
1.40087
1.40219
1.40505
1.41312
1.42955
1.4741
1.56396
1.76379
2.16856
3.75802
4.73283
4.70945
4.62279
4.42567
4.2182
4.03274
1.40001
1.40001
1.40001
1.40001
1.40001
1.40002
1.40005
1.4001
1.40027
1.40057
1.40159
1.40342
1.40926
1.42042
1.45256
1.51593
1.66631
1.93962
2.81777
4.54432
4.68956
4.6289
4.46852
4.25108
4.05885
1.40001
1.40001
1.40001
1.40001
1.40001
1.40002
1.40004
1.40007
1.40019
1.40039
1.40111
1.40231
1.4065
1.4138
1.43708
1.48048
1.59216
1.79858
2.28404
4.02482
4.63433
4.60254
4.50069
4.2916
4.09117
1.40001
1.40001
1.40001
1.40001
1.40001
1.40001
1.40003
1.40005
1.40013
1.40028
1.40076
1.40157
1.40448
1.40928
1.42584
1.4552
1.53651
1.69107
2.00597
3.12903
4.47736
4.55836
4.5071
4.3552
4.13159
1.40001
1.40001
1.40001
1.40001
1.40001
1.40001
1.40002
1.40004
1.40008
1.4002
1.40047
1.40113
1.4028
1.4065
1.41647
1.43774
1.49095
1.60209
1.81933
2.34668
4.08501
4.52361
4.4905
4.39456
4.18547
1.40001
1.40001
1.40001
1.40001
1.40001
1.40001
1.40001
1.40003
1.40005
1.40014
1.40029
1.40081
1.40169
1.40469
1.41008
1.42679
1.45899
1.54232
1.70292
2.02804
3.22512
4.38638
4.45336
4.40645
4.27118
1.40001
1.40001
1.40001
1.40001
1.40001
1.40001
1.40001
1.40002
1.40004
1.40009
1.4002
1.40051
1.4011
1.40302
1.40637
1.41748
1.43733
1.49439
1.60236
1.81906
2.35059
4.03156
4.42613
4.39909
4.31681
1.40001
1.40001
1.40001
1.40001
1.40001
1.40001
1.40001
1.40001
1.40003
1.40006
1.40013
1.40031
1.40078
1.40175
1.40463
1.4101
1.42671
1.45858
1.541
1.69893
2.01901
3.19393
4.28439
4.37119
4.32987
1.40001
1.40001
1.40001
1.40001
1.40001
1.40001
1.40001
1.40001
1.40002
1.40004
1.40009
1.4002
1.40048
1.40116
1.40268
1.40686
1.4155
1.43895
1.48753
1.59985
1.80011
2.31035
3.91222
4.33534
4.31708
1.40001
1.40001
1.40001
1.40001
1.40001
1.40001
1.40001
1.40001
1.40001
1.40002
1.40006
1.40012
1.4003
1.40072
1.4017
1.40431
1.40972
1.42491
1.45574
1.53248
1.68245
1.97788
3.0408
4.16293
4.29492
1.40001
1.40001
1.40001
1.40001
1.40001
1.40001
1.40001
1.40001
1.40001
1.40002
1.40004
1.40008
1.40019
1.40042
1.40113
1.40236
1.40662
1.41371
1.43712
1.47894
1.58737
1.77091
2.23122
3.7308
4.23568
1.40001
1.40001
1.40001
1.40001
1.40001
1.40001
1.40001
1.40001
1.40001
1.40001
1.40002
1.40005
1.40012
1.40027
1.40064
1.40159
1.40364
1.40929
1.42082
1.45201
1.51517
1.65568
1.90543
2.7634
4.00662
1.40001
1.40001
1.40001
1.40001
1.40001
1.40001
1.40001
1.40001
1.40001
1.40001
1.40002
1.40003
1.40008
1.40015
1.40042
1.40087
1.40238
1.40502
1.41361
1.42914
1.47418
1.55882
1.73506
2.11537
3.4431
1.40001
1.40001
1.40001
1.40001
1.40001
1.40001
1.40001
1.40001
1.40001
1.40001
1.40001
1.40002
1.40004
1.40011
1.40022
1.40059
1.40122
1.40333
1.40706
1.41887
1.44051
1.50037
1.61037
1.81981
2.39684
1.40001
1.40001
1.40001
1.40001
1.40001
1.40001
1.40001
1.40001
1.40001
1.40001
1.40001
1.40001
1.40003
1.40006
1.40014
1.40032
1.40077
1.40188
1.40433
1.411
1.42449
1.46106
1.53332
1.6894
1.9892
1.40001
1.40001
1.40001
1.40001
1.40001
1.40001
1.40001
1.40001
1.40001
1.40001
1.40001
1.40001
1.40002
1.40004
1.40008
1.4002
1.40045
1.40107
1.4026
1.40602
1.415
1.43398
1.48147
1.57792
1.75724
1.40001
1.40001
1.40001
1.40001
1.40001
1.40001
1.40001
1.40001
1.40001
1.40001
1.40001
1.40001
1.40001
1.40002
1.40005
1.40012
1.40025
1.40067
1.40139
1.40381
1.40797
1.42142
1.44556
1.51267
1.63231
1.40001
1.40001
1.40001
1.40001
1.40001
1.40001
1.40001
1.40001
1.40001
1.40001
1.40001
1.40001
1.40001
1.40002
1.40003
1.40007
1.40016
1.40037
1.40089
1.40214
1.40498
1.41241
1.42808
1.46822
1.55075
1.40001
1.40001
1.40001
1.40001
1.40001
1.40001
1.40001
1.40001
1.40001
1.40001
1.40001
1.40001
1.40001
1.40001
1.40002
1.40005
1.4001
1.40024
1.40056
1.40133
1.4033
1.40754
1.41908
1.4429
1.50354
1.40001
1.40001
1.40001
1.40001
1.40001
1.40001
1.40001
1.40001
1.40001
1.40001
1.40001
1.40001
1.40001
1.40001
1.40002
1.40003
1.40008
1.40016
1.40045
1.40094
1.4026
1.40558
1.41516
1.43345
1.48479
1.40001
1.40001
1.40001
1.40001
1.40001
1.40001
1.40001
1.40001
1.40001
1.40001
1.40001
1.40001
1.40001
1.40001
1.40002
1.40003
1.40007
1.40014
1.40039
1.40083
1.40231
1.40513
1.4138
1.43163
1.47978
1.40001
1.40001
1.40001
1.40001
1.40001
1.40001
1.40001
1.40001
1.40001
1.40001
1.40001
1.40001
1.40001
1.40001
1.40001
1.40003
1.40006
1.40015
1.40034
1.40085
1.40216
1.4051
1.41332
1.43133
1.47801
1.40001
1.40001
1.40001
1.40001
1.40001
1.40001
1.40001
1.40001
1.40001
1.40001
1.40001
1.40001
1.40001
1.40001
1.40001
1.40003
1.40006
1.40013
1.40037
1.40077
1.40225
1.40481
1.41371
1.43035
1.47946
1.40001
1.40001
1.40001
1.40001
1.40001
1.40001
1.40001
1.40001
1.40001
1.40001
1.40001
1.40001
1.40001
1.40001
1.40001
1.40002
1.40006
1.40013
1.40035
1.40081
1.40209
1.40514
1.41287
1.43179
1.47716
1.40001
1.40001
1.40001
1.40001
1.40001
1.40001
1.40001
1.40001
1.40001
1.40001
1.40001
1.40001
1.40001
1.40001
1.40001
1.40003
1.40006
1.40013
1.40034
1.40079
1.40215
1.40486
1.41335
1.43049
1.47817
1.40001
1.40001
1.40001
1.40001
1.40001
1.40001
1.40001
1.40001
1.40001
1.40001
1.40001
1.40001
1.40001
1.40001
1.40001
1.40003
1.40006
1.40013
1.40035
1.40075
1.40221
1.40465
1.41354
1.42976
1.47827
1.40001
1.40001
1.40001
1.40001
1.40001
1.40001
1.40001
1.40001
1.40001
1.40001
1.40001
1.40001
1.40001
1.40001
1.40001
1.40003
1.40005
1.40014
1.40031
1.40083
1.40197
1.40509
1.41242
1.43135
1.47519
1.40001
1.40001
1.40001
1.40001
1.40001
1.40001
1.40001
1.40001
1.40001
1.40001
1.40001
1.40001
1.40001
1.40001
1.40001
1.40003
1.40005
1.40014
1.40029
1.40087
1.40183
1.4054
1.41159
1.43268
1.47282
2.07221
1.44202
1.4782
1.97814
1.83754
1.75813
1.73875
1.72887
1.71881
1.6951
1.66982
1.64639
1.6271
1.60551
1.58152
1.55578
1.5309
1.50873
1.48876
1.46716
1.44207
1.42959
1.42535
1.42525
1.43247
1.45839
1.50236
1.55932
1.62611
1.69393
1.76312
1.82746
1.89113
1.94729
2.00169
2.04813
2.09248
2.13155
2.16899
2.20091
2.23125
2.25801
2.28158
2.30249
2.32142
2.33805
2.35162
2.3622
2.37087
2.37669
2.38144
2.38395
2.38624
2.38492
2.38346
2.37878
2.37518
2.36883
2.36244
2.35451
2.34611
2.33632
2.32627
2.31518
2.30362
2.29118
2.27858
2.2651
2.25137
2.23688
2.22232
2.20702
2.19163
2.17563
2.15959
2.14313
2.12651
2.10957
2.09248
2.0752
2.05778
2.04026
2.02253
2.00487
1.98701
1.96931
1.95144
1.93377
1.91598
1.89844
1.8809
1.8637
1.84655
1.82996
1.8136
1.79815
1.78335
1.7702
1.75866
1.75127
2.56437
2.00883
1.92276
2.0246
1.92158
1.7725
1.71918
1.70433
1.68743
1.65462
1.62037
1.59481
1.57308
1.55243
1.52625
1.50045
1.47276
1.44845
1.4253
1.40472
1.38116
1.36498
1.35756
1.35553
1.35742
1.38096
1.41956
1.47663
1.54452
1.61578
1.68981
1.75914
1.82866
1.89295
1.95433
2.01105
2.06328
2.10947
2.15538
2.19753
2.23838
2.27352
2.30539
2.33224
2.35863
2.38058
2.40049
2.41579
2.42995
2.44055
2.44969
2.45647
2.46208
2.46563
2.46642
2.46561
2.46385
2.46041
2.45612
2.45005
2.44343
2.43516
2.42649
2.41613
2.40552
2.3934
2.38111
2.36747
2.35373
2.3389
2.32397
2.3082
2.29226
2.27571
2.25894
2.24169
2.22422
2.20638
2.18834
2.17009
2.15158
2.13307
2.11427
2.09562
2.07669
2.058
2.03909
2.02049
2.0017
1.9833
1.96477
1.94676
1.92868
1.91132
1.89409
1.87789
1.86238
1.84863
1.83634
1.82823
3.08443
2.50551
2.25429
2.14791
2.06535
1.95553
1.84802
1.78547
1.71884
1.66231
1.61293
1.5738
1.5418
1.5266
1.50355
1.47206
1.43855
1.40682
1.38019
1.35723
1.33707
1.31843
1.30719
1.3025
1.30212
1.3217
1.35861
1.41777
1.48919
1.56495
1.64435
1.72266
1.79811
1.87114
1.93964
2.00135
2.06019
2.11357
2.166
2.21337
2.25676
2.29503
2.32995
2.36145
2.38993
2.41549
2.43759
2.45674
2.47311
2.4869
2.49859
2.50803
2.51642
2.52278
2.52614
2.52735
2.52742
2.52658
2.52435
2.52096
2.51615
2.51041
2.5034
2.49552
2.48644
2.47653
2.46558
2.45396
2.4414
2.42829
2.41424
2.39971
2.38422
2.36833
2.35154
2.33449
2.31658
2.29859
2.27975
2.26098
2.2414
2.222
2.20187
2.18199
2.16153
2.14132
2.12072
2.10034
2.07979
2.05942
2.03913
2.01901
1.99925
1.97967
1.96106
1.94271
1.92592
1.90976
1.8963
1.88573
3.36043
2.82737
2.49554
2.32808
2.22172
2.10837
2.0032
1.92496
1.85183
1.7741
1.6966
1.63393
1.57917
1.53926
1.50537
1.46726
1.429
1.39218
1.36247
1.34263
1.32319
1.3033
1.28613
1.27618
1.27364
1.29269
1.33112
1.39333
1.47259
1.56033
1.64808
1.73303
1.81629
1.89473
1.96827
2.03711
2.10177
2.16262
2.21974
2.27225
2.32059
2.3641
2.40421
2.43968
2.47221
2.50058
2.52596
2.54742
2.56569
2.58059
2.59296
2.60252
2.61107
2.61719
2.62094
2.62039
2.61943
2.61661
2.61353
2.60807
2.60243
2.59451
2.58663
2.57668
2.56681
2.55524
2.54378
2.53098
2.51821
2.50425
2.49027
2.47524
2.4602
2.44426
2.42834
2.41161
2.39484
2.37734
2.35975
2.34145
2.32318
2.30414
2.28536
2.26567
2.24653
2.22628
2.20689
2.18617
2.16665
2.14558
2.12607
2.10498
2.08588
2.06508
2.04659
2.02654
2.00942
1.99128
1.977
1.96427
3.5121
3.05426
2.71216
2.49383
2.36656
2.26131
2.15523
2.06821
1.98607
1.91191
1.82984
1.76042
1.69323
1.62814
1.56475
1.51012
1.4643
1.42277
1.38731
1.35745
1.33315
1.3116
1.29458
1.28613
1.29011
1.31144
1.35752
1.42327
1.50353
1.59096
1.68305
1.77562
1.86593
1.95154
2.03354
2.109
2.1808
2.24627
2.30814
2.36372
2.41547
2.46119
2.50332
2.53995
2.57384
2.60263
2.62916
2.65087
2.67037
2.6854
2.69877
2.70816
2.71738
2.72387
2.72871
2.72827
2.72702
2.72374
2.72003
2.7143
2.7078
2.69943
2.69028
2.67944
2.66793
2.65499
2.64149
2.62675
2.61153
2.59522
2.57856
2.56102
2.54327
2.52473
2.50612
2.4867
2.46738
2.44724
2.42741
2.40673
2.3866
2.36553
2.34522
2.32389
2.30348
2.282
2.26161
2.24011
2.21993
2.19877
2.17894
2.15808
2.13854
2.11818
2.0992
2.07979
2.06197
2.04453
2.02922
2.01696
3.60952
3.21983
2.89675
2.66298
2.50734
2.39676
2.29176
2.20262
2.11775
2.03955
1.96272
1.88686
1.82051
1.75307
1.68943
1.62302
1.56141
1.50442
1.4563
1.4135
1.37887
1.35515
1.33852
1.33603
1.3407
1.36531
1.41582
1.48173
1.56015
1.64763
1.74098
1.83921
1.93723
2.03172
2.11985
2.20113
2.27522
2.34254
2.40411
2.45993
2.51065
2.5558
2.5961
2.6312
2.66226
2.68884
2.7119
2.73115
2.7473
2.76003
2.77032
2.77727
2.78384
2.78866
2.79207
2.79117
2.78844
2.78384
2.77902
2.77262
2.76569
2.75713
2.74797
2.73743
2.72641
2.71415
2.70148
2.6876
2.6734
2.65808
2.64253
2.62589
2.609
2.5911
2.57295
2.55394
2.53477
2.51485
2.49487
2.47417
2.4536
2.43228
2.41132
2.38955
2.36829
2.34628
2.32508
2.30303
2.28178
2.25961
2.23841
2.21633
2.19537
2.17364
2.15327
2.13234
2.11317
2.09402
2.07744
2.0631
3.67268
3.34247
3.0446
2.81061
2.63728
2.5116
2.40803
2.31616
2.23479
2.1555
2.08194
2.0072
1.93866
1.87122
1.8075
1.74359
1.68196
1.62457
1.57153
1.52794
1.48936
1.46288
1.44708
1.44422
1.45739
1.49954
1.54941
1.60936
1.67968
1.75843
1.83659
1.92111
2.01487
2.11019
2.20188
2.28582
2.3611
2.42657
2.48554
2.53768
2.5853
2.62747
2.66585
2.69909
2.72925
2.75461
2.77736
2.79602
2.81231
2.82509
2.83571
2.84248
2.84882
2.85339
2.8567
2.85653
2.85325
2.84789
2.84173
2.83427
2.82597
2.8164
2.80593
2.79431
2.78175
2.76818
2.75377
2.73858
2.72273
2.70622
2.68921
2.67153
2.65357
2.63484
2.61607
2.59636
2.57685
2.55621
2.53608
2.5147
2.4941
2.47224
2.45136
2.42934
2.40851
2.38644
2.36548
2.34341
2.32245
2.30044
2.27959
2.25777
2.23714
2.21569
2.19548
2.17473
2.15539
2.1362
2.11899
2.10414
3.71754
3.43177
3.16179
2.93368
2.75375
2.61573
2.50705
2.41316
2.33331
2.25574
2.18446
2.11279
2.04526
1.9801
1.91638
1.85641
1.7955
1.74228
1.69134
1.6539
1.62432
1.60575
1.59536
1.60607
1.65094
1.69833
1.73919
1.78361
1.83034
1.87526
1.93178
1.98257
2.04068
2.12182
2.21466
2.30526
2.38801
2.45948
2.52244
2.57657
2.62536
2.66887
2.70798
2.74303
2.77431
2.80153
2.82557
2.84581
2.86314
2.877
2.8883
2.89603
2.90215
2.90689
2.91075
2.9119
2.90982
2.90515
2.89923
2.89168
2.88348
2.87378
2.86359
2.85181
2.83961
2.82583
2.81179
2.79623
2.78053
2.7634
2.74619
2.72764
2.70906
2.68925
2.66948
2.64864
2.62795
2.60637
2.58507
2.56294
2.54127
2.51903
2.49719
2.47467
2.45259
2.42978
2.40748
2.38447
2.36211
2.33908
2.31682
2.29406
2.27213
2.24998
2.22864
2.20749
2.18717
2.16778
2.14965
2.13436
3.7521
3.50055
3.25566
3.03735
2.85616
2.71036
2.59524
2.49823
2.41582
2.34096
2.27039
2.20355
2.13669
2.07569
2.01261
1.95647
1.89838
1.84966
1.80613
1.78109
1.76035
1.75032
1.7597
1.81494
1.88224
1.9227
1.94691
1.97097
1.98794
1.98951
2.0133
2.04111
2.07901
2.12896
2.19811
2.29018
2.38284
2.46989
2.54653
2.6112
2.66637
2.71301
2.75407
2.78982
2.8212
2.84862
2.873
2.89301
2.91039
2.92373
2.9348
2.94223
2.94699
2.95044
2.95322
2.9539
2.9521
2.94701
2.94055
2.93234
2.92348
2.91318
2.90233
2.89014
2.87738
2.86342
2.84888
2.83332
2.81724
2.80027
2.78286
2.76459
2.74596
2.72639
2.70662
2.68579
2.66499
2.64311
2.62156
2.59922
2.57735
2.55456
2.53243
2.50939
2.48706
2.46391
2.44141
2.41829
2.39567
2.37266
2.34998
2.32713
2.30452
2.28195
2.25972
2.23776
2.21645
2.19584
2.17679
2.15977
3.77869
3.55312
3.33052
3.12461
2.94661
2.7966
2.67567
2.57454
2.48921
2.4138
2.34387
2.27997
2.21524
2.15666
2.09745
2.04313
1.99184
1.94747
1.92181
1.90255
1.89187
1.90372
1.9536
2.06483
2.13846
2.15547
2.17152
2.17488
2.14628
2.11517
2.10123
2.11732
2.13845
2.17015
2.21202
2.26936
2.34657
2.43574
2.52443
2.6033
2.67134
2.72579
2.77165
2.80853
2.84068
2.86768
2.89147
2.91189
2.92932
2.94363
2.95514
2.9636
2.96916
2.9723
2.97493
2.97633
2.97591
2.97205
2.96628
2.95857
2.94974
2.9395
2.92852
2.91634
2.90347
2.88943
2.87474
2.8589
2.84257
2.8251
2.80735
2.78846
2.76951
2.74943
2.72947
2.70843
2.68772
2.66617
2.64503
2.62292
2.6012
2.57853
2.55622
2.53312
2.51039
2.48706
2.46414
2.44081
2.41799
2.39484
2.3723
2.34944
2.32727
2.30477
2.28304
2.26106
2.24004
2.21915
2.2
2.1822
3.80458
3.59691
3.3927
3.19798
3.02529
2.87488
2.74909
2.6442
2.55513
2.47818
2.40883
2.34467
2.28368
2.22665
2.17088
2.12072
2.07496
2.04817
2.02928
2.02197
2.02924
2.07598
2.21227
2.34484
2.39083
2.4008
2.39859
2.36402
2.29984
2.24536
2.21016
2.19383
2.20245
2.2175
2.24038
2.27492
2.31868
2.37511
2.4557
2.5415
2.62404
2.69619
2.75621
2.80373
2.84216
2.87292
2.89879
2.92067
2.9396
2.95548
2.96866
2.97872
2.9864
2.99048
2.99355
2.99518
2.99596
2.99381
2.98921
2.982
2.97373
2.96357
2.95286
2.94055
2.92788
2.91374
2.89931
2.88346
2.86734
2.84992
2.83223
2.81332
2.79419
2.77388
2.75352
2.73222
2.71112
2.68916
2.66742
2.64496
2.62266
2.59978
2.57704
2.55385
2.53081
2.50741
2.48415
2.46065
2.4373
2.41385
2.3906
2.36741
2.34446
2.32175
2.2993
2.2773
2.25567
2.23485
2.2152
2.1972
3.82911
3.63527
3.44486
3.26173
3.09403
2.94587
2.81764
2.70867
2.61667
2.53649
2.46654
2.40254
2.34313
2.28766
2.23637
2.19099
2.15843
2.14497
2.13578
2.14423
2.18877
2.30971
2.51847
2.62567
2.63421
2.63232
2.60757
2.52581
2.44492
2.37768
2.32893
2.29593
2.27932
2.27659
2.28734
2.30325
2.32905
2.35958
2.40447
2.46743
2.5477
2.63026
2.70681
2.77226
2.82465
2.86553
2.897
2.92219
2.94233
2.95936
2.97338
2.98471
2.9936
2.99948
3.00262
3.00448
3.00574
3.00521
3.00235
2.99652
2.98905
2.97977
2.96945
2.95783
2.94539
2.93185
2.91758
2.90224
2.88632
2.86927
2.85184
2.83318
2.81431
2.79429
2.7744
2.75347
2.73268
2.71095
2.68932
2.66687
2.64453
2.62153
2.59864
2.57527
2.55203
2.52849
2.50507
2.48146
2.45799
2.43441
2.41102
2.38755
2.36439
2.34117
2.31843
2.29572
2.27376
2.25201
2.23203
2.21274
3.85384
3.67153
3.49159
3.31782
3.15626
3.00934
2.88193
2.76928
2.67454
2.59148
2.51959
2.45499
2.39699
2.34358
2.29649
2.26152
2.24907
2.23998
2.25003
2.28585
2.39133
2.64047
2.82234
2.86158
2.86228
2.83976
2.76912
2.6704
2.58283
2.51036
2.45266
2.40783
2.37488
2.35333
2.3408
2.34444
2.35359
2.36811
2.39067
2.421
2.46664
2.53478
2.61222
2.69091
2.76166
2.82107
2.86695
2.90228
2.92843
2.949
2.96508
2.97837
2.98894
2.99693
3.00255
3.00487
3.00681
3.00737
3.00674
3.00267
2.99661
2.98806
2.97852
2.96715
2.95515
2.94164
2.9276
2.91218
2.89629
2.87908
2.86143
2.84247
2.82335
2.80325
2.78313
2.7621
2.74115
2.71936
2.69769
2.67533
2.65303
2.63023
2.6074
2.58425
2.56103
2.53761
2.51419
2.49064
2.46718
2.44366
2.42032
2.39701
2.3739
2.35099
2.32826
2.30596
2.28394
2.2626
2.2425
2.22333
3.88025
3.70633
3.53484
3.36887
3.21352
3.06937
2.94141
2.82865
2.72942
2.64449
2.56992
2.50391
2.44697
2.39661
2.35514
2.34396
2.33796
2.34384
2.38148
2.47773
2.71921
2.97665
3.06975
3.0712
3.05505
3.00191
2.89745
2.79763
2.71119
2.6378
2.57556
2.52291
2.4788
2.44341
2.41595
2.39828
2.3867
2.39305
2.40143
2.41399
2.4359
2.46796
2.52042
2.59036
2.6679
2.7424
2.8091
2.86206
2.90298
2.9323
2.95429
2.97042
2.98299
2.99273
3.00001
3.00471
3.00703
3.00833
3.00908
3.00773
3.00366
2.99676
2.98825
2.97788
2.96657
2.9538
2.94039
2.92569
2.91048
2.89397
2.87696
2.85876
2.84031
2.82071
2.80097
2.78018
2.75922
2.73746
2.71545
2.69293
2.67016
2.64708
2.62385
2.60037
2.5769
2.55314
2.52956
2.50567
2.48205
2.45819
2.43461
2.41095
2.38754
2.36428
2.34125
2.3186
2.29632
2.27461
2.25433
2.23453
3.91119
3.74181
3.57865
3.41882
3.26872
3.12812
2.99996
2.88573
2.78577
2.69601
2.62113
2.55286
2.49769
2.45063
2.43394
2.42778
2.43525
2.46997
2.56247
2.78696
3.09156
3.24771
3.25064
3.24274
3.20812
3.11547
3.00921
2.91471
2.83219
2.75983
2.69506
2.6372
2.5855
2.54016
2.501
2.46898
2.44411
2.42747
2.42121
2.42618
2.43311
2.4452
2.46754
2.50345
2.56145
2.63299
2.70859
2.78085
2.84122
2.88957
2.92421
2.94957
2.96675
2.97955
2.98865
2.99518
2.99966
3.00103
3.00245
3.00255
3.00135
2.99663
2.9898
2.9806
2.97027
2.95819
2.94537
2.93105
2.9161
2.89968
2.88277
2.86474
2.84624
2.8268
2.80699
2.78635
2.76548
2.74387
2.72213
2.69973
2.67727
2.65427
2.63125
2.60784
2.58445
2.56082
2.53726
2.51358
2.49
2.46642
2.44291
2.41954
2.39619
2.37318
2.35017
2.32768
2.30539
2.28372
2.26343
2.24339
3.94701
3.78017
3.62229
3.46821
3.32142
3.18388
3.05699
2.94138
2.83998
2.74914
2.67068
2.60497
2.5499
2.52445
2.51878
2.52463
2.55762
2.64585
2.85243
3.18594
3.38704
3.41553
3.40983
3.3801
3.30239
3.20275
3.10891
3.02423
2.94712
2.87638
2.81019
2.74886
2.69147
2.63907
2.59139
2.54938
2.51305
2.48321
2.46097
2.44528
2.44438
2.44809
2.45461
2.4672
2.49255
2.53405
2.59778
2.66945
2.74438
2.81194
2.86845
2.91036
2.94069
2.96086
2.9748
2.9841
2.99062
2.99424
2.99607
2.99698
2.99748
2.99573
2.99138
2.98394
2.9749
2.96383
2.95179
2.93817
2.92374
2.90797
2.89164
2.87412
2.85618
2.83712
2.81768
2.79729
2.77657
2.7551
2.73335
2.71102
2.68851
2.6655
2.64243
2.6189
2.59545
2.57161
2.54793
2.52402
2.50026
2.4765
2.4528
2.42936
2.40587
2.38286
2.35979
2.33734
2.31507
2.29339
2.27319
2.25291
3.99369
3.82479
3.66905
3.51989
3.37589
3.24043
3.11445
2.9986
2.89504
2.80358
2.72552
2.66023
2.62133
2.61517
2.61798
2.64851
2.73065
2.92026
3.27042
3.50957
3.56107
3.55674
3.53237
3.4683
3.37474
3.285
3.20407
3.12833
3.05646
2.98705
2.91997
2.85573
2.79424
2.73667
2.68284
2.63371
2.58925
2.55002
2.51641
2.48959
2.46928
2.46053
2.45847
2.46234
2.46886
2.48302
2.51123
2.56076
2.62593
2.70039
2.77228
2.83682
2.88726
2.92482
2.9498
2.96636
2.97653
2.98287
2.98634
2.98747
2.98856
2.98831
2.98677
2.9817
2.97465
2.96511
2.95421
2.94147
2.92767
2.91245
2.89648
2.87933
2.86158
2.84279
2.82351
2.80332
2.78277
2.76146
2.73986
2.71767
2.69524
2.67238
2.64933
2.626
2.60255
2.57893
2.55525
2.53154
2.50781
2.48422
2.46058
2.43727
2.41389
2.39099
2.36809
2.34573
2.32368
2.30207
2.28211
2.26179
4.05655
3.87695
3.71801
3.57065
3.42969
3.2959
3.17094
3.05584
2.95168
2.85973
2.78581
2.72796
2.72038
2.72198
2.74784
2.82144
2.99695
3.35353
3.61475
3.69169
3.68896
3.66925
3.6176
3.5304
3.44572
3.36914
3.29742
3.22803
3.15923
3.0912
3.02353
2.95757
2.8933
2.8322
2.77405
2.71986
2.66944
2.62355
2.58212
2.5461
2.51528
2.49191
2.47487
2.47148
2.46597
2.47041
2.4776
2.49425
2.52924
2.58413
2.65247
2.72545
2.79646
2.85562
2.90208
2.93349
2.9544
2.96656
2.97368
2.97646
2.97802
2.97848
2.97848
2.97614
2.97124
2.96368
2.95434
2.9428
2.93001
2.91566
2.90049
2.88402
2.86689
2.8486
2.82976
2.80992
2.78963
2.76855
2.74709
2.72505
2.70268
2.67993
2.6569
2.63366
2.61021
2.58668
2.56299
2.53937
2.51562
2.49212
2.46851
2.44526
2.42201
2.39917
2.3765
2.35425
2.33251
2.31111
2.29149
2.27142
4.12982
3.93771
3.77284
3.62434
3.4844
3.35238
3.22839
3.11477
3.01244
2.92539
2.85391
2.83684
2.834
2.85559
2.92337
3.08846
3.44414
3.71911
3.81586
3.81371
3.79702
3.75201
3.67071
3.59045
3.5192
3.45228
3.38807
3.3228
3.25662
3.18859
3.12092
3.05324
2.98784
2.92415
2.86365
2.80571
2.75168
2.70063
2.65413
2.61117
2.57309
2.54017
2.51219
2.49095
2.47903
2.47298
2.46959
2.47427
2.48336
2.50279
2.54377
2.6031
2.67411
2.74704
2.81431
2.86897
2.90971
2.93624
2.95227
2.96091
2.96435
2.96531
2.96584
2.96503
2.96249
2.9572
2.94988
2.94013
2.9287
2.91542
2.90104
2.88525
2.86872
2.85099
2.83268
2.81332
2.7935
2.77283
2.75174
2.73003
2.70793
2.68543
2.66258
2.63952
2.61619
2.59282
2.56924
2.54576
2.52215
2.49878
2.47535
2.45227
2.42924
2.40665
2.38423
2.36235
2.34094
2.32002
2.30083
2.28136
4.21665
4.00918
3.83286
3.67947
3.54054
3.40908
3.28729
3.17493
3.07862
2.99794
2.96598
2.96052
2.97861
3.04061
3.19713
3.54842
3.8318
3.93896
3.93695
3.92174
3.88028
3.79999
3.72405
3.65686
3.59686
3.53744
3.47746
3.41359
3.34836
3.28048
3.21306
3.14521
3.07932
3.01419
2.95203
2.89169
2.83465
2.78034
2.72968
2.68213
2.63862
2.59815
2.5628
2.53164
2.50633
2.48834
2.47897
2.47057
2.46868
2.47392
2.48544
2.50947
2.5582
2.62089
2.69163
2.76457
2.82707
2.8776
2.91182
2.93379
2.94519
2.94977
2.95099
2.95114
2.95028
2.94707
2.9418
2.93403
2.9244
2.91267
2.89954
2.88479
2.86904
2.85202
2.83425
2.8155
2.79609
2.77593
2.75516
2.73388
2.71203
2.68986
2.66723
2.64442
2.62127
2.5981
2.57469
2.5514
2.52795
2.50477
2.48152
2.45864
2.43583
2.4135
2.3914
2.3699
2.34897
2.3287
2.31012
2.29174
4.25107
4.09604
3.90216
3.74096
3.59877
3.46992
3.35057
3.24498
3.15491
3.10958
3.10128
3.11595
3.17352
3.32439
3.67244
3.9596
4.07206
4.07
4.05348
4.00965
3.9278
3.8516
3.78826
3.73171
3.67793
3.62186
3.56332
3.50089
3.43639
3.36937
3.30226
3.23435
3.16795
3.10205
3.03867
2.97662
2.91788
2.86097
2.8074
2.75605
2.70788
2.66276
2.62125
2.58319
2.54976
2.521
2.49758
2.48338
2.47252
2.46397
2.46682
2.47257
2.48616
2.51448
2.56875
2.63395
2.7058
2.77554
2.83451
2.87856
2.90817
2.92415
2.93187
2.93282
2.93314
2.93191
2.92876
2.92296
2.91513
2.90531
2.89386
2.88062
2.86606
2.85005
2.83306
2.81501
2.79621
2.7766
2.75635
2.7355
2.71408
2.69231
2.67002
2.64758
2.62469
2.60185
2.57865
2.55566
2.53245
2.50956
2.4866
2.46407
2.44164
2.41977
2.3982
2.37737
2.35713
2.33787
2.32015
2.30353
4.26128
4.16851
3.97792
3.80572
3.66151
3.5324
3.41934
3.32328
3.26751
3.25615
3.26807
3.32292
3.47196
3.81995
4.10692
4.21835
4.2154
4.19553
4.14457
4.05642
3.97854
3.91631
3.86282
3.81252
3.76059
3.70573
3.64703
3.58516
3.52069
3.45456
3.38777
3.32057
3.25419
3.18833
3.1243
3.06143
3.00094
2.94193
2.8857
2.83147
2.78002
2.73129
2.68505
2.64233
2.60239
2.56657
2.53493
2.50789
2.48834
2.47427
2.46351
2.45582
2.45991
2.46766
2.4844
2.51875
2.57604
2.6425
2.71492
2.78023
2.83513
2.8729
2.89713
2.90845
2.91131
2.91138
2.9106
2.90722
2.90111
2.89294
2.88332
2.87191
2.85884
2.84428
2.82836
2.81139
2.7933
2.77452
2.7548
2.73469
2.71374
2.69259
2.67073
2.64882
2.62634
2.60393
2.58112
2.55849
2.53565
2.51313
2.49055
2.4685
2.44653
2.42532
2.40439
2.38453
2.36526
2.34755
2.33108
2.3173
4.23597
4.19151
4.0756
3.89006
3.73337
3.60629
3.50018
3.4366
3.42262
3.43299
3.48823
3.64114
3.99577
4.28137
4.38472
4.37969
4.35284
4.28883
4.19369
4.11278
4.04812
3.99578
3.94679
3.89794
3.84543
3.79002
3.73053
3.669
3.60463
3.53952
3.47286
3.4065
3.33977
3.27406
3.20899
3.1454
3.08322
3.02287
2.96452
2.90806
2.85401
2.80186
2.75244
2.70527
2.66116
2.61985
2.58218
2.54783
2.51833
2.49293
2.47625
2.46063
2.44956
2.44441
2.44881
2.45837
2.47877
2.52109
2.57921
2.64748
2.71824
2.77996
2.82888
2.86118
2.87917
2.88597
2.8863
2.88537
2.88245
2.87601
2.86833
2.85841
2.84696
2.83378
2.81939
2.80362
2.78674
2.76887
2.75006
2.73069
2.71049
2.69003
2.66885
2.6476
2.62579
2.604
2.58182
2.55983
2.53754
2.5157
2.49365
2.47234
2.451
2.43073
2.4107
2.39218
2.37431
2.3588
2.34429
2.3345
4.21417
4.19405
4.13181
3.98251
3.81927
3.69054
3.61655
3.59963
3.60876
3.66834
3.83181
4.19935
4.48366
4.57289
4.56447
4.52791
4.44454
4.34065
4.25462
4.18611
4.13234
4.08253
4.03491
3.98335
3.92996
3.87207
3.8127
3.75016
3.6867
3.62128
3.55538
3.48876
3.42218
3.35614
3.29059
3.22654
3.16333
3.10203
3.04189
2.98377
2.92725
2.87286
2.82062
2.77052
2.72312
2.6778
2.63565
2.59578
2.55975
2.52681
2.49828
2.47593
2.45831
2.44327
2.43071
2.43187
2.43617
2.44697
2.46923
2.51899
2.57833
2.64809
2.71438
2.77316
2.81451
2.84154
2.8546
2.8554
2.85506
2.85303
2.84808
2.83988
2.82952
2.81819
2.80508
2.79107
2.77538
2.75896
2.74125
2.72291
2.70375
2.68404
2.66384
2.64327
2.62233
2.60134
2.57994
2.55885
2.53736
2.51649
2.49536
2.47514
2.45492
2.43597
2.41747
2.40077
2.38519
2.37284
2.36148
2.35454
4.12188
4.18282
4.15213
4.07475
3.91892
3.81102
3.79039
3.79739
3.86353
4.04448
4.4322
4.71562
4.78653
4.77364
4.72678
4.61504
4.50052
4.40484
4.33309
4.27422
4.224
4.17369
4.124
4.06967
4.01431
3.95458
3.89452
3.83112
3.76793
3.70216
3.63684
3.56989
3.50373
3.43708
3.37155
3.30649
3.24271
3.18004
3.11876
3.05904
3.00088
2.94469
2.89008
2.83783
2.78712
2.73898
2.69264
2.64895
2.60766
2.56921
2.53403
2.50253
2.4751
2.45519
2.43492
2.42047
2.40912
2.41192
2.41758
2.43079
2.45873
2.51026
2.57227