/*--------------------------------*- C++ -*----------------------------------*\
  =========                 |
  \\      /  F ield         | OpenFOAM: The Open Source CFD Toolbox
   \\    /   O peration     | Website:  https://openfoam.org
    \\  /    A nd           | Version:  10
     \\/     M anipulation  |
\*---------------------------------------------------------------------------*/
FoamFile
{
    format      ascii;
    class       volVectorField;
    location    "6.5";
    object      U;
}
// * * * * * * * * * * * * * * * * * * * * * * * * * * * * * * * * * * * * * //

dimensions      [0 1 -1 0 0 0 0];

internalField   nonuniform List<vector> 
5250
(
(3 2.16877e-08 0)
(2.99999 5.90445e-08 0)
(2.99996 3.14238e-07 0)
(2.9999 6.43064e-07 0)
(2.99975 2.26454e-06 0)
(2.99939 3.55808e-06 0)
(2.99849 1.67308e-05 0)
(2.99628 1.71149e-05 0)
(2.99076 0.00010758 0)
(2.97691 0.000122022 0)
(2.94069 0.00055148 0)
(2.84078 0.00112515 0)
(2.54917 0.00343152 0)
(1.71355 0.00963081 0)
(0.78739 0.0250342 0)
(0.493768 0.0238972 0)
(0.546951 0.0241332 0)
(0.556471 0.0259208 0)
(0.503748 0.0277602 0)
(0.416131 0.029669 0)
(0.332633 0.0319816 0)
(0.263835 0.0347243 0)
(0.194741 0.0375957 0)
(0.116326 0.0408655 0)
(0.0501446 0.045203 0)
(3 2.16135e-08 0)
(2.99999 3.13344e-07 0)
(2.99996 5.29307e-07 0)
(2.9999 3.08626e-06 0)
(2.99975 4.01832e-06 0)
(2.9994 1.88159e-05 0)
(2.9985 2.88902e-05 0)
(2.99635 0.000107436 0)
(2.99085 0.000199203 0)
(2.97728 0.000617125 0)
(2.94155 0.00135135 0)
(2.84307 0.00387178 0)
(2.55645 0.0103212 0)
(1.73056 0.0300833 0)
(0.797465 0.076207 0)
(0.490282 0.0688797 0)
(0.546043 0.066544 0)
(0.556707 0.0694739 0)
(0.503756 0.0725146 0)
(0.416179 0.0757844 0)
(0.33273 0.0796087 0)
(0.263439 0.0838647 0)
(0.193414 0.0877901 0)
(0.113825 0.0915111 0)
(0.0472438 0.0947842 0)
(3 4.35277e-08 0)
(2.99999 4.55361e-07 0)
(2.99996 1.16723e-06 0)
(2.9999 4.37857e-06 0)
(2.99977 8.68032e-06 0)
(2.99941 2.93464e-05 0)
(2.99857 5.18588e-05 0)
(2.99642 0.000185682 0)
(2.99119 0.000320023 0)
(2.97786 0.00109142 0)
(2.94345 0.00225558 0)
(2.84811 0.00660769 0)
(2.57136 0.0176009 0)
(1.76941 0.0514509 0)
(0.820852 0.131816 0)
(0.48579 0.11673 0)
(0.547397 0.111598 0)
(0.560966 0.116784 0)
(0.508101 0.122526 0)
(0.421025 0.129217 0)
(0.33788 0.136477 0)
(0.268107 0.144216 0)
(0.196995 0.151535 0)
(0.115834 0.158015 0)
(0.0472279 0.162202 0)
(3 1.09076e-07 0)
(2.99999 4.5384e-07 0)
(2.99996 2.2176e-06 0)
(2.99991 4.42468e-06 0)
(2.99978 1.61156e-05 0)
(2.99944 3.08622e-05 0)
(2.99863 9.83928e-05 0)
(2.99658 0.000198745 0)
(2.9916 0.000585611 0)
(2.97889 0.00127557 0)
(2.94613 0.00353668 0)
(2.85596 0.00878264 0)
(2.59377 0.0249559 0)
(1.82992 0.0715989 0)
(0.857525 0.187227 0)
(0.480312 0.164044 0)
(0.551479 0.155858 0)
(0.569881 0.163369 0)
(0.517484 0.171996 0)
(0.431297 0.182502 0)
(0.348463 0.193556 0)
(0.278139 0.205279 0)
(0.205573 0.216823 0)
(0.121765 0.226993 0)
(0.049358 0.232659 0)
(3 1.02791e-07 0)
(2.99999 6.92228e-07 0)
(2.99997 2.21688e-06 0)
(2.99992 6.8421e-06 0)
(2.99979 1.67011e-05 0)
(2.99948 4.50921e-05 0)
(2.99871 0.000109323 0)
(2.99683 0.00027421 0)
(2.99208 0.000687917 0)
(2.98033 0.00169297 0)
(2.94967 0.00430501 0)
(2.8661 0.0112771 0)
(2.62381 0.0311889 0)
(1.91117 0.0902177 0)
(0.90838 0.241306 0)
(0.476061 0.211655 0)
(0.559361 0.200175 0)
(0.58405 0.209565 0)
(0.532307 0.220822 0)
(0.447234 0.235246 0)
(0.364553 0.250349 0)
(0.293594 0.2665 0)
(0.219306 0.282951 0)
(0.13173 0.297842 0)
(0.0535567 0.306011 0)
(3 1.04158e-07 0)
(2.99999 8.4915e-07 0)
(2.99997 2.38537e-06 0)
(2.99992 8.27656e-06 0)
(2.99981 1.82469e-05 0)
(2.99952 5.39212e-05 0)
(2.99882 0.000119655 0)
(2.99706 0.000330893 0)
(2.99279 0.000760782 0)
(2.9819 0.0020266 0)
(2.95416 0.004906 0)
(2.8783 0.0132069 0)
(2.6603 0.0360552 0)
(2.01371 0.104838 0)
(0.976223 0.289225 0)
(0.479022 0.259658 0)
(0.573849 0.24563 0)
(0.605315 0.256028 0)
(0.554289 0.269482 0)
(0.470505 0.288176 0)
(0.387683 0.308027 0)
(0.315775 0.329673 0)
(0.239307 0.352542 0)
(0.146722 0.374285 0)
(0.0605077 0.387316 0)
(3 1.37145e-07 0)
(2.99999 7.95134e-07 0)
(2.99997 2.98014e-06 0)
(2.99993 7.76597e-06 0)
(2.99983 2.21936e-05 0)
(2.99957 5.25416e-05 0)
(2.99894 0.000139053 0)
(2.99736 0.000335233 0)
(2.9935 0.000851138 0)
(2.98378 0.0021208 0)
(2.95903 0.00536118 0)
(2.89202 0.0140131 0)
(2.70112 0.0386803 0)
(2.13307 0.112412 0)
(1.06525 0.32343 0)
(0.501066 0.308985 0)
(0.599674 0.296193 0)
(0.636209 0.305365 0)
(0.585993 0.319436 0)
(0.50368 0.342003 0)
(0.420281 0.367127 0)
(0.347149 0.395489 0)
(0.268337 0.426877 0)
(0.169713 0.459124 0)
(0.0720988 0.482131 0)
(3 1.36963e-07 0)
(2.99999 7.36149e-07 0)
(2.99998 2.85169e-06 0)
(2.99994 7.23921e-06 0)
(2.99984 2.11563e-05 0)
(2.99961 4.84107e-05 0)
(2.99906 0.000134009 0)
(2.99765 0.000300703 0)
(2.99428 0.000822385 0)
(2.98567 0.00188054 0)
(2.96405 0.00503683 0)
(2.90625 0.0125089 0)
(2.74298 0.0347107 0)
(2.26426 0.0990314 0)
(1.1873 0.293747 0)
(0.562475 0.340319 0)
(0.64408 0.3474 0)
(0.678479 0.356011 0)
(0.628906 0.370887 0)
(0.548657 0.397333 0)
(0.464592 0.428504 0)
(0.390217 0.464978 0)
(0.309688 0.507215 0)
(0.20554 0.555187 0)
(0.0923821 0.599105 0)
(3 1.1067e-07 0)
(2.99999 6.94629e-07 0)
(2.99998 2.38742e-06 0)
(2.99994 6.73727e-06 0)
(2.99986 1.77768e-05 0)
(2.99966 4.42757e-05 0)
(2.99915 0.000112868 0)
(2.99793 0.000269987 0)
(2.99482 0.000687938 0)
(2.98729 0.001654 0)
(2.96788 0.00418861 0)
(2.91679 0.0105678 0)
(2.7733 0.0282822 0)
(2.35016 0.0792225 0)
(1.29979 0.234513 0)
(0.604502 0.376092 0)
(0.664496 0.408615 0)
(0.701956 0.408069 0)
(0.665257 0.424249 0)
(0.595353 0.452954 0)
(0.516302 0.491515 0)
(0.444484 0.537211 0)
(0.36652 0.592688 0)
(0.263014 0.665512 0)
(0.12992 0.753506 0)
(3 9.55593e-08 0)
(2.99999 6.62208e-07 0)
(2.99998 2.19375e-06 0)
(2.99995 6.46743e-06 0)
(2.99988 1.62854e-05 0)
(2.99969 4.34865e-05 0)
(2.99925 0.00010007 0)
(2.99813 0.000271294 0)
(2.99543 0.000598309 0)
(2.98858 0.00165243 0)
(2.97147 0.0037482 0)
(2.92628 0.0100698 0)
(2.79967 0.026018 0)
(2.42946 0.073161 0)
(1.44422 0.215255 0)
(0.687415 0.427815 0)
(0.672391 0.460834 0)
(0.704311 0.456198 0)
(0.691118 0.475042 0)
(0.638482 0.505436 0)
(0.572138 0.552067 0)
(0.508722 0.607676 0)
(0.44383 0.68223 0)
(0.358663 0.797737 0)
(0.2014 1.00569 0)
(3 1.1038e-07 0)
(2.99999 6.24657e-07 0)
(2.99998 2.29001e-06 0)
(2.99996 6.12784e-06 0)
(2.99989 1.68317e-05 0)
(2.99973 4.02954e-05 0)
(2.99934 0.000106427 0)
(2.99835 0.000244476 0)
(2.99597 0.000655145 0)
(2.98992 0.00148433 0)
(2.97489 0.00397391 0)
(2.93536 0.0095644 0)
(2.82553 0.0258808 0)
(2.50587 0.0714009 0)
(1.61358 0.20897 0)
(0.795121 0.473629 0)
(0.679296 0.491372 0)
(0.710428 0.493513 0)
(0.714243 0.515813 0)
(0.67964 0.551202 0)
(0.630922 0.603515 0)
(0.585251 0.669496 0)
(0.553397 0.762022 0)
(0.550575 0.906037 0)
(0.587565 1.15052 0)
(3 1.07816e-07 0)
(2.99999 6.24528e-07 0)
(2.99998 2.26824e-06 0)
(2.99996 6.09758e-06 0)
(2.9999 1.6655e-05 0)
(2.99977 4.04141e-05 0)
(2.99942 0.000105051 0)
(2.99859 0.000248647 0)
(2.99646 0.000647084 0)
(2.99135 0.00152274 0)
(2.97821 0.00396068 0)
(2.94448 0.00971455 0)
(2.85131 0.0259122 0)
(2.58111 0.0715061 0)
(1.80326 0.207693 0)
(0.92392 0.517019 0)
(0.690199 0.521078 0)
(0.722731 0.524651 0)
(0.740694 0.547099 0)
(0.72177 0.588305 0)
(0.691699 0.643958 0)
(0.669164 0.717464 0)
(0.672378 0.817656 0)
(0.729111 0.956969 0)
(0.868685 1.13955 0)
(3 9.83293e-08 0)
(3 6.34326e-07 0)
(2.99999 2.14661e-06 0)
(2.99997 6.21548e-06 0)
(2.99992 1.59652e-05 0)
(2.9998 4.14129e-05 0)
(2.99951 0.000101124 0)
(2.9988 0.00025719 0)
(2.99703 0.000623194 0)
(2.99268 0.00158103 0)
(2.98172 0.00388743 0)
(2.95365 0.00989392 0)
(2.87706 0.0258177 0)
(2.65748 0.0713729 0)
(2.01069 0.206881 0)
(1.07757 0.553976 0)
(0.716876 0.558444 0)
(0.746533 0.560478 0)
(0.774362 0.575618 0)
(0.768605 0.61774 0)
(0.754044 0.675401 0)
(0.753262 0.749679 0)
(0.781875 0.844675 0)
(0.862771 0.959824 0)
(1.02001 1.0726 0)
(3 9.09401e-08 0)
(3 6.00294e-07 0)
(2.99999 1.97549e-06 0)
(2.99997 5.87616e-06 0)
(2.99993 1.48302e-05 0)
(2.99984 3.87005e-05 0)
(2.9996 9.52145e-05 0)
(2.99903 0.000238189 0)
(2.99756 0.000591692 0)
(2.99407 0.00145861 0)
(2.98514 0.00367511 0)
(2.96276 0.00915452 0)
(2.90265 0.0239132 0)
(2.73295 0.0652508 0)
(2.23409 0.188378 0)
(1.27387 0.537903 0)
(0.788365 0.592642 0)
(0.792392 0.603493 0)
(0.818991 0.608959 0)
(0.824249 0.64451 0)
(0.819313 0.699462 0)
(0.83147 0.768222 0)
(0.874085 0.849674 0)
(0.960399 0.938793 0)
(1.10828 1.01114 0)
(3 7.35656e-08 0)
(3 5.2242e-07 0)
(2.99999 1.65952e-06 0)
(2.99998 5.07511e-06 0)
(2.99995 1.23902e-05 0)
(2.99987 3.34929e-05 0)
(2.99968 7.77164e-05 0)
(2.99922 0.000207101 0)
(2.99805 0.000475507 0)
(2.99525 0.00126116 0)
(2.98813 0.0029344 0)
(2.97052 0.00768504 0)
(2.92395 0.0190138 0)
(2.79484 0.0517018 0)
(2.42105 0.145452 0)
(1.4987 0.434205 0)
(0.888573 0.615488 0)
(0.845865 0.643602 0)
(0.864994 0.651145 0)
(0.8815 0.6738 0)
(0.88459 0.719504 0)
(0.902886 0.778601 0)
(0.950519 0.845287 0)
(1.03456 0.913151 0)
(1.16672 0.964179 0)
(3 6.4153e-08 0)
(3 4.25331e-07 0)
(2.99999 1.43404e-06 0)
(2.99998 4.14434e-06 0)
(2.99996 1.05893e-05 0)
(2.99989 2.76022e-05 0)
(2.99974 6.5468e-05 0)
(2.99936 0.000170577 0)
(2.99844 0.000393123 0)
(2.99612 0.00103198 0)
(2.9905 0.0023822 0)
(2.97615 0.00622414 0)
(2.93924 0.0150842 0)
(2.83725 0.0402854 0)
(2.54338 0.110484 0)
(1.7339 0.32746 0)
(1.00589 0.649878 0)
(0.881708 0.680359 0)
(0.897838 0.69277 0)
(0.924934 0.703447 0)
(0.941787 0.737621 0)
(0.965875 0.785846 0)
(1.01445 0.839329 0)
(1.09337 0.891066 0)
(1.20936 0.928862 0)
(3 5.82463e-08 0)
(3 3.55929e-07 0)
(2.99999 1.25235e-06 0)
(2.99999 3.4843e-06 0)
(2.99997 9.29137e-06 0)
(2.99992 2.30852e-05 0)
(2.9998 5.86523e-05 0)
(2.99949 0.000141576 0)
(2.99876 0.000357893 0)
(2.99691 0.000859054 0)
(2.99246 0.00217719 0)
(2.98109 0.00529718 0)
(2.95223 0.0134951 0)
(2.87353 0.0348901 0)
(2.64827 0.0961502 0)
(1.9957 0.279259 0)
(1.17305 0.680223 0)
(0.917708 0.712357 0)
(0.925723 0.725077 0)
(0.958444 0.728756 0)
(0.989618 0.751751 0)
(1.02027 0.790656 0)
(1.06853 0.833841 0)
(1.14147 0.873798 0)
(1.24294 0.902223 0)
(3 4.99442e-08 0)
(3 3.02634e-07 0)
(3 1.07048e-06 0)
(2.99999 2.95985e-06 0)
(2.99997 7.96705e-06 0)
(2.99993 1.963e-05 0)
(2.99984 5.04259e-05 0)
(2.99961 0.000120925 0)
(2.99904 0.000309055 0)
(2.99763 0.000740528 0)
(2.9942 0.00188275 0)
(2.98558 0.0045921 0)
(2.96389 0.0116539 0)
(2.90592 0.0299383 0)
(2.74375 0.0815871 0)
(2.2672 0.234847 0)
(1.39972 0.645941 0)
(0.994106 0.732544 0)
(0.970241 0.748186 0)
(0.994189 0.752414 0)
(1.03352 0.765135 0)
(1.07004 0.794831 0)
(1.11648 0.829381 0)
(1.18265 0.860554 0)
(1.27138 0.882104 0)
(3 4.0776e-08 0)
(3 2.46527e-07 0)
(3 8.74698e-07 0)
(2.99999 2.39426e-06 0)
(2.99998 6.48e-06 0)
(2.99995 1.57811e-05 0)
(2.99988 4.07376e-05 0)
(2.9997 9.70275e-05 0)
(2.99928 0.000247391 0)
(2.99822 0.000587918 0)
(2.99567 0.00149661 0)
(2.98924 0.00358489 0)
(2.97333 0.00914625 0)
(2.9318 0.0227983 0)
(2.81782 0.0612543 0)
(2.49034 0.171796 0)
(1.67249 0.507465 0)
(1.10763 0.739587 0)
(1.02607 0.768157 0)
(1.03674 0.779841 0)
(1.07535 0.783978 0)
(1.11592 0.802448 0)
(1.16021 0.827882 0)
(1.21957 0.851524 0)
(1.29716 0.867574 0)
(3 3.11398e-08 0)
(3 1.96947e-07 0)
(3 6.6722e-07 0)
(2.99999 1.91721e-06 0)
(2.99998 4.95302e-06 0)
(2.99996 1.25164e-05 0)
(2.99991 3.12938e-05 0)
(2.99978 7.58795e-05 0)
(2.99945 0.000190374 0)
(2.99867 0.000453484 0)
(2.99669 0.00115259 0)
(2.99196 0.00272948 0)
(2.97988 0.00697891 0)
(2.94919 0.0170637 0)
(2.86588 0.0448476 0)
(2.62825 0.122279 0)
(1.96023 0.361473 0)
(1.25522 0.750269 0)
(1.07112 0.79305 0)
(1.07112 0.808655 0)
(1.10704 0.80756 0)
(1.15365 0.812237 0)
(1.19859 0.828727 0)
(1.25285 0.846112 0)
(1.32124 0.857781 0)
(3 2.45159e-08 0)
(3 1.5376e-07 0)
(3 5.36216e-07 0)
(3 1.50506e-06 0)
(2.99999 3.96278e-06 0)
(2.99997 1.00268e-05 0)
(2.99993 2.46382e-05 0)
(2.99984 6.20106e-05 0)
(2.99959 0.000148126 0)
(2.99902 0.000379114 0)
(2.99757 0.000889268 0)
(2.9941 0.00230245 0)
(2.98527 0.00545603 0)
(2.96324 0.0140928 0)
(2.90435 0.035587 0)
(2.73978 0.0971739 0)
(2.2582 0.280092 0)
(1.47372 0.718921 0)
(1.14109 0.812522 0)
(1.11334 0.828579 0)
(1.1358 0.82941 0)
(1.18381 0.824698 0)
(1.23309 0.832325 0)
(1.28397 0.843858 0)
(1.34461 0.851867 0)
(3 1.88203e-08 0)
(3 1.18749e-07 0)
(3 4.1232e-07 0)
(3 1.1589e-06 0)
(2.99999 3.03976e-06 0)
(2.99998 7.70144e-06 0)
(2.99995 1.89012e-05 0)
(2.99988 4.7402e-05 0)
(2.99971 0.000113759 0)
(2.99929 0.000287456 0)
(2.9983 0.000683564 0)
(2.99576 0.00173728 0)
(2.9897 0.00415122 0)
(2.97429 0.0105882 0)
(2.93475 0.0263383 0)
(2.82724 0.0705162 0)
(2.51737 0.19828 0)
(1.76647 0.570113 0)
(1.25866 0.81094 0)
(1.16876 0.839564 0)
(1.17361 0.849156 0)
(1.2143 0.842335 0)
(1.26488 0.839991 0)
(1.31363 0.844988 0)
(1.368 0.849485 0)
(3 1.40909e-08 0)
(3 8.91526e-08 0)
(3 3.04145e-07 0)
(3 8.67647e-07 0)
(2.99999 2.24919e-06 0)
(2.99999 5.69235e-06 0)
(2.99997 1.41006e-05 0)
(2.99992 3.45179e-05 0)
(2.99979 8.53888e-05 0)
(2.9995 0.00020607 0)
(2.99877 0.000513529 0)
(2.99698 0.00123253 0)
(2.99264 0.00308534 0)
(2.9817 0.00749294 0)
(2.95405 0.0188689 0)
(2.87984 0.0485401 0)
(2.67011 0.132326 0)
(2.07919 0.389183 0)
(1.41714 0.803689 0)
(1.21873 0.859325 0)
(1.20864 0.870345 0)
(1.23872 0.863866 0)
(1.29009 0.852623 0)
(1.34052 0.850273 0)
(1.39112 0.850572 0)
(3 1.00525e-08 0)
(3 6.68888e-08 0)
(3 2.20832e-07 0)
(3 6.51006e-07 0)
(3 1.63987e-06 0)
(2.99999 4.27161e-06 0)
(2.99998 1.02637e-05 0)
(2.99994 2.5995e-05 0)
(2.99986 6.21818e-05 0)
(2.99965 0.000155381 0)
(2.99915 0.000374026 0)
(2.9979 0.000927631 0)
(2.99492 0.00226192 0)
(2.98742 0.00559108 0)
(2.96886 0.0138979 0)
(2.92004 0.0354463 0)
(2.7866 0.0947159 0)
(2.39805 0.272478 0)
(1.67216 0.70622 0)
(1.30841 0.858416 0)
(1.25616 0.880612 0)
(1.26905 0.883292 0)
(1.31384 0.86981 0)
(1.36529 0.860536 0)
(1.41391 0.856029 0)
(3 7.72739e-09 0)
(3 4.62183e-08 0)
(3 1.65564e-07 0)
(3 4.50267e-07 0)
(3 1.21544e-06 0)
(2.99999 2.96555e-06 0)
(2.99998 7.56146e-06 0)
(2.99996 1.80767e-05 0)
(2.9999 4.53936e-05 0)
(2.99976 0.000108453 0)
(2.99942 0.000269543 0)
(2.99856 0.000650908 0)
(2.99653 0.00160387 0)
(2.99139 0.00391759 0)
(2.9789 0.00967182 0)
(2.94661 0.024211 0)
(2.86047 0.0630226 0)
(2.61562 0.174266 0)
(1.97864 0.502514 0)
(1.4389 0.836969 0)
(1.30811 0.887158 0)
(1.30301 0.900125 0)
(1.33614 0.890195 0)
(1.38705 0.873611 0)
(1.43537 0.864833 0)
(3 5.47458e-09 0)
(3 3.32382e-08 0)
(3 1.17001e-07 0)
(3 3.23041e-07 0)
(3 8.63188e-07 0)
(3 2.11509e-06 0)
(2.99999 5.39678e-06 0)
(2.99997 1.27979e-05 0)
(2.99993 3.24584e-05 0)
(2.99983 7.64642e-05 0)
(2.9996 0.000193478 0)
(2.99902 0.000456525 0)
(2.99764 0.00115046 0)
(2.99414 0.00274525 0)
(2.98574 0.00689114 0)
(2.96424 0.0168776 0)
(2.90807 0.0434099 0)
(2.75275 0.116012 0)
(2.30382 0.336655 0)
(1.64674 0.778056 0)
(1.37615 0.892191 0)
(1.34137 0.911951 0)
(1.35751 0.910547 0)
(1.40379 0.891767 0)
(1.45486 0.87705 0)
(3 3.73782e-09 0)
(3 2.37745e-08 0)
(3 8.04413e-08 0)
(3 2.30993e-07 0)
(3 5.94832e-07 0)
(3 1.50386e-06 0)
(2.99999 3.7289e-06 0)
(2.99998 9.0553e-06 0)
(2.99995 2.25229e-05 0)
(2.99989 5.36799e-05 0)
(2.99973 0.000135161 0)
(2.99936 0.000317511 0)
(2.99843 0.000808025 0)
(2.99617 0.00189525 0)
(2.99067 0.00483452 0)
(2.97695 0.0115863 0)
(2.94194 0.0297159 0)
(2.84848 0.0771042 0)
(2.58016 0.217294 0)
(1.94527 0.598634 0)
(1.49593 0.871633 0)
(1.39469 0.914817 0)
(1.38968 0.9253 0)
(1.42212 0.912545 0)
(1.4714 0.890053 0)
(3 2.4827e-09 0)
(3 1.65781e-08 0)
(3 5.43643e-08 0)
(3 1.60782e-07 0)
(3 4.01155e-07 0)
(3 1.04803e-06 0)
(2.99999 2.50053e-06 0)
(2.99999 6.32029e-06 0)
(2.99997 1.50504e-05 0)
(2.99993 3.73915e-05 0)
(2.99982 9.0011e-05 0)
(2.99958 0.000220151 0)
(2.99896 0.000537559 0)
(2.99749 0.00129865 0)
(2.99381 0.0032174 0)
(2.98492 0.00777464 0)
(2.96229 0.0195237 0)
(2.90326 0.0493869 0)
(2.73957 0.13319 0)
(2.27689 0.384366 0)
(1.68192 0.815614 0)
(1.45582 0.916226 0)
(1.42526 0.934202 0)
(1.43968 0.93083 0)
(1.48283 0.907863 0)
(3 1.72842e-09 0)
(3 1.08899e-08 0)
(3 3.77276e-08 0)
(3 1.05606e-07 0)
(3 2.77635e-07 0)
(3 6.94413e-07 0)
(3 1.71191e-06 0)
(2.99999 4.22664e-06 0)
(2.99998 1.01737e-05 0)
(2.99995 2.52523e-05 0)
(2.99989 6.01607e-05 0)
(2.99973 0.000150142 0)
(2.99933 0.000355654 0)
(2.9984 0.000891843 0)
(2.99607 0.00211617 0)
(2.99051 0.00531864 0)
(2.97649 0.0128292 0)
(2.94112 0.0326835 0)
(2.84676 0.0848853 0)
(2.57563 0.239878 0)
(1.97043 0.635271 0)
(1.5679 0.887306 0)
(1.47712 0.931208 0)
(1.46994 0.940958 0)
(1.49766 0.927721 0)
(3 1.16493e-09 0)
(3 7.20659e-09 0)
(3 2.51342e-08 0)
(3 6.99978e-08 0)
(3 1.84524e-07 0)
(3 4.58126e-07 0)
(3 1.13772e-06 0)
(2.99999 2.77188e-06 0)
(2.99999 6.75355e-06 0)
(2.99997 1.64815e-05 0)
(2.99993 3.97433e-05 0)
(2.99982 9.76167e-05 0)
(2.99957 0.000233534 0)
(2.99896 0.000576938 0)
(2.9975 0.00137586 0)
(2.99384 0.00341617 0)
(2.98504 0.0082317 0)
(2.9627 0.0205565 0)
(2.90454 0.0520198 0)
(2.74434 0.139469 0)
(2.29701 0.398791 0)
(1.74427 0.820891 0)
(1.53582 0.925172 0)
(1.50403 0.945166 0)
(1.51437 0.943722 0)
(3 7.41471e-10 0)
(3 4.90256e-09 0)
(3 1.619e-08 0)
(3 4.75333e-08 0)
(3 1.18954e-07 0)
(3 3.0892e-07 0)
(3 7.35927e-07 0)
(3 1.85502e-06 0)
(2.99999 4.39555e-06 0)
(2.99998 1.09234e-05 0)
(2.99995 2.60791e-05 0)
(2.99989 6.39444e-05 0)
(2.99973 0.000154603 0)
(2.99936 0.000373796 0)
(2.99843 0.000917806 0)
(2.99622 0.00219644 0)
(2.99075 0.00546823 0)
(2.97738 0.0132166 0)
(2.94338 0.0334266 0)
(2.85317 0.0867208 0)
(2.59602 0.243275 0)
(2.027 0.635802 0)
(1.64491 0.891797 0)
(1.55413 0.940424 0)
(1.54374 0.951219 0)
(3 5.08455e-10 0)
(3 3.03828e-09 0)
(3 1.08788e-08 0)
(3 2.94138e-08 0)
(3 7.94514e-08 0)
(3 1.91971e-07 0)
(3 4.878e-07 0)
(3 1.15693e-06 0)
(3 2.88387e-06 0)
(2.99999 6.8554e-06 0)
(2.99997 1.68694e-05 0)
(2.99993 4.04534e-05 0)
(2.99983 9.83796e-05 0)
(2.9996 0.000238803 0)
(2.99902 0.000573021 0)
(2.99763 0.00140914 0)
(2.99421 0.00336389 0)
(2.98594 0.00835665 0)
(2.96513 0.020277 0)
(2.91125 0.0517858 0)
(2.76399 0.137273 0)
(2.35439 0.389788 0)
(1.82708 0.80694 0)
(1.61436 0.927043 0)
(1.57747 0.951555 0)
(3 3.19148e-10 0)
(3 1.96554e-09 0)
(3 6.85784e-09 0)
(3 1.90359e-08 0)
(3 5.02139e-08 0)
(3 1.23849e-07 0)
(3 3.09649e-07 0)
(3 7.43516e-07 0)
(3 1.83429e-06 0)
(2.99999 4.38854e-06 0)
(2.99998 1.07617e-05 0)
(2.99996 2.58181e-05 0)
(2.9999 6.29479e-05 0)
(2.99975 0.000152023 0)
(2.99941 0.000367798 0)
(2.99855 0.00089573 0)
(2.99654 0.00215902 0)
(2.99146 0.00529965 0)
(2.97931 0.0129205 0)
(2.94826 0.0322466 0)
(2.86678 0.0834594 0)
(2.63583 0.231422 0)
(2.11107 0.606861 0)
(1.72802 0.890938 0)
(1.62742 0.94868 0)
(3 1.94163e-10 0)
(3 1.25747e-09 0)
(3 4.22351e-09 0)
(3 1.21578e-08 0)
(3 3.10269e-08 0)
(3 7.88156e-08 0)
(3 1.91096e-07 0)
(3 4.71077e-07 0)
(3 1.13205e-06 0)
(3 2.76375e-06 0)
(2.99999 6.65791e-06 0)
(2.99997 1.61222e-05 0)
(2.99994 3.90325e-05 0)
(2.99985 9.39406e-05 0)
(2.99964 0.000229108 0)
(2.99913 0.000546474 0)
(2.99788 0.00134454 0)
(2.9949 0.00320657 0)
(2.98752 0.00792485 0)
(2.96941 0.0192775 0)
(2.92284 0.0486321 0)
(2.79678 0.128613 0)
(2.44606 0.361856 0)
(1.93432 0.77646 0)
(1.69566 0.927458 0)
(3 1.25989e-10 0)
(3 7.68603e-10 0)
(3 2.69517e-09 0)
(3 7.44747e-09 0)
(3 1.96853e-08 0)
(3 4.83624e-08 0)
(3 1.20984e-07 0)
(3 2.88738e-07 0)
(3 7.14953e-07 0)
(3 1.69702e-06 0)
(2.99999 4.1835e-06 0)
(2.99998 9.92551e-06 0)
(2.99996 2.43969e-05 0)
(2.99991 5.81426e-05 0)
(2.99979 0.000142067 0)
(2.99948 0.000340327 0)
(2.99875 0.000827562 0)
(2.99695 0.00200075 0)
(2.99268 0.0048526 0)
(2.98199 0.0118719 0)
(2.95562 0.0293472 0)
(2.88652 0.0750322 0)
(2.69306 0.205177 0)
(2.22849 0.545032 0)
(1.82347 0.879111 0)
(3 7.43994e-11 0)
(3 4.79747e-10 0)
(3 1.61125e-09 0)
(3 4.63977e-09 0)
(3 1.17724e-08 0)
(3 2.99951e-08 0)
(3 7.23024e-08 0)
(3 1.7868e-07 0)
(3 4.2818e-07 0)
(3 1.04228e-06 0)
(3 2.50829e-06 0)
(2.99999 6.05136e-06 0)
(2.99998 1.46909e-05 0)
(2.99995 3.50421e-05 0)
(2.99987 8.57991e-05 0)
(2.9997 0.000203573 0)
(2.99926 0.000500221 0)
(2.99825 0.00118441 0)
(2.99574 0.0029232 0)
(2.98979 0.00696655 0)
(2.97491 0.0173251 0)
(2.93778 0.0427472 0)
(2.83914 0.112248 0)
(2.56215 0.313458 0)
(2.06416 0.715138 0)
(3 4.60872e-11 0)
(3 2.82594e-10 0)
(3 9.91746e-10 0)
(3 2.7262e-09 0)
(3 7.23422e-09 0)
(3 1.76547e-08 0)
(3 4.41685e-08 0)
(3 1.05542e-07 0)
(3 2.58542e-07 0)
(3 6.18089e-07 0)
(3 1.49758e-06 0)
(2.99999 3.60728e-06 0)
(2.99999 8.64397e-06 0)
(2.99997 2.09886e-05 0)
(2.99993 4.98727e-05 0)
(2.99982 0.000121872 0)
(2.99957 0.000288136 0)
(2.99896 0.000705794 0)
(2.99749 0.00166821 0)
(2.99398 0.0041017 0)
(2.98528 0.00977616 0)
(2.96391 0.0242707 0)
(2.90874 0.0604846 0)
(2.75754 0.16204 0)
(2.36692 0.437104 0)
(3 2.71501e-11 0)
(3 1.70571e-10 0)
(3 5.82571e-10 0)
(3 1.64625e-09 0)
(3 4.25663e-09 0)
(3 1.06088e-08 0)
(3 2.61291e-08 0)
(3 6.28203e-08 0)
(3 1.53764e-07 0)
(3 3.65606e-07 0)
(3 8.9557e-07 0)
(3 2.11818e-06 0)
(2.99999 5.19345e-06 0)
(2.99998 1.22921e-05 0)
(2.99996 3.00576e-05 0)
(2.9999 7.13057e-05 0)
(2.99975 0.000173827 0)
(2.9994 0.000414783 0)
(2.99857 0.00100471 0)
(2.99654 0.00242084 0)
(2.99167 0.00585794 0)
(2.9797 0.0143107 0)
(2.94987 0.0354064 0)
(2.87219 0.0908927 0)
(2.65384 0.249964 0)
(3 1.56064e-11 0)
(3 1.00041e-10 0)
(3 3.40538e-10 0)
(3 9.65145e-10 0)
(3 2.47604e-09 0)
(3 6.24871e-09 0)
(3 1.50187e-08 0)
(3 3.71861e-08 0)
(3 8.76072e-08 0)
(3 2.16942e-07 0)
(3 5.06599e-07 0)
(3 1.25478e-06 0)
(3 2.93013e-06 0)
(2.99999 7.23209e-06 0)
(2.99997 1.69544e-05 0)
(2.99994 4.15492e-05 0)
(2.99985 9.82622e-05 0)
(2.99966 0.000238489 0)
(2.99916 0.000569033 0)
(2.99802 0.00137017 0)
(2.99517 0.00330878 0)
(2.98845 0.00795472 0)
(2.97162 0.0195147 0)
(2.92953 0.0484158 0)
(2.81682 0.126929 0)
(3 9.27351e-12 0)
(3 5.61254e-11 0)
(3 1.97946e-10 0)
(3 5.40859e-10 0)
(3 1.43696e-09 0)
(3 3.48489e-09 0)
(3 8.73165e-09 0)
(3 2.06139e-08 0)
(3 5.0917e-08 0)
(3 1.19573e-07 0)
(3 2.93136e-07 0)
(3 6.91414e-07 0)
(3 1.67855e-06 0)
(2.99999 3.99431e-06 0)
(2.99999 9.5861e-06 0)
(2.99996 2.30778e-05 0)
(2.99991 5.47276e-05 0)
(2.99979 0.000132935 0)
(2.99951 0.000312975 0)
(2.99882 0.00076495 0)
(2.99716 0.00179531 0)
(2.99317 0.00441137 0)
(2.98337 0.0104542 0)
(2.95919 0.0259839 0)
(2.89718 0.064846 0)
(3 4.99026e-12 0)
(3 3.11942e-11 0)
(3 1.0661e-10 0)
(3 3.00332e-10 0)
(3 7.75171e-10 0)
(3 1.91696e-09 0)
(3 4.70625e-09 0)
(3 1.12116e-08 0)
(3 2.7377e-08 0)
(3 6.41733e-08 0)
(3 1.57016e-07 0)
(3 3.65642e-07 0)
(3 8.94936e-07 0)
(3 2.08451e-06 0)
(2.99999 5.06216e-06 0)
(2.99998 1.19001e-05 0)
(2.99995 2.85514e-05 0)
(2.99987 6.77075e-05 0)
(2.99969 0.000160538 0)
(2.99925 0.000384412 0)
(2.99821 0.000901662 0)
(2.99566 0.00217706 0)
(2.98954 0.00509931 0)
(2.97435 0.0124399 0)
(2.93615 0.0301315 0)
(3 2.56496e-12 0)
(3 1.60292e-11 0)
(3 5.56738e-11 0)
(3 1.53194e-10 0)
(3 4.0055e-10 0)
(3 9.76885e-10 0)
(3 2.38164e-09 0)
(3 5.71639e-09 0)
(3 1.34632e-08 0)
(3 3.26329e-08 0)
(3 7.49423e-08 0)
(3 1.84049e-07 0)
(3 4.15091e-07 0)
(3 1.02566e-06 0)
(2.99999 2.29149e-06 0)
(2.99998 5.65752e-06 0)
(2.99996 1.25582e-05 0)
(2.9999 3.07243e-05 0)
(2.99977 6.84431e-05 0)
(2.99944 0.000164026 0)
(2.99865 0.00036692 0)
(2.99666 0.000859159 0)
(2.99191 0.00194114 0)
(2.97988 0.00445158 0)
(2.9495 0.0102068 0)
(3 1.21561e-12 0)
(3 8.20987e-12 0)
(3 2.64034e-11 0)
(3 7.80439e-11 0)
(3 1.89196e-10 0)
(3 4.85531e-10 0)
(3 1.12609e-09 0)
(3 2.73658e-09 0)
(3 6.37147e-09 0)
(3 1.48886e-08 0)
(3 3.54012e-08 0)
(3 7.96738e-08 0)
(3 1.93382e-07 0)
(3 4.20523e-07 0)
(2.99999 1.04051e-06 0)
(2.99999 2.18186e-06 0)
(2.99997 5.44522e-06 0)
(2.99992 1.10798e-05 0)
(2.9998 2.76226e-05 0)
(2.9995 5.50125e-05 0)
(2.99879 0.000132194 0)
(2.99697 0.000262504 0)
(2.99253 0.000596631 0)
(2.98117 0.00116807 0)
(2.9518 0.00246061 0)
(3 5.95632e-13 0)
(3 3.76524e-12 0)
(3 1.26114e-11 0)
(3 3.5641e-11 0)
(3 9.00927e-11 0)
(3 2.20418e-10 0)
(3 5.25127e-10 0)
(3 1.2285e-09 0)
(3 2.88856e-09 0)
(3 6.56949e-09 0)
(3 1.54201e-08 0)
(3 3.43551e-08 0)
(3 8.08223e-08 0)
(3 1.76013e-07 0)
(2.99999 4.08196e-07 0)
(2.99999 8.80766e-07 0)
(2.99997 1.98821e-06 0)
(2.99992 4.30139e-06 0)
(2.99981 9.11388e-06 0)
(2.99952 1.99375e-05 0)
(2.99882 3.95717e-05 0)
(2.99705 8.70714e-05 0)
(2.99266 0.00015301 0)
(2.98142 0.000329967 0)
(2.95203 0.000496103 0)
(3 2.61155e-13 0)
(3 1.64741e-12 0)
(3 5.98817e-12 0)
(3 1.58219e-11 0)
(3 4.18293e-11 0)
(3 1.02803e-10 0)
(3 2.30536e-10 0)
(3 6.05725e-10 0)
(3 1.16182e-09 0)
(3 3.47884e-09 0)
(3 5.6711e-09 0)
(3 1.92883e-08 0)
(3 2.73403e-08 0)
(3 1.01384e-07 0)
(3 1.32485e-07 0)
(2.99999 5.05182e-07 0)
(2.99997 6.57586e-07 0)
(2.99992 2.37504e-06 0)
(2.99981 3.20568e-06 0)
(2.99953 1.02199e-05 0)
(2.99884 1.6484e-05 0)
(2.99706 3.72937e-05 0)
(2.99273 8.01271e-05 0)
(2.98145 0.000121835 0)
(2.95212 0.000273585 0)
(3 1.04651e-13 0)
(3 9.29149e-13 0)
(3 2.52672e-12 0)
(3 8.74481e-12 0)
(3 1.84345e-11 0)
(3 5.06266e-11 0)
(3 1.16444e-10 0)
(3 2.63401e-10 0)
(3 6.98421e-10 0)
(3 1.31183e-09 0)
(3 4.12524e-09 0)
(3 6.49059e-09 0)
(3 2.37396e-08 0)
(3 3.17792e-08 0)
(3 1.3452e-07 0)
(2.99999 1.54543e-07 0)
(2.99997 7.37198e-07 0)
(2.99993 8.05069e-07 0)
(2.99982 3.81555e-06 0)
(2.99954 4.50261e-06 0)
(2.99885 1.88972e-05 0)
(2.9971 2.59512e-05 0)
(2.99273 8.62093e-05 0)
(2.98157 0.000142487 0)
(2.95221 0.000387502 0)
(3 1.14228e-13 0)
(3 3.36645e-13 0)
(3 1.93708e-12 0)
(3 3.4374e-12 0)
(3 1.3612e-11 0)
(3 1.93282e-11 0)
(3 8.51188e-11 0)
(3 9.64447e-11 0)
(3 5.22696e-10 0)
(3 4.72005e-10 0)
(3 3.13135e-09 0)
(3 2.5025e-09 0)
(3 1.85633e-08 0)
(3 1.68877e-08 0)
(3 1.02065e-07 0)
(2.99999 1.31622e-07 0)
(2.99997 5.34249e-07 0)
(2.99993 1.01027e-06 0)
(2.99982 2.57501e-06 0)
(2.99954 7.27613e-06 0)
(2.99886 1.147e-05 0)
(2.99712 4.89107e-05 0)
(2.99282 5.60137e-05 0)
(2.9817 0.0002677 0)
(2.95256 0.000418294 0)
(3 1.06998e-14 0)
(3 3.39138e-13 0)
(3 5.10021e-13 0)
(3 3.33348e-12 0)
(3 4.03361e-12 0)
(3 2.09986e-11 0)
(3 2.65971e-11 0)
(3 1.21419e-10 0)
(3 1.81346e-10 0)
(3 6.59132e-10 0)
(3 1.3013e-09 0)
(3 3.524e-09 0)
(3 9.14514e-09 0)
(3 1.92302e-08 0)
(3 6.42931e-08 0)
(2.99999 1.10747e-07 0)
(2.99997 4.36305e-07 0)
(2.99993 6.3216e-07 0)
(2.99982 2.93577e-06 0)
(2.99954 3.75777e-06 0)
(2.99888 1.83935e-05 0)
(2.99714 2.22754e-05 0)
(2.99291 0.000109314 0)
(2.98188 0.000152117 0)
(2.95304 0.000581336 0)
(3 -4.91425e-14 0)
(3 3.49909e-13 0)
(3 -4.11082e-13 0)
(3 3.36641e-12 0)
(3 -2.1256e-12 0)
(3 2.21759e-11 0)
(3 -9.86774e-12 0)
(3 1.28502e-10 0)
(3 -1.71382e-11 0)
(3 6.84172e-10 0)
(3 2.86845e-10 0)
(3 3.35959e-09 0)
(3 4.37114e-09 0)
(3 1.5049e-08 0)
(3 4.84321e-08 0)
(2.99999 5.14778e-08 0)
(2.99997 4.14607e-07 0)
(2.99993 1.13265e-07 0)
(2.99982 3.24613e-06 0)
(2.99955 -4.16188e-07 0)
(2.99888 2.2446e-05 0)
(2.9972 -4.96144e-06 0)
(2.99293 0.00013088 0)
(2.98209 2.10947e-05 0)
(2.95339 0.000556819 0)
(3 -9.07345e-15 0)
(3 9.14364e-14 0)
(3 -1.52959e-14 0)
(3 1.06927e-12 0)
(3 -2.27797e-13 0)
(3 9.46229e-12 0)
(3 -6.51647e-12 0)
(3 6.73208e-11 0)
(3 -5.93358e-11 0)
(3 4.50279e-10 0)
(3 -3.56188e-10 0)
(3 2.61714e-09 0)
(3 -1.20523e-09 0)
(3 1.3727e-08 0)
(3 4.43814e-09 0)
(2.99999 5.71598e-08 0)
(2.99997 1.03053e-07 0)
(2.99993 1.91664e-07 0)
(2.99982 1.0261e-06 0)
(2.99956 3.10786e-07 0)
(2.99888 7.45237e-06 0)
(2.99723 -1.53478e-06 0)
(2.99293 4.9779e-05 0)
(2.98223 -1.59443e-06 0)
(2.95361 0.00021745 0)
(1.20192 1.03712 0)
(1.3448 0.776858 0)
(0.749744 0.428496 0)
(-0.0835626 0.332524 0)
(-0.246259 0.0389591 0)
(-0.449496 0.00328307 0)
(-0.596314 -0.0170484 0)
(-0.660759 -0.0198343 0)
(-0.69735 0.000535441 0)
(-0.742339 0.0191195 0)
(-0.801506 0.0232867 0)
(-0.859493 0.0198802 0)
(-0.909414 0.0135211 0)
(-0.954932 0.00890257 0)
(-1.00165 0.00738151 0)
(-1.05025 0.00697308 0)
(-1.09816 0.00678779 0)
(-1.14227 0.00624545 0)
(-1.18127 0.00488382 0)
(-1.2182 0.0030583 0)
(-1.25734 0.00259619 0)
(-1.29092 0.00494783 0)
(-1.31029 0.00528577 0)
(-1.31936 0.00413865 0)
(-1.31978 0.00245326 0)
(-1.30271 -0.000124643 0)
(-1.26078 -0.00426761 0)
(-1.19782 -0.00954859 0)
(-1.12007 -0.0148084 0)
(-1.03471 -0.0189624 0)
(-0.946978 -0.0218914 0)
(-0.859814 -0.023791 0)
(-0.774801 -0.0249685 0)
(-0.692937 -0.0256547 0)
(-0.615256 -0.0259534 0)
(-0.541857 -0.0260274 0)
(-0.472062 -0.0263462 0)
(-0.405626 -0.0269626 0)
(-0.34103 -0.0282509 0)
(-0.278814 -0.0291781 0)
(-0.219059 -0.0292021 0)
(-0.161644 -0.0292875 0)
(-0.106319 -0.0295689 0)
(-0.0529828 -0.0306882 0)
(0.00151657 -0.0293678 0)
(0.0529265 -0.0261605 0)
(0.100433 -0.0243421 0)
(0.145747 -0.0231267 0)
(0.188877 -0.0220605 0)
(0.230317 -0.021114 0)
(0.270013 -0.0201506 0)
(0.307241 -0.0191435 0)
(0.343346 -0.0184498 0)
(0.380299 -0.0181895 0)
(0.417069 -0.0177296 0)
(0.452306 -0.0169672 0)
(0.486243 -0.0162041 0)
(0.519078 -0.0155071 0)
(0.551035 -0.0149049 0)
(0.582167 -0.0143385 0)
(0.612548 -0.0137981 0)
(0.64222 -0.0132793 0)
(0.67122 -0.0127852 0)
(0.699577 -0.0123109 0)
(0.727331 -0.0118545 0)
(0.754515 -0.0114173 0)
(0.781156 -0.0109969 0)
(0.80728 -0.0105909 0)
(0.83292 -0.0101992 0)
(0.8581 -0.00982028 0)
(0.882843 -0.00945349 0)
(0.907171 -0.00909602 0)
(0.931107 -0.00874849 0)
(0.95467 -0.00840818 0)
(0.977875 -0.00807536 0)
(1.00074 -0.00774771 0)
(1.02327 -0.00742515 0)
(1.04548 -0.00710637 0)
(1.06737 -0.00679101 0)
(1.08895 -0.00647832 0)
(1.11023 -0.0061682 0)
(1.13119 -0.00586078 0)
(1.15183 -0.00555604 0)
(1.17217 -0.00525444 0)
(1.19218 -0.00495537 0)
(1.21187 -0.00465907 0)
(1.23123 -0.00436453 0)
(1.25025 -0.00407135 0)
(1.26891 -0.00377769 0)
(1.28719 -0.00348178 0)
(1.30506 -0.00317983 0)
(1.32247 -0.00286803 0)
(1.33933 -0.00253842 0)
(1.35553 -0.00218626 0)
(1.37091 -0.00179478 0)
(1.38523 -0.0013454 0)
(1.39812 -0.000841891 0)
(1.40914 -0.000270017 0)
(1.41737 0.000417604 0)
(1.42338 0.00123118 0)
(1.26837 0.942986 0)
(1.37978 0.648176 0)
(1.16642 0.38882 0)
(0.701576 0.382652 0)
(0.579454 0.316905 0)
(0.438647 0.238947 0)
(0.243307 0.177158 0)
(0.0654261 0.105481 0)
(-0.166291 0.0500704 0)
(-0.299003 0.055085 0)