/*--------------------------------*- C++ -*----------------------------------*\
  =========                 |
  \\      /  F ield         | OpenFOAM: The Open Source CFD Toolbox
   \\    /   O peration     | Website:  https://openfoam.org
    \\  /    A nd           | Version:  10
     \\/     M anipulation  |
\*---------------------------------------------------------------------------*/
FoamFile
{
    format      ascii;
    class       volScalarField;
    location    "0.94";
    object      N1;
}
// * * * * * * * * * * * * * * * * * * * * * * * * * * * * * * * * * * * * * //

dimensions      [0 0 0 0 0 0 0];

internalField   nonuniform List<scalar> 
8000
(
2.34531e-15
7.02644e-15
1.16826e-14
1.6301e-14
2.08708e-14
2.53825e-14
2.98277e-14
3.41992e-14
3.84904e-14
4.26959e-14
4.6811e-14
5.08316e-14
5.47545e-14
5.85771e-14
6.22974e-14
6.59139e-14
6.94258e-14
7.28326e-14
7.61343e-14
7.93312e-14
8.2424e-14
8.54139e-14
8.8302e-14
9.10898e-14
9.37791e-14
9.63718e-14
9.88697e-14
1.01275e-13
1.0359e-13
1.05817e-13
1.07958e-13
1.10016e-13
1.11993e-13
1.13891e-13
1.15713e-13
1.17461e-13
1.19137e-13
1.20744e-13
1.22284e-13
1.23758e-13
1.2517e-13
1.26521e-13
1.27814e-13
1.2905e-13
1.3023e-13
1.31358e-13
1.32435e-13
1.33462e-13
1.34441e-13
1.35374e-13
1.36262e-13
1.37107e-13
1.3791e-13
1.38673e-13
1.39396e-13
1.40082e-13
1.40731e-13
1.41344e-13
1.41923e-13
1.42468e-13
1.42981e-13
1.43462e-13
1.43913e-13
1.44335e-13
1.44727e-13
1.45092e-13
1.45429e-13
1.4574e-13
1.46024e-13
1.46284e-13
1.4652e-13
1.46731e-13
1.4692e-13
1.47085e-13
1.47229e-13
1.47351e-13
1.47452e-13
1.47532e-13
1.47592e-13
1.47632e-13
1.47653e-13
1.47656e-13
1.47639e-13
1.47605e-13
1.47553e-13
1.47483e-13
1.47397e-13
1.47293e-13
1.47174e-13
1.47038e-13
1.46886e-13
1.46719e-13
1.46537e-13
1.4634e-13
1.46128e-13
1.45902e-13
1.45662e-13
1.45408e-13
1.4514e-13
1.44858e-13
1.44564e-13
1.44256e-13
1.43936e-13
1.43603e-13
1.43258e-13
1.42901e-13
1.42532e-13
1.42151e-13
1.41759e-13
1.41355e-13
1.40941e-13
1.40515e-13
1.40079e-13
1.39632e-13
1.39175e-13
1.38707e-13
1.3823e-13
1.37743e-13
1.37246e-13
1.3674e-13
1.36225e-13
1.357e-13
1.35167e-13
1.34624e-13
1.34074e-13
1.33514e-13
1.32947e-13
1.32372e-13
1.31788e-13
1.31197e-13
1.30598e-13
1.29992e-13
1.29379e-13
1.28759e-13
1.28131e-13
1.27497e-13
1.26857e-13
1.2621e-13
1.25557e-13
1.24897e-13
1.24232e-13
1.23561e-13
1.22884e-13
1.22202e-13
1.21514e-13
1.20821e-13
1.20124e-13
1.19421e-13
1.18714e-13
1.18002e-13
1.17286e-13
1.16566e-13
1.15841e-13
1.15113e-13
1.1438e-13
1.13644e-13
1.12905e-13
1.12162e-13
1.11416e-13
1.10667e-13
1.09915e-13
1.09161e-13
1.08403e-13
1.07643e-13
1.06881e-13
1.06117e-13
1.0535e-13
1.04582e-13
1.03812e-13
1.0304e-13
1.02266e-13
1.01492e-13
1.00715e-13
9.99383e-14
9.916e-14
9.83808e-14
9.76009e-14
9.68204e-14
9.60394e-14
9.52579e-14
9.44762e-14
9.36944e-14
9.29125e-14
9.21307e-14
9.13492e-14
9.05679e-14
8.97871e-14
8.90069e-14
8.82273e-14
8.74485e-14
8.66705e-14
8.58936e-14
8.51177e-14
8.4343e-14
8.35697e-14
8.27977e-14
8.20272e-14
8.12583e-14
8.04912e-14
7.97258e-14
7.89622e-14
7.82007e-14
7.74412e-14
7.66839e-14
7.59288e-14
7.51761e-14
7.44257e-14
7.36779e-14
7.29326e-14
7.219e-14
7.14501e-14
7.07131e-14
6.99789e-14
6.92477e-14
6.85195e-14
6.77945e-14
6.70726e-14
6.63539e-14
6.56386e-14
6.49266e-14
6.42181e-14
6.35131e-14
6.28116e-14
6.21137e-14
6.14196e-14
6.07291e-14
6.00425e-14
5.93597e-14
5.86807e-14
5.80057e-14
5.73348e-14
5.66678e-14
5.60049e-14
5.53462e-14
5.46916e-14
5.40412e-14
5.33951e-14
5.27532e-14
5.21157e-14
5.14826e-14
5.08538e-14
5.02295e-14
4.96096e-14
4.89942e-14
4.83834e-14
4.77771e-14
4.71753e-14
4.65782e-14
4.59857e-14
4.53978e-14
4.48146e-14
4.42361e-14
4.36623e-14
4.30932e-14
4.25289e-14
4.19693e-14
4.14145e-14
4.08644e-14
4.03192e-14
3.97788e-14
3.92432e-14
3.87124e-14
3.81864e-14
3.76653e-14
3.7149e-14
3.66376e-14
3.61311e-14
3.56293e-14
3.51325e-14
3.46405e-14
3.41534e-14
3.36711e-14
3.31937e-14
3.27211e-14
3.22534e-14
3.17906e-14
3.13326e-14
3.08794e-14
3.0431e-14
2.99875e-14
2.95488e-14
2.91148e-14
2.86857e-14
2.82614e-14
2.78418e-14
2.7427e-14
2.70169e-14
2.66116e-14
2.6211e-14
2.58151e-14
2.54239e-14
2.50374e-14
2.46555e-14
2.42783e-14
2.39057e-14
2.35377e-14
2.31743e-14
2.28155e-14
2.24612e-14
2.21115e-14
2.17663e-14
2.14256e-14
2.10893e-14
2.07575e-14
2.04302e-14
2.01073e-14
1.97887e-14
1.94745e-14
1.91647e-14
1.88592e-14
1.8558e-14
1.82611e-14
1.79684e-14
1.768e-14
1.73958e-14
1.71157e-14
1.68398e-14
1.65681e-14
1.63005e-14
1.60369e-14
1.57775e-14
1.5522e-14
1.52706e-14
1.50232e-14
1.47797e-14
1.45402e-14
1.43046e-14
1.40729e-14
1.38451e-14
1.36211e-14
1.34009e-14
1.31846e-14
1.2972e-14
1.27631e-14
1.2558e-14
1.23566e-14
1.21588e-14
1.19647e-14
1.17742e-14
1.15873e-14
1.1404e-14
1.12243e-14
1.10481e-14
1.08754e-14
1.07062e-14
1.05405e-14
1.03782e-14
1.02193e-14
1.00639e-14
9.91178e-15
9.76305e-15
9.61766e-15
9.47558e-15
9.3368e-15
9.2013e-15
9.06905e-15
8.94004e-15
8.81425e-15
8.69166e-15
8.57224e-15
8.45599e-15
8.34289e-15
8.23291e-15
8.12604e-15
8.02226e-15
7.92156e-15
7.82392e-15
7.72933e-15
7.63776e-15
7.54922e-15
7.46367e-15
7.38111e-15
7.30152e-15
7.2249e-15
7.15122e-15
7.08048e-15
7.01266e-15
6.94775e-15
6.88574e-15
6.82663e-15
6.77039e-15
6.71703e-15
6.66653e-15
6.61888e-15
6.57408e-15
6.53212e-15
6.49298e-15
6.45667e-15
6.42317e-15
6.39249e-15
6.36461e-15
6.33954e-15
6.31726e-15
6.29777e-15
6.28108e-15
6.26717e-15
6.25604e-15
6.2477e-15
6.24214e-15
6.23937e-15
2.36932e-15
7.10056e-15
1.18107e-14
1.64876e-14
2.11205e-14
2.56999e-14
3.02172e-14
3.46649e-14
3.90364e-14
4.33259e-14
4.75283e-14
5.16394e-14
5.56556e-14
5.95738e-14
6.33918e-14
6.71078e-14
7.07205e-14
7.42291e-14
7.76333e-14
8.09331e-14
8.4129e-14
8.72216e-14
9.0212e-14
9.31015e-14
9.58914e-14
9.85834e-14
1.01179e-13
1.03681e-13
1.06091e-13
1.08411e-13
1.10643e-13
1.1279e-13
1.14854e-13
1.16836e-13
1.18741e-13
1.20568e-13
1.22322e-13
1.24004e-13
1.25617e-13
1.27162e-13
1.28642e-13
1.30059e-13
1.31414e-13
1.32711e-13
1.33951e-13
1.35135e-13
1.36266e-13
1.37345e-13
1.38374e-13
1.39354e-13
1.40288e-13
1.41177e-13
1.42022e-13
1.42824e-13
1.43586e-13
1.44308e-13
1.44991e-13
1.45637e-13
1.46247e-13
1.46821e-13
1.47362e-13
1.4787e-13
1.48346e-13
1.48791e-13
1.49205e-13
1.4959e-13
1.49947e-13
1.50276e-13
1.50578e-13
1.50854e-13
1.51104e-13
1.51329e-13
1.5153e-13
1.51707e-13
1.51861e-13
1.51992e-13
1.52101e-13
1.52189e-13
1.52256e-13
1.52302e-13
1.52328e-13
1.52334e-13
1.52321e-13
1.52289e-13
1.52239e-13
1.5217e-13
1.52084e-13
1.5198e-13
1.5186e-13
1.51722e-13
1.51568e-13
1.51398e-13
1.51212e-13
1.51011e-13
1.50794e-13
1.50563e-13
1.50316e-13
1.50056e-13
1.49781e-13
1.49492e-13
1.49189e-13
1.48873e-13
1.48544e-13
1.48202e-13
1.47847e-13
1.47479e-13
1.47099e-13
1.46707e-13
1.46303e-13
1.45887e-13
1.4546e-13
1.45022e-13
1.44572e-13
1.44111e-13
1.4364e-13
1.43158e-13
1.42666e-13
1.42164e-13
1.41652e-13
1.4113e-13
1.40598e-13
1.40057e-13
1.39507e-13
1.38948e-13
1.3838e-13
1.37803e-13
1.37217e-13
1.36624e-13
1.36022e-13
1.35412e-13
1.34794e-13
1.34169e-13
1.33536e-13
1.32896e-13
1.32249e-13
1.31595e-13
1.30934e-13
1.30266e-13
1.29592e-13
1.28911e-13
1.28225e-13
1.27532e-13
1.26834e-13
1.2613e-13
1.2542e-13
1.24705e-13
1.23985e-13
1.2326e-13
1.2253e-13
1.21796e-13
1.21057e-13
1.20313e-13
1.19565e-13
1.18813e-13
1.18058e-13
1.17298e-13
1.16535e-13
1.15768e-13
1.14999e-13
1.14226e-13
1.13449e-13
1.12671e-13
1.11889e-13
1.11105e-13
1.10318e-13
1.09529e-13
1.08738e-13
1.07945e-13
1.0715e-13
1.06353e-13
1.05555e-13
1.04755e-13
1.03954e-13
1.03152e-13
1.02349e-13
1.01544e-13
1.00739e-13
9.99338e-14
9.91276e-14
9.83211e-14
9.75143e-14
9.67073e-14
9.59003e-14
9.50934e-14
9.42867e-14
9.34803e-14
9.26744e-14
9.18691e-14
9.10644e-14
9.02606e-14
8.94576e-14
8.86557e-14
8.78549e-14
8.70553e-14
8.62571e-14
8.54603e-14
8.4665e-14
8.38714e-14
8.30796e-14
8.22896e-14
8.15015e-14
8.07155e-14
7.99316e-14
7.91499e-14
7.83705e-14
7.75936e-14
7.68191e-14
7.60472e-14
7.5278e-14
7.45115e-14
7.37478e-14
7.29871e-14
7.22293e-14
7.14746e-14
7.0723e-14
6.99746e-14
6.92295e-14
6.84877e-14
6.77494e-14
6.70145e-14
6.62832e-14
6.55555e-14
6.48315e-14
6.41112e-14
6.33947e-14
6.26821e-14
6.19733e-14
6.12686e-14
6.05678e-14
5.98711e-14
5.91785e-14
5.84901e-14
5.78059e-14
5.7126e-14
5.64504e-14
5.57791e-14
5.51122e-14
5.44497e-14
5.37917e-14
5.31382e-14
5.24892e-14
5.18448e-14
5.1205e-14
5.05698e-14
4.99393e-14
4.93135e-14
4.86924e-14
4.80761e-14
4.74645e-14
4.68577e-14
4.62558e-14
4.56587e-14
4.50664e-14
4.4479e-14
4.38965e-14
4.33189e-14
4.27463e-14
4.21786e-14
4.16158e-14
4.1058e-14
4.05051e-14
3.99573e-14
3.94144e-14
3.88765e-14
3.83437e-14
3.78158e-14
3.7293e-14
3.67751e-14
3.62623e-14
3.57545e-14
3.52517e-14
3.47539e-14
3.42612e-14
3.37734e-14
3.32907e-14
3.28129e-14
3.23402e-14
3.18724e-14
3.14096e-14
3.09518e-14
3.0499e-14
3.00511e-14
2.96082e-14
2.91702e-14
2.87372e-14
2.8309e-14
2.78858e-14
2.74674e-14
2.70539e-14
2.66453e-14
2.62415e-14
2.58425e-14
2.54484e-14
2.5059e-14
2.46745e-14
2.42946e-14
2.39196e-14
2.35492e-14
2.31835e-14
2.28226e-14
2.24662e-14
2.21146e-14
2.17675e-14
2.14251e-14
2.10872e-14
2.07539e-14
2.04251e-14
2.01008e-14
1.9781e-14
1.94657e-14
1.91548e-14
1.88483e-14
1.85462e-14
1.82485e-14
1.79552e-14
1.76661e-14
1.73814e-14
1.71009e-14
1.68247e-14
1.65527e-14
1.62848e-14
1.60212e-14
1.57617e-14
1.55063e-14
1.5255e-14
1.50078e-14
1.47646e-14
1.45255e-14
1.42903e-14
1.40591e-14
1.38319e-14
1.36086e-14
1.33891e-14
1.31736e-14
1.29618e-14
1.27539e-14
1.25498e-14
1.23495e-14
1.21529e-14
1.196e-14
1.17708e-14
1.15853e-14
1.14034e-14
1.12252e-14
1.10505e-14
1.08794e-14
1.07119e-14
1.0548e-14
1.03875e-14
1.02305e-14
1.0077e-14
9.92694e-15
9.7803e-15
9.63706e-15
9.4972e-15
9.3607e-15
9.22754e-15
9.0977e-15
8.97117e-15
8.84791e-15
8.72792e-15
8.61118e-15
8.49766e-15
8.38736e-15
8.28024e-15
8.1763e-15
8.07553e-15
7.97789e-15
7.88338e-15
7.79199e-15
7.70369e-15
7.61847e-15
7.53633e-15
7.45724e-15
7.38119e-15
7.30817e-15
7.23817e-15
7.17118e-15
7.10718e-15
7.04616e-15
6.98812e-15
6.93304e-15
6.88091e-15
6.83173e-15
6.78549e-15
6.74218e-15
6.70178e-15
6.6643e-15
6.62973e-15
6.59806e-15
6.56929e-15
6.54341e-15
6.52041e-15
6.5003e-15
6.48306e-15
6.46871e-15
6.45723e-15
6.44862e-15
6.44288e-15
6.44001e-15
2.39287e-15
7.17225e-15
1.1933e-14
1.66637e-14
2.13539e-14
2.59942e-14
3.05762e-14
3.50921e-14
3.95353e-14
4.38995e-14
4.81797e-14
5.23713e-14
5.64703e-14
6.04736e-14
6.43785e-14
6.81828e-14
7.18852e-14
7.54843e-14
7.89798e-14
8.23712e-14
8.56588e-14
8.8843e-14
9.19245e-14
9.49045e-14
9.77841e-14
1.00565e-13
1.03248e-13
1.05837e-13
1.08331e-13
1.10734e-13
1.13048e-13
1.15274e-13
1.17415e-13
1.19474e-13
1.21452e-13
1.23351e-13
1.25174e-13
1.26924e-13
1.28602e-13
1.3021e-13
1.31751e-13
1.33227e-13
1.34639e-13
1.35991e-13
1.37283e-13
1.38518e-13
1.39698e-13
1.40823e-13
1.41897e-13
1.42921e-13
1.43896e-13
1.44824e-13
1.45707e-13
1.46545e-13
1.47341e-13
1.48095e-13
1.48809e-13
1.49485e-13
1.50122e-13
1.50724e-13
1.5129e-13
1.51821e-13
1.5232e-13
1.52786e-13
1.5322e-13
1.53624e-13
1.53998e-13
1.54344e-13
1.54661e-13
1.54951e-13
1.55214e-13
1.55452e-13
1.55664e-13
1.55851e-13
1.56015e-13
1.56155e-13
1.56272e-13
1.56366e-13
1.56439e-13
1.5649e-13
1.56521e-13
1.56531e-13
1.56521e-13
1.56491e-13
1.56442e-13
1.56375e-13
1.56289e-13
1.56185e-13
1.56063e-13
1.55924e-13
1.55768e-13
1.55595e-13
1.55406e-13
1.55201e-13
1.5498e-13
1.54743e-13
1.54492e-13
1.54225e-13
1.53944e-13
1.53648e-13
1.53339e-13
1.53015e-13
1.52678e-13
1.52327e-13
1.51963e-13
1.51586e-13
1.51196e-13
1.50794e-13
1.50379e-13
1.49953e-13
1.49514e-13
1.49064e-13
1.48603e-13
1.4813e-13
1.47646e-13
1.47151e-13
1.46646e-13
1.4613e-13
1.45604e-13
1.45068e-13
1.44522e-13
1.43966e-13
1.43401e-13
1.42826e-13
1.42243e-13
1.4165e-13
1.41049e-13
1.40438e-13
1.3982e-13
1.39193e-13
1.38559e-13
1.37916e-13
1.37266e-13
1.36608e-13
1.35943e-13
1.3527e-13
1.34591e-13
1.33905e-13
1.33212e-13
1.32513e-13
1.31807e-13
1.31095e-13
1.30377e-13
1.29654e-13
1.28924e-13
1.2819e-13
1.2745e-13
1.26704e-13
1.25954e-13
1.25199e-13
1.24439e-13
1.23675e-13
1.22906e-13
1.22134e-13
1.21357e-13
1.20576e-13
1.19792e-13
1.19004e-13
1.18212e-13
1.17418e-13
1.1662e-13
1.15819e-13
1.15016e-13
1.1421e-13
1.13401e-13
1.1259e-13
1.11777e-13
1.10962e-13
1.10144e-13
1.09326e-13
1.08505e-13
1.07683e-13
1.06859e-13
1.06035e-13
1.05209e-13
1.04382e-13
1.03555e-13
1.02727e-13
1.01898e-13
1.01069e-13
1.0024e-13
9.94103e-14
9.85807e-14
9.77513e-14
9.6922e-14
9.60931e-14
9.52647e-14
9.44369e-14
9.36097e-14
9.27834e-14
9.1958e-14
9.11337e-14
9.03105e-14
8.94886e-14
8.8668e-14
8.78489e-14
8.70315e-14
8.62157e-14
8.54017e-14
8.45896e-14
8.37795e-14
8.29715e-14
8.21657e-14
8.13622e-14
8.05611e-14
7.97624e-14
7.89663e-14
7.81728e-14
7.73821e-14
7.65942e-14
7.58092e-14
7.50271e-14
7.42482e-14
7.34724e-14
7.26998e-14
7.19305e-14
7.11645e-14
7.0402e-14
6.96431e-14
6.88877e-14
6.81359e-14
6.73879e-14
6.66436e-14
6.59032e-14
6.51667e-14
6.44341e-14
6.37056e-14
6.29811e-14
6.22607e-14
6.15446e-14
6.08327e-14
6.0125e-14
5.94217e-14
5.87227e-14
5.80282e-14
5.73382e-14
5.66526e-14
5.59716e-14
5.52952e-14
5.46234e-14
5.39563e-14
5.32939e-14
5.26362e-14
5.19833e-14
5.13352e-14
5.06919e-14
5.00534e-14
4.94199e-14
4.87912e-14
4.81675e-14
4.75487e-14
4.69349e-14
4.63261e-14
4.57223e-14
4.51235e-14
4.45298e-14
4.39411e-14
4.33575e-14
4.2779e-14
4.22056e-14
4.16373e-14
4.10742e-14
4.05161e-14
3.99632e-14
3.94154e-14
3.88728e-14
3.83354e-14
3.7803e-14
3.72759e-14
3.67539e-14
3.6237e-14
3.57253e-14
3.52188e-14
3.47174e-14
3.42212e-14
3.37301e-14
3.32441e-14
3.27633e-14
3.22876e-14
3.1817e-14
3.13515e-14
3.08911e-14
3.04358e-14
2.99856e-14
2.95404e-14
2.91003e-14
2.86652e-14
2.82351e-14
2.78101e-14
2.73901e-14
2.6975e-14
2.65649e-14
2.61597e-14
2.57595e-14
2.53641e-14
2.49737e-14
2.45881e-14
2.42074e-14
2.38316e-14
2.34605e-14
2.30942e-14
2.27327e-14
2.2376e-14
2.20239e-14
2.16766e-14
2.1334e-14
2.0996e-14
2.06627e-14
2.03339e-14
2.00098e-14
1.96902e-14
1.93752e-14
1.90646e-14
1.87586e-14
1.8457e-14
1.81599e-14
1.78672e-14
1.75789e-14
1.72949e-14
1.70153e-14
1.674e-14
1.6469e-14
1.62023e-14
1.59397e-14
1.56814e-14
1.54273e-14
1.51773e-14
1.49315e-14
1.46898e-14
1.44521e-14
1.42185e-14
1.39889e-14
1.37634e-14
1.35418e-14
1.33241e-14
1.31104e-14
1.29006e-14
1.26946e-14
1.24925e-14
1.22943e-14
1.20998e-14
1.19091e-14
1.17221e-14
1.15389e-14
1.13594e-14
1.11835e-14
1.10114e-14
1.08428e-14
1.06778e-14
1.05165e-14
1.03587e-14
1.02044e-14
1.00537e-14
9.90643e-15
9.76266e-15
9.62234e-15
9.48546e-15
9.352e-15
9.22192e-15
9.09522e-15
8.97188e-15
8.85187e-15
8.73518e-15
8.62179e-15
8.51169e-15
8.40484e-15
8.30125e-15
8.20088e-15
8.10373e-15
8.00978e-15
7.91902e-15
7.83142e-15
7.74698e-15
7.66568e-15
7.5875e-15
7.51245e-15
7.44049e-15
7.37162e-15
7.30583e-15
7.24311e-15
7.18345e-15
7.12683e-15
7.07325e-15
7.02269e-15
6.97516e-15
6.93063e-15
6.88911e-15
6.85058e-15
6.81504e-15
6.78249e-15
6.75291e-15
6.7263e-15
6.70266e-15
6.68199e-15
6.66427e-15
6.64952e-15
6.63771e-15
6.62887e-15
6.62297e-15
6.62002e-15
2.41486e-15
7.23882e-15
1.20458e-14
1.6825e-14
2.15664e-14
2.62609e-14
3.09e-14
3.5476e-14
3.9982e-14
4.44119e-14
4.87603e-14
5.30223e-14
5.71939e-14
6.12716e-14
6.52524e-14
6.91342e-14
7.2915e-14
7.65934e-14
8.01688e-14
8.36404e-14
8.70083e-14
9.02728e-14
9.34343e-14
9.64937e-14
9.94521e-14
1.02311e-13
1.05071e-13
1.07735e-13
1.10304e-13
1.1278e-13
1.15165e-13
1.17462e-13
1.19671e-13
1.21796e-13
1.23839e-13
1.25802e-13
1.27686e-13
1.29495e-13
1.31231e-13
1.32895e-13
1.3449e-13
1.36018e-13
1.3748e-13
1.3888e-13
1.40219e-13
1.41499e-13
1.42721e-13
1.43889e-13
1.45002e-13
1.46064e-13
1.47075e-13
1.48038e-13
1.48954e-13
1.49824e-13
1.5065e-13
1.51433e-13
1.52175e-13
1.52876e-13
1.53539e-13
1.54164e-13
1.54752e-13
1.55305e-13
1.55823e-13
1.56308e-13
1.5676e-13
1.57181e-13
1.5757e-13
1.5793e-13
1.58261e-13
1.58564e-13
1.58839e-13
1.59087e-13
1.59309e-13
1.59506e-13
1.59678e-13
1.59825e-13
1.59949e-13
1.6005e-13
1.60128e-13
1.60184e-13
1.60218e-13
1.60231e-13
1.60224e-13
1.60197e-13
1.60149e-13
1.60082e-13
1.59997e-13
1.59893e-13
1.5977e-13
1.5963e-13
1.59472e-13
1.59297e-13
1.59105e-13
1.58896e-13
1.58672e-13
1.58431e-13
1.58175e-13
1.57903e-13
1.57616e-13
1.57315e-13
1.56998e-13
1.56668e-13
1.56324e-13
1.55965e-13
1.55593e-13
1.55208e-13
1.5481e-13
1.54399e-13
1.53975e-13
1.53539e-13
1.53091e-13
1.5263e-13
1.52158e-13
1.51675e-13
1.5118e-13
1.50673e-13
1.50156e-13
1.49629e-13
1.4909e-13
1.48542e-13
1.47983e-13
1.47414e-13
1.46836e-13
1.46248e-13
1.4565e-13
1.45043e-13
1.44428e-13
1.43803e-13
1.4317e-13
1.42529e-13
1.41879e-13
1.41221e-13
1.40556e-13
1.39882e-13
1.39201e-13
1.38513e-13
1.37817e-13
1.37115e-13
1.36405e-13
1.35689e-13
1.34967e-13
1.34238e-13
1.33503e-13
1.32762e-13
1.32016e-13
1.31263e-13
1.30505e-13
1.29742e-13
1.28974e-13
1.28201e-13
1.27423e-13
1.26641e-13
1.25854e-13
1.25062e-13
1.24267e-13
1.23468e-13
1.22664e-13
1.21858e-13
1.21047e-13
1.20234e-13
1.19417e-13
1.18597e-13
1.17774e-13
1.16949e-13
1.16121e-13
1.1529e-13
1.14458e-13
1.13623e-13
1.12786e-13
1.11948e-13
1.11107e-13
1.10266e-13
1.09422e-13
1.08578e-13
1.07732e-13
1.06886e-13
1.06039e-13
1.05191e-13
1.04342e-13
1.03493e-13
1.02644e-13
1.01795e-13
1.00945e-13
1.00096e-13
9.92467e-14
9.83979e-14
9.75496e-14
9.67019e-14
9.5855e-14
9.50088e-14
9.41636e-14
9.33195e-14
9.24766e-14
9.1635e-14
9.07947e-14
8.9956e-14
8.9119e-14
8.82836e-14
8.74501e-14
8.66185e-14
8.5789e-14
8.49616e-14
8.41365e-14
8.33137e-14
8.24934e-14
8.16755e-14
8.08603e-14
8.00478e-14
7.92381e-14
7.84313e-14
7.76275e-14
7.68267e-14
7.60291e-14
7.52347e-14
7.44435e-14
7.36558e-14
7.28715e-14
7.20907e-14
7.13135e-14
7.054e-14
6.97702e-14
6.90042e-14
6.82421e-14
6.74839e-14
6.67297e-14
6.59796e-14
6.52336e-14
6.44917e-14
6.37541e-14
6.30208e-14
6.22918e-14
6.15671e-14
6.0847e-14
6.01313e-14
5.94201e-14
5.87135e-14
5.80115e-14
5.73142e-14
5.66215e-14
5.59336e-14
5.52505e-14
5.45722e-14
5.38988e-14
5.32302e-14
5.25665e-14
5.19078e-14
5.1254e-14
5.06052e-14
4.99615e-14
4.93228e-14
4.86892e-14
4.80607e-14
4.74372e-14
4.6819e-14
4.62058e-14
4.55979e-14
4.49951e-14
4.43975e-14
4.38051e-14
4.3218e-14
4.2636e-14
4.20594e-14
4.14879e-14
4.09218e-14
4.03609e-14
3.98052e-14
3.92549e-14
3.87098e-14
3.817e-14
3.76355e-14
3.71062e-14
3.65822e-14
3.60636e-14
3.55501e-14
3.5042e-14
3.45391e-14
3.40415e-14
3.35491e-14
3.3062e-14
3.25801e-14
3.21035e-14
3.16321e-14
3.11658e-14
3.07048e-14
3.0249e-14
2.97983e-14
2.93528e-14
2.89124e-14
2.84772e-14
2.8047e-14
2.7622e-14
2.72021e-14
2.67872e-14
2.63773e-14
2.59725e-14
2.55727e-14
2.51779e-14
2.47881e-14
2.44032e-14
2.40232e-14
2.36481e-14
2.3278e-14
2.29127e-14
2.25522e-14
2.21965e-14
2.18457e-14
2.14996e-14
2.11583e-14
2.08216e-14
2.04897e-14
2.01625e-14
1.98399e-14
1.95219e-14
1.92086e-14
1.88998e-14
1.85955e-14
1.82958e-14
1.80005e-14
1.77098e-14
1.74235e-14
1.71415e-14
1.6864e-14
1.65909e-14
1.63221e-14
1.60576e-14
1.57973e-14
1.55414e-14
1.52896e-14
1.50421e-14
1.47988e-14
1.45596e-14
1.43245e-14
1.40935e-14
1.38666e-14
1.36437e-14
1.34249e-14
1.321e-14
1.29991e-14
1.27922e-14
1.25892e-14
1.239e-14
1.21947e-14
1.20033e-14
1.18157e-14
1.16319e-14
1.14518e-14
1.12755e-14
1.11029e-14
1.0934e-14
1.07687e-14
1.06071e-14
1.04492e-14
1.02948e-14
1.0144e-14
9.99682e-15
9.85314e-15
9.71298e-15
9.57631e-15
9.44312e-15
9.31338e-15
9.18708e-15
9.06419e-15
8.94471e-15
8.8286e-15
8.71585e-15
8.60644e-15
8.50036e-15
8.39759e-15
8.29811e-15
8.20191e-15
8.10896e-15
8.01926e-15
7.9328e-15
7.84955e-15
7.7695e-15
7.69264e-15
7.61896e-15
7.54844e-15
7.48107e-15
7.41684e-15
7.35575e-15
7.29777e-15
7.2429e-15
7.19114e-15
7.14246e-15
7.09687e-15
7.05435e-15
7.0149e-15
6.97851e-15
6.94517e-15
6.91488e-15
6.88764e-15
6.86343e-15
6.84226e-15
6.82412e-15
6.80901e-15
6.79693e-15
6.78787e-15
6.78183e-15
6.77881e-15
2.4346e-15
7.29846e-15
1.21464e-14
1.69683e-14
2.17545e-14
2.64961e-14
3.11845e-14
3.58123e-14
4.03725e-14
4.48588e-14
4.92657e-14
5.35882e-14
5.7822e-14
6.19635e-14
6.60096e-14
6.99576e-14
7.38057e-14
7.75522e-14
8.11961e-14
8.47366e-14
8.81735e-14
9.15068e-14
9.4737e-14
9.78646e-14
1.00891e-13
1.03816e-13
1.06643e-13
1.09372e-13
1.12005e-13
1.14544e-13
1.16991e-13
1.19347e-13
1.21616e-13
1.23798e-13
1.25897e-13
1.27914e-13
1.29852e-13
1.31712e-13
1.33497e-13
1.35209e-13
1.36851e-13
1.38424e-13
1.3993e-13
1.41372e-13
1.42751e-13
1.44069e-13
1.45329e-13
1.46532e-13
1.4768e-13
1.48774e-13
1.49817e-13
1.5081e-13
1.51755e-13
1.52652e-13
1.53504e-13
1.54313e-13
1.55078e-13
1.55802e-13
1.56486e-13
1.57132e-13
1.57739e-13
1.5831e-13
1.58846e-13
1.59347e-13
1.59814e-13
1.60249e-13
1.60653e-13
1.61025e-13
1.61368e-13
1.61682e-13
1.61967e-13
1.62224e-13
1.62455e-13
1.6266e-13
1.62839e-13
1.62993e-13
1.63123e-13
1.63228e-13
1.63311e-13
1.63371e-13
1.63409e-13
1.63425e-13
1.6342e-13
1.63395e-13
1.63349e-13
1.63283e-13
1.63197e-13
1.63093e-13
1.6297e-13
1.62828e-13
1.62669e-13
1.62492e-13
1.62297e-13
1.62086e-13
1.61858e-13
1.61614e-13
1.61353e-13
1.61077e-13
1.60786e-13
1.60479e-13
1.60157e-13
1.59821e-13
1.59471e-13
1.59106e-13
1.58727e-13
1.58335e-13
1.57929e-13
1.5751e-13
1.57079e-13
1.56634e-13
1.56177e-13
1.55708e-13
1.55227e-13
1.54734e-13
1.5423e-13
1.53714e-13
1.53186e-13
1.52648e-13
1.521e-13
1.5154e-13
1.5097e-13
1.5039e-13
1.498e-13
1.49201e-13
1.48591e-13
1.47973e-13
1.47345e-13
1.46708e-13
1.46062e-13
1.45408e-13
1.44745e-13
1.44074e-13
1.43395e-13
1.42708e-13
1.42014e-13
1.41312e-13
1.40602e-13
1.39885e-13
1.39162e-13
1.38431e-13
1.37694e-13
1.36951e-13
1.36201e-13
1.35445e-13
1.34684e-13
1.33916e-13
1.33143e-13
1.32365e-13
1.31581e-13
1.30792e-13
1.29999e-13
1.29201e-13
1.28398e-13
1.2759e-13
1.26779e-13
1.25963e-13
1.25144e-13
1.24321e-13
1.23494e-13
1.22664e-13
1.21831e-13
1.20994e-13
1.20155e-13
1.19313e-13
1.18468e-13
1.17621e-13
1.16772e-13
1.1592e-13
1.15066e-13
1.14211e-13
1.13354e-13
1.12495e-13
1.11635e-13
1.10773e-13
1.09911e-13
1.09047e-13
1.08183e-13
1.07317e-13
1.06452e-13
1.05586e-13
1.04719e-13
1.03853e-13
1.02986e-13
1.0212e-13
1.01253e-13
1.00387e-13
9.95219e-14
9.86571e-14
9.7793e-14
9.69298e-14
9.60675e-14
9.52063e-14
9.43464e-14
9.34877e-14
9.26305e-14
9.17748e-14
9.09208e-14
9.00686e-14
8.92183e-14
8.83699e-14
8.75236e-14
8.66795e-14
8.58377e-14
8.49983e-14
8.41613e-14
8.33269e-14
8.24953e-14
8.16663e-14
8.08403e-14
8.00172e-14
7.91971e-14
7.83801e-14
7.75663e-14
7.67558e-14
7.59487e-14
7.5145e-14
7.43449e-14
7.35483e-14
7.27554e-14
7.19663e-14
7.11809e-14
7.03994e-14
6.96219e-14
6.88484e-14
6.8079e-14
6.73137e-14
6.65526e-14
6.57957e-14
6.50432e-14
6.4295e-14
6.35513e-14
6.2812e-14
6.20772e-14
6.13471e-14
6.06215e-14
5.99006e-14
5.91844e-14
5.8473e-14
5.77664e-14
5.70646e-14
5.63676e-14
5.56756e-14
5.49886e-14
5.43065e-14
5.36294e-14
5.29573e-14
5.22903e-14
5.16285e-14
5.09717e-14
5.03201e-14
4.96737e-14
4.90324e-14
4.83964e-14
4.77656e-14
4.71401e-14
4.65198e-14
4.59048e-14
4.52952e-14
4.46908e-14
4.40918e-14
4.34981e-14
4.29098e-14
4.23268e-14
4.17492e-14
4.11769e-14
4.06101e-14
4.00486e-14
3.94925e-14
3.89417e-14
3.83964e-14
3.78565e-14
3.73219e-14
3.67927e-14
3.62689e-14
3.57505e-14
3.52375e-14
3.47298e-14
3.42275e-14
3.37305e-14
3.32389e-14
3.27526e-14
3.22716e-14
3.1796e-14
3.13256e-14
3.08606e-14
3.04008e-14
2.99463e-14
2.9497e-14
2.90529e-14
2.86141e-14
2.81805e-14
2.77521e-14
2.73288e-14
2.69107e-14
2.64977e-14
2.60898e-14
2.5687e-14
2.52893e-14
2.48966e-14
2.45089e-14
2.41263e-14
2.37486e-14
2.33759e-14
2.30082e-14
2.26453e-14
2.22874e-14
2.19343e-14
2.15861e-14
2.12426e-14
2.0904e-14
2.05702e-14
2.0241e-14
1.99166e-14
1.95969e-14
1.92819e-14
1.89715e-14
1.86657e-14
1.83645e-14
1.80679e-14
1.77757e-14
1.74881e-14
1.7205e-14
1.69263e-14
1.66521e-14
1.63822e-14
1.61168e-14
1.58556e-14
1.55988e-14
1.53463e-14
1.5098e-14
1.48539e-14
1.46141e-14
1.43785e-14
1.4147e-14
1.39196e-14
1.36963e-14
1.34771e-14
1.3262e-14
1.30508e-14
1.28437e-14
1.26405e-14
1.24413e-14
1.2246e-14
1.20546e-14
1.1867e-14
1.16833e-14
1.15035e-14
1.13274e-14
1.1155e-14
1.09865e-14
1.08216e-14
1.06605e-14
1.0503e-14
1.03491e-14
1.0199e-14
1.00524e-14
9.90937e-15
9.76994e-15
9.63405e-15
9.50169e-15
9.37284e-15
9.24747e-15
9.12556e-15
9.0071e-15
8.89208e-15
8.78046e-15
8.67223e-15
8.56738e-15
8.46589e-15
8.36774e-15
8.27292e-15
8.18141e-15
8.09319e-15
8.00826e-15
7.92659e-15
7.84818e-15
7.77301e-15
7.70106e-15
7.63233e-15
7.56681e-15
7.50448e-15
7.44533e-15
7.38935e-15
7.33654e-15
7.28688e-15
7.24036e-15
7.19698e-15
7.15673e-15
7.11961e-15
7.0856e-15
7.0547e-15
7.0269e-15
7.00221e-15
6.98061e-15
6.9621e-15
6.94668e-15
6.93435e-15
6.92511e-15
6.91895e-15
6.91587e-15
2.45163e-15
7.34984e-15
1.2233e-14
1.70912e-14
2.19154e-14
2.66965e-14
3.14265e-14
3.60978e-14
4.07033e-14
4.52367e-14
4.96924e-14
5.40653e-14
5.83511e-14
6.25458e-14
6.66462e-14
7.06496e-14
7.45537e-14
7.83569e-14
8.20579e-14
8.56559e-14
8.91503e-14
9.25411e-14
9.58286e-14
9.90132e-14
1.02096e-13
1.05077e-13
1.07959e-13
1.10743e-13
1.13429e-13
1.16021e-13
1.18519e-13
1.20926e-13
1.23244e-13
1.25475e-13
1.2762e-13
1.29683e-13
1.31665e-13
1.33568e-13
1.35395e-13
1.37148e-13
1.38828e-13
1.40439e-13
1.41981e-13
1.43458e-13
1.44871e-13
1.46222e-13
1.47513e-13
1.48746e-13
1.49923e-13
1.51045e-13
1.52114e-13
1.53132e-13
1.54101e-13
1.55022e-13
1.55896e-13
1.56725e-13
1.57511e-13
1.58254e-13
1.58956e-13
1.59618e-13
1.60242e-13
1.60828e-13
1.61378e-13
1.61893e-13
1.62373e-13
1.62821e-13
1.63235e-13
1.63619e-13
1.63971e-13
1.64294e-13
1.64588e-13
1.64854e-13
1.65092e-13
1.65303e-13
1.65488e-13
1.65648e-13
1.65782e-13
1.65893e-13
1.65979e-13
1.66043e-13
1.66084e-13
1.66102e-13
1.66099e-13
1.66075e-13
1.6603e-13
1.65965e-13
1.6588e-13
1.65775e-13
1.65652e-13
1.65509e-13
1.65348e-13
1.6517e-13
1.64973e-13
1.6476e-13
1.64529e-13
1.64282e-13
1.64018e-13
1.63738e-13
1.63443e-13
1.63132e-13
1.62805e-13
1.62464e-13
1.62109e-13
1.61738e-13
1.61354e-13
1.60956e-13
1.60544e-13
1.60119e-13
1.5968e-13
1.59229e-13
1.58765e-13
1.58289e-13
1.578e-13
1.57299e-13
1.56786e-13
1.56262e-13
1.55727e-13
1.5518e-13
1.54622e-13
1.54054e-13
1.53475e-13
1.52885e-13
1.52286e-13
1.51676e-13
1.51057e-13
1.50428e-13
1.4979e-13
1.49143e-13
1.48487e-13
1.47821e-13
1.47148e-13
1.46466e-13
1.45776e-13
1.45077e-13
1.44371e-13
1.43658e-13
1.42936e-13
1.42208e-13
1.41473e-13
1.4073e-13
1.39981e-13
1.39225e-13
1.38463e-13
1.37695e-13
1.3692e-13
1.3614e-13
1.35354e-13
1.34563e-13
1.33766e-13
1.32965e-13
1.32158e-13
1.31346e-13
1.3053e-13
1.2971e-13
1.28885e-13
1.28056e-13
1.27223e-13
1.26386e-13
1.25546e-13
1.24702e-13
1.23855e-13
1.23004e-13
1.22151e-13
1.21295e-13
1.20436e-13
1.19575e-13
1.18711e-13
1.17846e-13
1.16978e-13
1.16108e-13
1.15237e-13
1.14364e-13
1.13489e-13
1.12613e-13
1.11736e-13
1.10859e-13
1.0998e-13
1.091e-13
1.0822e-13
1.0734e-13
1.06459e-13
1.05578e-13
1.04697e-13
1.03816e-13
1.02935e-13
1.02055e-13
1.01175e-13
1.00296e-13
9.94177e-14
9.85401e-14
9.76635e-14
9.6788e-14
9.59138e-14
9.50409e-14
9.41694e-14
9.32995e-14
9.24313e-14
9.1565e-14
9.07005e-14
8.9838e-14
8.89777e-14
8.81195e-14
8.72637e-14
8.64104e-14
8.55595e-14
8.47113e-14
8.38658e-14
8.30231e-14
8.21833e-14
8.13465e-14
8.05128e-14
7.96823e-14
7.8855e-14
7.8031e-14
7.72105e-14
7.63935e-14
7.558e-14
7.47702e-14
7.39641e-14
7.31619e-14
7.23635e-14
7.1569e-14
7.07786e-14
6.99922e-14
6.921e-14
6.8432e-14
6.76582e-14
6.68888e-14
6.61238e-14
6.53632e-14
6.46071e-14
6.38555e-14
6.31086e-14
6.23663e-14
6.16287e-14
6.08958e-14
6.01677e-14
5.94445e-14
5.87261e-14
5.80126e-14
5.73041e-14
5.66006e-14
5.59021e-14
5.52087e-14
5.45203e-14
5.38371e-14
5.31591e-14
5.24862e-14
5.18185e-14
5.11561e-14
5.04989e-14
4.9847e-14
4.92004e-14
4.85592e-14
4.79232e-14
4.72927e-14
4.66675e-14
4.60477e-14
4.54333e-14
4.48243e-14
4.42208e-14
4.36227e-14
4.303e-14
4.24428e-14
4.1861e-14
4.12847e-14
4.07139e-14
4.01486e-14
3.95887e-14
3.90343e-14
3.84854e-14
3.7942e-14
3.7404e-14
3.68715e-14
3.63445e-14
3.58229e-14
3.53068e-14
3.47961e-14
3.42909e-14
3.37911e-14
3.32967e-14
3.28078e-14
3.23242e-14
3.18461e-14
3.13733e-14
3.09058e-14
3.04438e-14
2.9987e-14
2.95356e-14
2.90895e-14
2.86487e-14
2.82131e-14
2.77828e-14
2.73577e-14
2.69379e-14
2.65232e-14
2.61137e-14
2.57094e-14
2.53102e-14
2.49161e-14
2.45271e-14
2.41432e-14
2.37643e-14
2.33904e-14
2.30216e-14
2.26577e-14
2.22987e-14
2.19447e-14
2.15956e-14
2.12513e-14
2.09119e-14
2.05773e-14
2.02475e-14
1.99225e-14
1.96022e-14
1.92867e-14
1.89758e-14
1.86696e-14
1.8368e-14
1.80711e-14
1.77787e-14
1.74909e-14
1.72075e-14
1.69287e-14
1.66544e-14
1.63845e-14
1.6119e-14
1.58579e-14
1.56012e-14
1.53488e-14
1.51007e-14
1.48569e-14
1.46173e-14
1.4382e-14
1.41508e-14
1.39239e-14
1.3701e-14
1.34823e-14
1.32677e-14
1.30571e-14
1.28505e-14
1.2648e-14
1.24495e-14
1.22549e-14
1.20642e-14
1.18774e-14
1.16946e-14
1.15156e-14
1.13404e-14
1.1169e-14
1.10014e-14
1.08376e-14
1.06775e-14
1.05211e-14
1.03684e-14
1.02194e-14
1.0074e-14
9.93225e-15
9.79411e-15
9.65955e-15
9.52855e-15
9.4011e-15
9.27717e-15
9.15675e-15
9.03981e-15
8.92633e-15
8.81631e-15
8.70972e-15
8.60654e-15
8.50676e-15
8.41036e-15
8.31733e-15
8.22765e-15
8.14131e-15
8.05828e-15
7.97857e-15
7.90214e-15
7.829e-15
7.75913e-15
7.69252e-15
7.62915e-15
7.56902e-15
7.51212e-15
7.45842e-15
7.40794e-15
7.36065e-15
7.31655e-15
7.27563e-15
7.23789e-15
7.20332e-15
7.1719e-15
7.14364e-15
7.11854e-15
7.09658e-15
7.07776e-15
7.06209e-15
7.04956e-15
7.04016e-15
7.0339e-15
7.03076e-15
2.46561e-15
7.39197e-15
1.23038e-14
1.71917e-14
2.20466e-14
2.68598e-14
3.16233e-14
3.63294e-14
4.09713e-14
4.55425e-14
5.00374e-14
5.44507e-14
5.8778e-14
6.30153e-14
6.71592e-14
7.12068e-14
7.51559e-14
7.90045e-14
8.27512e-14
8.63952e-14
8.99357e-14
9.33725e-14
9.67059e-14
9.99362e-14
1.03064e-13
1.0609e-13
1.09016e-13
1.11844e-13
1.14573e-13
1.17207e-13
1.19747e-13
1.22194e-13
1.24552e-13
1.26821e-13
1.29004e-13
1.31104e-13
1.33121e-13
1.35059e-13
1.36919e-13
1.38704e-13
1.40416e-13
1.42057e-13
1.43629e-13
1.45134e-13
1.46574e-13
1.47951e-13
1.49267e-13
1.50524e-13
1.51724e-13
1.52869e-13
1.53959e-13
1.54998e-13
1.55986e-13
1.56925e-13
1.57817e-13
1.58663e-13
1.59465e-13
1.60223e-13
1.6094e-13
1.61616e-13
1.62253e-13
1.62852e-13
1.63414e-13
1.63939e-13
1.6443e-13
1.64887e-13
1.65311e-13
1.65703e-13