/*--------------------------------*- C++ -*----------------------------------*\
  =========                 |
  \\      /  F ield         | OpenFOAM: The Open Source CFD Toolbox
   \\    /   O peration     | Website:  https://openfoam.org
    \\  /    A nd           | Version:  10
     \\/     M anipulation  |
\*---------------------------------------------------------------------------*/
FoamFile
{
    format      ascii;
    class       volScalarField;
    location    "0.06";
    object      beta;
}
// * * * * * * * * * * * * * * * * * * * * * * * * * * * * * * * * * * * * * //

dimensions      [0 0 0 0 0 0 0];

internalField   uniform 0;

boundaryField
{
    frontAndBack
    {
        type            empty;
    }
    inlet
    {
        type            calculated;
        value           uniform 0;
    }
    outlet
    {
        type            calculated;
        value           uniform 0;
    }
    substrate
    {
        type            calculated;
        value           nonuniform List<scalar> 
400
(
0.00635149
0.00662633
0.00687156
0.00709556
0.0073026
0.00749518
0.00767491
0.00784292
0.00800009
0.00814711
0.0082846
0.00841309
0.00853308
0.00864502
0.00874937
0.00884652
0.0089369
0.00902088
0.00909885
0.00917116
0.00923815
0.00930017
0.00935754
0.00941054
0.00945949
0.00950464
0.00954627
0.00958462
0.00961993
0.00965241
0.00968227
0.00970971
0.0097349
0.00975802
0.00977923
0.00979867
0.00981648
0.00983279
0.00984772
0.00986137
0.00987386
0.00988527
0.00989569
0.00990521
0.0099139
0.00992182
0.00992904
0.00993563
0.00994163
0.00994709
0.00995206
0.00995658
0.0099607
0.00996444
0.00996783
0.00997092
0.00997372
0.00997626
0.00997857
0.00998066
0.00998255
0.00998427
0.00998582
0.00998723
0.0099885
0.00998965
0.00999069
0.00999163
0.00999247
0.00999324
0.00999393
0.00999455
0.00999511
0.00999562
0.00999607
0.00999648
0.00999685
0.00999718
0.00999748
0.00999775
0.00999799
0.0099982
0.00999839
0.00999857
0.00999872
0.00999886
0.00999899
0.0099991
0.0099992
0.00999929
0.00999936
0.00999944
0.0099995
0.00999955
0.00999961
0.00999965
0.00999969
0.00999973
0.00999976
0.00999978
0.00999981
0.00999983
0.00999985
0.00999987
0.00999988
0.0099999
0.00999991
0.00999992
0.00999993
0.00999994
0.00999995
0.00999995
0.00999996
0.00999996
0.00999997
0.00999997
0.00999998
0.00999998
0.00999998
0.00999998
0.00999999
0.00999999
0.00999999
0.00999999
0.00999999
0.00999999
0.00999999
0.00999999
0.01
0.01
0.01
0.01
0.01
0.01
0.01
0.01
0.01
0.01
0.01
0.01
0.01
0.01
0.01
0.01
0.01
0.01
0.01
0.01
0.01
0.01
0.01
0.01
0.01
0.01
0.01
0.01
0.01
0.01
0.01
0.01
0.01
0.01
0.01
0.01
0.01
0.01
0.01
0.01
0.01
0.01
0.01
0.01
0.01
0.01
0.01
0.01
0.01
0.01
0.01
0.01
0.01
0.01
0.01
0.01
0.01
0.01
0.01
0.01
0.01
0.01
0.01
0.01
0.01
0.01
0.01
0.01
0.01
0.01
0.01
0.01
0.01
0.01
0.01
0.01
0.01
0.01
0.01
0.01
0.01
0.01
0.01
0.01
0.01
0.01
0.01
0.01
0.01
0.01
0.01
0.01
0.01
0.01
0.01
0.01
0.01
0.01
0.01
0.01
0.01
0.01
0.01
0.01
0.01
0.01
0.01
0.01
0.01
0.01
0.01
0.01
0.01
0.01
0.01
0.01
0.01
0.01
0.01
0.01
0.01
0.01
0.01
0.01
0.01
0.01
0.01
0.01
0.01
0.01
0.01
0.01
0.01
0.01
0.01
0.01
0.01
0.01
0.01
0.01
0.01
0.01
0.01
0.01
0.01
0.01
0.01
0.01
0.01
0.01
0.01
0.01
0.01
0.01
0.01
0.01
0.01
0.01
0.01
0.01
0.01
0.01
0.01
0.01
0.01
0.01
0.01
0.01
0.01
0.01
0.01
0.01
0.01
0.01
0.01
0.01
0.01
0.01
0.01
0.01
0.01
0.01
0.01
0.01
0.01
0.01
0.01
0.01
0.01
0.01
0.01
0.01
0.01
0.01
0.01
0.01
0.01
0.01
0.01
0.01
0.01
0.01
0.01
0.01
0.01
0.01
0.01
0.01
0.01
0.01
0.01
0.01
0.01
0.01
0.01
0.01
0.01
0.01
0.01
0.01
0.01
0.01
0.01
0.01
0.01
0.01
0.01
0.01
0.01
0.01
0.01
0.01
0.01
0.01
0.01
0.01
0.01
0.01
0.01
0.01
0.01
0.01
0.01
0.01
0.01
0.01
0.01
0.01
0.01
0.01
0.01
0.01
0.01
0.01
0.01
0.01
0.01
0.01
0.01
0.01
0.01
0.01
0.01
0.01
0.01
0.01
0.01
0.01
0.01
0.01
0.01
0.01
)
;
    }
    Wall
    {
        type            calculated;
        value           nonuniform List<scalar> 
400
(
0.00635149
0.00662633
0.00687156
0.00709556
0.0073026
0.00749519
0.00767491
0.00784292
0.00800008
0.0081471
0.00828459
0.00841308
0.00853307
0.00864501
0.00874935
0.00884651
0.00893689
0.00902087
0.00909884
0.00917114
0.00923814
0.00930016
0.00935752
0.00941053
0.00945948
0.00950463
0.00954626
0.00958461
0.00961992
0.0096524
0.00968226
0.0097097
0.0097349
0.00975802
0.00977922
0.00979866
0.00981648
0.00983278
0.00984771
0.00986137
0.00987385
0.00988527
0.00989569
0.00990521
0.00991389
0.00992182
0.00992904
0.00993563
0.00994162
0.00994709
0.00995206
0.00995658
0.0099607
0.00996444
0.00996783
0.00997092
0.00997372
0.00997626
0.00997857
0.00998066
0.00998255
0.00998427
0.00998582
0.00998723
0.0099885
0.00998965
0.00999069
0.00999163
0.00999247
0.00999324
0.00999393
0.00999455
0.00999511
0.00999562
0.00999607
0.00999648
0.00999685
0.00999718
0.00999748
0.00999775
0.00999799
0.0099982
0.00999839
0.00999857
0.00999872
0.00999886
0.00999899
0.0099991
0.0099992
0.00999929
0.00999936
0.00999944
0.0099995
0.00999955
0.00999961
0.00999965
0.00999969
0.00999973
0.00999976
0.00999978
0.00999981
0.00999983
0.00999985
0.00999987
0.00999988
0.0099999
0.00999991
0.00999992
0.00999993
0.00999994
0.00999995
0.00999995
0.00999996
0.00999996
0.00999997
0.00999997
0.00999998
0.00999998
0.00999998
0.00999998
0.00999999
0.00999999
0.00999999
0.00999999
0.00999999
0.00999999
0.00999999
0.00999999
0.01
0.01
0.01
0.01
0.01
0.01
0.01
0.01
0.01
0.01
0.01
0.01
0.01
0.01
0.01
0.01
0.01
0.01
0.01
0.01
0.01
0.01
0.01
0.01
0.01
0.01
0.01
0.01
0.01
0.01
0.01
0.01
0.01
0.01
0.01
0.01
0.01
0.01
0.01
0.01
0.01
0.01
0.01
0.01
0.01
0.01
0.01
0.01
0.01
0.01
0.01
0.01
0.01
0.01
0.01
0.01
0.01
0.01
0.01
0.01
0.01
0.01
0.01
0.01
0.01
0.01
0.01
0.01
0.01
0.01
0.01
0.01
0.01
0.01
0.01
0.01
0.01
0.01
0.01
0.01
0.01
0.01
0.01
0.01
0.01
0.01
0.01
0.01
0.01
0.01
0.01
0.01
0.01
0.01
0.01
0.01
0.01
0.01
0.01
0.01
0.01
0.01
0.01
0.01
0.01
0.01
0.01
0.01
0.01
0.01
0.01
0.01
0.01
0.01
0.01
0.01
0.01
0.01
0.01
0.01
0.01
0.01
0.01
0.01
0.01
0.01
0.01
0.01
0.01
0.01
0.01
0.01
0.01
0.01
0.01
0.01
0.01
0.01
0.01
0.01
0.01
0.01
0.01
0.01
0.01
0.01
0.01
0.01
0.01
0.01
0.01
0.01
0.01
0.01
0.01
0.01
0.01
0.01
0.01
0.01
0.01
0.01
0.01
0.01
0.01
0.01
0.01
0.01
0.01
0.01
0.01
0.01
0.01
0.01
0.01
0.01
0.01
0.01
0.01
0.01
0.01
0.01
0.01
0.01
0.01
0.01
0.01
0.01
0.01
0.01
0.01
0.01
0.01
0.01
0.01
0.01
0.01
0.01
0.01
0.01
0.01
0.01
0.01
0.01
0.01
0.01
0.01
0.01
0.01
0.01
0.01
0.01
0.01
0.01
0.01
0.01
0.01
0.01
0.01
0.01
0.01
0.01
0.01
0.01
0.01
0.01
0.01
0.01
0.01
0.01
0.01
0.01
0.01
0.01
0.01
0.01
0.01
0.01
0.01
0.01
0.01
0.01
0.01
0.01
0.01
0.01
0.01
0.01
0.01
0.01
0.01
0.01
0.01
0.01
0.01
0.01
0.01
0.01
0.01
0.01
0.01
0.01
0.01
0.01
0.01
0.01
0.01
0.01
0.01
0.01
0.01
0.01
)
;
    }
}


// ************************************************************************* //
