/*--------------------------------*- C++ -*----------------------------------*\
  =========                 |
  \\      /  F ield         | OpenFOAM: The Open Source CFD Toolbox
   \\    /   O peration     | Website:  https://openfoam.org
    \\  /    A nd           | Version:  10
     \\/     M anipulation  |
\*---------------------------------------------------------------------------*/
FoamFile
{
    format      ascii;
    class       volScalarField;
    location    "0.06";
    object      growth;
}
// * * * * * * * * * * * * * * * * * * * * * * * * * * * * * * * * * * * * * //

dimensions      [0 0 0 0 0 0 0];

internalField   uniform 0;

boundaryField
{
    frontAndBack
    {
        type            empty;
    }
    inlet
    {
        type            calculated;
        value           uniform 0;
    }
    outlet
    {
        type            calculated;
        value           uniform 0;
    }
    substrate
    {
        type            calculated;
        value           nonuniform List<scalar> 
400
(
0.364851
0.337367
0.312844
0.290444
0.26974
0.250482
0.232509
0.215708
0.199991
0.185289
0.17154
0.158691
0.146692
0.135498
0.125063
0.115348
0.10631
0.0979116
0.090115
0.0828843
0.0761846
0.0699826
0.0642465
0.0589457
0.0540514
0.0495358
0.0453728
0.0415377
0.0380071
0.034759
0.0317728
0.0290291
0.0265097
0.0241975
0.0220769
0.0201329
0.0183519
0.016721
0.0152282
0.0138627
0.0126141
0.011473
0.0104307
0.00947895
0.00861037
0.00781803
0.00709556
0.00643711
0.00583725
0.00529103
0.00479386
0.00434153
0.00393019
0.00355628
0.00321654
0.00290798
0.00262787
0.0023737
0.00214316
0.00193415
0.00174474
0.00157318
0.00141784
0.00127726
0.0011501
0.00103511
0.000931197
0.000837324
0.000752562
0.000676063
0.000607053
0.000544828
0.000488747
0.000438229
0.000392742
0.000351806
0.000314982
0.000281874
0.000252122
0.000225398
0.000201406
0.000179877
0.000160569
0.00014326
0.000127753
0.000113865
0.000101435
9.0315e-05
8.03723e-05
7.14868e-05
6.35502e-05
5.6465e-05
5.01432e-05
4.45054e-05
3.94804e-05
3.5004e-05
3.10184e-05
2.74717e-05
2.43173e-05
2.15134e-05
1.90223e-05
1.68104e-05
1.48476e-05
1.31066e-05
1.15633e-05
1.01961e-05
8.98545e-06
7.91411e-06
6.96657e-06
6.129e-06
5.38906e-06
4.73575e-06
4.15926e-06
3.65084e-06
3.20273e-06
2.80799e-06
2.46048e-06
2.15472e-06
1.88586e-06
1.64958e-06
1.44205e-06
1.2599e-06
1.1001e-06
9.60002e-07
8.37248e-07
7.29757e-07
6.35687e-07
5.53412e-07
4.81497e-07
4.18675e-07
3.63831e-07
3.1598e-07
2.74256e-07
2.37898e-07
2.06234e-07
1.78676e-07
1.54706e-07
1.33869e-07
1.15768e-07
1.00053e-07
8.64184e-08
7.45956e-08
6.43504e-08
5.54781e-08
4.77993e-08
4.11578e-08
3.54171e-08
3.04581e-08
2.61771e-08
2.24838e-08
1.92994e-08
1.65557e-08
1.41931e-08
1.216e-08
1.04116e-08
8.90897e-09
7.61838e-09
6.51063e-09
5.56043e-09
4.74589e-09
4.0481e-09
3.45072e-09
2.93961e-09
2.50262e-09
2.12923e-09
1.81039e-09
1.53831e-09
1.30628e-09
1.10855e-09
9.40135e-10
7.96798e-10
6.74881e-10
5.71251e-10
4.83222e-10
4.08495e-10
3.45101e-10
2.91357e-10
2.45824e-10
2.07273e-10
1.74654e-10
1.47073e-10
1.23768e-10
1.04088e-10
8.74804e-11
7.34749e-11
6.16716e-11
5.17307e-11
4.3364e-11
3.63269e-11
3.04119e-11
2.54434e-11
2.12728e-11
1.77742e-11
1.48413e-11
1.23843e-11
1.03273e-11
8.60634e-12
7.16747e-12
5.96526e-12
4.96144e-12
4.12385e-12
3.42542e-12
2.84341e-12
2.35874e-12
1.95541e-12
1.61998e-12
1.34121e-12
1.10969e-12
9.17525e-13
7.58143e-13
6.26035e-13
5.16609e-13
4.26029e-13
3.51101e-13
2.89161e-13
2.37992e-13
1.95749e-13
1.60898e-13
1.32166e-13
1.08493e-13
8.90012e-14
7.29637e-14
5.97768e-14
4.89411e-14
4.00432e-14
3.27415e-14
2.67537e-14
2.18466e-14
1.78278e-14
1.45387e-14
1.18487e-14
9.65005e-15
7.85422e-15
6.3884e-15
5.19273e-15
4.21808e-15
3.42412e-15
2.77778e-15
2.25197e-15
1.82449e-15
1.47719e-15
1.19522e-15
9.66434e-16
7.80932e-16
6.30623e-16
5.08911e-16
4.10422e-16
3.30776e-16
2.66412e-16
2.14432e-16
1.72481e-16
1.38647e-16
1.11377e-16
8.94118e-17
7.17318e-17
5.75103e-17
4.60782e-17
3.68946e-17
2.95221e-17
2.36074e-17
1.88654e-17
1.50661e-17
1.20241e-17
9.59011e-18
7.64383e-18
6.08859e-18
4.84663e-18
3.8555e-18
3.06507e-18
2.4351e-18
1.93336e-18
1.53401e-18
1.21636e-18
9.63857e-19
7.63279e-19
6.0405e-19
4.7773e-19
3.77582e-19
2.98235e-19
2.35411e-19
1.85701e-19
1.46394e-19
1.15332e-19
9.08025e-20
7.14441e-20
5.61766e-20
4.41434e-20
3.46655e-20
2.7205e-20
2.13365e-20
1.67232e-20
1.30989e-20
1.02536e-20
8.02113e-21
6.27074e-21
4.89919e-21
3.82518e-21
2.98472e-21
2.32743e-21
1.81374e-21
1.41252e-21
1.09936e-21
8.55081e-22
6.64659e-22
5.16316e-22
4.00826e-22
3.10971e-22
2.41107e-22
1.86821e-22
1.44665e-22
1.11951e-22
8.65806e-23
6.69171e-23
5.16868e-23
3.98977e-23
3.07782e-23
2.37282e-23
1.82816e-23
1.40763e-23
1.08316e-23
8.32956e-24
6.40147e-24
4.91661e-24
3.77381e-24
2.89482e-24
2.21918e-24
1.70017e-24
1.30173e-24
9.96046e-25
7.6167e-25
5.82082e-25
4.44561e-25
3.39319e-25
2.58831e-25
1.97312e-25
1.50322e-25
1.14452e-25
8.70874e-26
6.62245e-26
5.03284e-26
3.82244e-26
2.90135e-26
2.20085e-26
1.66846e-26
1.26408e-26
9.57114e-27
7.24249e-27
5.47704e-27
4.1394e-27
3.12654e-27
2.36006e-27
1.78041e-27
1.3423e-27
1.01138e-27
7.61579e-28
5.73127e-28
4.31046e-28
3.2399e-28
2.43375e-28
1.82708e-28
1.37081e-28
1.02786e-28
7.70238e-29
5.7684e-29
4.31742e-29
3.22947e-29
2.41422e-29
1.80368e-29
1.34674e-29
1.00495e-29
7.49457e-30
5.58584e-30
4.16073e-30
3.09736e-30
2.30438e-30
1.71339e-30
1.27321e-30
9.45552e-31
7.01798e-31
5.20573e-31
3.85916e-31
2.85922e-31
2.11713e-31
1.56673e-31
1.15874e-31
8.56519e-32
6.32778e-32
4.67249e-32
3.44876e-32
2.54483e-32
1.87782e-32
1.38632e-32
1.02492e-32
7.60097e-33
5.67201e-33
4.28205e-33
3.30081e-33
2.63598e-33
2.22489e-33
2.02865e-33
)
;
    }
    Wall
    {
        type            calculated;
        value           nonuniform List<scalar> 
400
(
0.364851
0.337367
0.312844
0.290444
0.26974
0.250481
0.232509
0.215708
0.199992
0.18529
0.171541
0.158692
0.146693
0.135499
0.125065
0.115349
0.106311
0.0979129
0.0901163
0.0828855
0.0761858
0.0699838
0.0642477
0.0589469
0.0540525
0.0495369
0.0453738
0.0415386
0.038008
0.0347599
0.0317737
0.0290299
0.0265104
0.0241983
0.0220776
0.0201336
0.0183525
0.0167215
0.0152288
0.0138632
0.0126146
0.0114735
0.0104311
0.00947932
0.00861071
0.00781835
0.00709586
0.00643738
0.00583751
0.00529127
0.00479408
0.00434174
0.00393038
0.00355645
0.0032167
0.00290813
0.00262801
0.00237383
0.00214328
0.00193426
0.00174484
0.00157327
0.00141793
0.00127734
0.00115017
0.00103518
0.000931259
0.00083738
0.000752614
0.00067611
0.000607097
0.000544868
0.000488784
0.000438263
0.000392773
0.000351834
0.000315008
0.000281898
0.000252144
0.000225418
0.000201424
0.000179894
0.000160584
0.000143275
0.000127765
0.000113877
0.000101446
9.03247e-05
8.03811e-05
7.14948e-05
6.35575e-05
5.64717e-05
5.01492e-05
4.45109e-05
3.94854e-05
3.50085e-05
3.10225e-05
2.74754e-05
2.43207e-05
2.15164e-05
1.90251e-05
1.68129e-05
1.48498e-05
1.31086e-05
1.15652e-05
1.01977e-05
8.98694e-06
7.91545e-06
6.96777e-06
6.13008e-06
5.39003e-06
4.73662e-06
4.16004e-06
3.65154e-06
3.20336e-06
2.80856e-06
2.46098e-06
2.15517e-06
1.88626e-06
1.64994e-06
1.44238e-06
1.26018e-06
1.10036e-06
9.6023e-07
8.37452e-07
7.29938e-07
6.35848e-07
5.53555e-07
4.81624e-07
4.18788e-07
3.63931e-07
3.16069e-07
2.74335e-07
2.37968e-07
2.06296e-07
1.7873e-07
1.54754e-07
1.33912e-07
1.15806e-07
1.00086e-07
8.64474e-08
7.46211e-08
6.43729e-08
5.54978e-08
4.78167e-08
4.11731e-08
3.54305e-08
3.04698e-08
2.61874e-08
2.24928e-08
1.93073e-08
1.65626e-08
1.41991e-08
1.21653e-08
1.04162e-08
8.91294e-09
7.62184e-09
6.51364e-09
5.56304e-09
4.74816e-09
4.05008e-09
3.45243e-09
2.9411e-09
2.50391e-09
2.13034e-09
1.81135e-09
1.53914e-09
1.307e-09
1.10917e-09
9.40671e-10
7.9726e-10
6.75279e-10
5.71593e-10
4.83517e-10
4.08748e-10
3.45319e-10
2.91544e-10
2.45984e-10
2.0741e-10
1.74772e-10
1.47174e-10
1.23854e-10
1.04161e-10
8.75431e-11
7.35285e-11
6.17172e-11
5.17697e-11
4.33972e-11
3.63551e-11
3.04359e-11
2.54638e-11
2.12901e-11
1.77889e-11
1.48538e-11
1.23949e-11
1.03362e-11
8.61388e-12
7.17385e-12
5.97064e-12
4.96599e-12
4.12769e-12
3.42865e-12
2.84613e-12
2.36104e-12
1.95734e-12
1.6216e-12
1.34257e-12
1.11083e-12
9.18483e-13
7.58945e-13
6.26707e-13
5.17171e-13
4.265e-13
3.51494e-13
2.89489e-13
2.38266e-13
1.95977e-13
1.61089e-13
1.32324e-13
1.08624e-13
8.91109e-14
7.30548e-14
5.98524e-14
4.90038e-14
4.00952e-14
3.27846e-14
2.67893e-14
2.18761e-14
1.78522e-14
1.45589e-14
1.18653e-14
9.66378e-15
7.86554e-15
6.39772e-15
5.20041e-15
4.22439e-15
3.42931e-15
2.78204e-15
2.25547e-15
1.82736e-15
1.47954e-15
1.19714e-15
9.68012e-16
7.82223e-16
6.31679e-16
5.09774e-16
4.11126e-16
3.3135e-16
2.6688e-16
2.14813e-16
1.72792e-16
1.38899e-16
1.11582e-16
8.95785e-17
7.18671e-17
5.762e-17
4.61672e-17
3.69667e-17
2.95804e-17
2.36546e-17
1.89035e-17
1.50969e-17
1.2049e-17
9.61018e-18
7.66001e-18
6.10162e-18
4.85712e-18
3.86394e-18
3.07185e-18
2.44055e-18
1.93774e-18
1.53752e-18
1.21917e-18
9.66112e-19
7.65084e-19
6.05495e-19
4.78885e-19
3.78504e-19
2.98972e-19
2.35999e-19
1.8617e-19
1.46767e-19
1.15629e-19
9.10391e-20
7.16322e-20
5.63261e-20
4.42621e-20
3.47597e-20
2.72798e-20
2.13957e-20
1.67701e-20
1.3136e-20
1.02829e-20
8.04432e-21
6.28905e-21
4.91365e-21
3.83659e-21
2.99371e-21
2.33452e-21
1.81931e-21
1.41691e-21
1.10281e-21
8.57789e-22
6.66785e-22
5.17984e-22
4.02133e-22
3.11996e-22
2.41909e-22
1.87448e-22
1.45156e-22
1.12335e-22
8.68801e-23
6.71509e-23
5.18691e-23
4.00398e-23
3.08889e-23
2.38143e-23
1.83486e-23
1.41284e-23
1.0872e-23
8.36097e-24
6.42584e-24
4.9355e-24
3.78845e-24
2.90616e-24
2.22795e-24
1.70695e-24
1.30697e-24
1.00009e-24
7.64794e-25
5.84491e-25
4.46418e-25
3.4075e-25
2.59932e-25
1.98159e-25
1.50974e-25
1.14952e-25
8.74715e-26
6.65192e-26
5.05544e-26
3.83976e-26
2.91461e-26
2.211e-26
1.67622e-26
1.27001e-26
9.61647e-27
7.27709e-27
5.50343e-27
4.15953e-27
3.14187e-27
2.37174e-27
1.78929e-27
1.34905e-27
1.01651e-27
7.65479e-28
5.76088e-28
4.33291e-28
3.25692e-28
2.44665e-28
1.83685e-28
1.3782e-28
1.03344e-28
7.7446e-29
5.80029e-29
4.34148e-29
3.24762e-29
2.4279e-29
1.81399e-29
1.3545e-29
1.01079e-29
7.53848e-30
5.61883e-30
4.18551e-30
3.11595e-30
2.31833e-30
1.72385e-30
1.28104e-30
9.51417e-31
7.06187e-31
5.23854e-31
3.88369e-31
2.87754e-31
2.1308e-31
1.57692e-31
1.16635e-31
8.62183e-32
6.36995e-32
4.70388e-32
3.47211e-32
2.56219e-32
1.89072e-32
1.39591e-32
1.03206e-32
7.65425e-33
5.71199e-33
4.3124e-33
3.3243e-33
2.65466e-33
2.24011e-33
2.04201e-33
)
;
    }
}


// ************************************************************************* //
