/*--------------------------------*- C++ -*----------------------------------*\
  =========                 |
  \\      /  F ield         | OpenFOAM: The Open Source CFD Toolbox
   \\    /   O peration     | Website:  https://openfoam.org
    \\  /    A nd           | Version:  10
     \\/     M anipulation  |
\*---------------------------------------------------------------------------*/
FoamFile
{
    format      ascii;
    class       volScalarField;
    location    "0.06";
    object      N1;
}
// * * * * * * * * * * * * * * * * * * * * * * * * * * * * * * * * * * * * * //

dimensions      [0 0 0 0 0 0 0];

internalField   nonuniform List<scalar> 
8000
(
1.00701
0.935823
0.873234
0.816516
0.764275
0.715705
0.670289
0.627674
0.587602
0.549871
0.514321
0.480819
0.449248
0.419506
0.391498
0.365138
0.340346
0.317043
0.295157
0.274617
0.255355
0.237306
0.220406
0.204596
0.189815
0.176008
0.16312
0.151097
0.139891
0.129453
0.119735
0.110696
0.102292
0.0944833
0.0872322
0.0805026
0.0742604
0.0684733
0.0631108
0.0581443
0.0535467
0.0492926
0.0453581
0.0417209
0.0383599
0.0352555
0.0323893
0.0297441
0.0273039
0.0250538
0.0229796
0.0210686
0.0193085
0.0176881
0.0161969
0.0148251
0.0135638
0.0124044
0.0113392
0.010361
0.00946297
0.00863894
0.00788313
0.00719018
0.00655515
0.00597345
0.00544084
0.00495339
0.00450748
0.00409976
0.00372712
0.00338671
0.00307588
0.0027922
0.00253343
0.00229749
0.00208247
0.00188662
0.00170831
0.00154606
0.00139849
0.00126434
0.00114246
0.00103178
0.000931333
0.00084021
0.000757594
0.00068273
0.000614929
0.000553556
0.000498033
0.000447831
0.000402464
0.00036149
0.000324504
0.000291137
0.000261052
0.000233942
0.000209527
0.000187551
0.000167782
0.00015001
0.000134041
0.000119702
0.000106834
9.52923e-05
8.49469e-05
7.56794e-05
6.73824e-05
5.99589e-05
5.3321e-05
4.73891e-05
4.20915e-05
3.73632e-05
3.31458e-05
2.93862e-05
2.60371e-05
2.30553e-05
2.04023e-05
1.80434e-05
1.59472e-05
1.40857e-05
1.24337e-05
1.09685e-05
9.66986e-06
8.51957e-06
7.50135e-06
6.60061e-06
5.80432e-06
5.10084e-06
4.47973e-06
3.93173e-06
3.44854e-06
3.02278e-06
2.64787e-06
2.31796e-06
2.02783e-06
1.77287e-06
1.54895e-06
1.35242e-06
1.18006e-06
1.02899e-06
8.96673e-07
7.80855e-07
6.79548e-07
5.90995e-07
5.13641e-07
4.46116e-07
3.87212e-07
3.35861e-07
2.91128e-07
2.52184e-07
2.18304e-07
1.88849e-07
1.6326e-07
1.41043e-07
1.21768e-07
1.05057e-07
9.05785e-08
7.80427e-08
6.71965e-08
5.78188e-08
4.97163e-08
4.27203e-08
3.66841e-08
3.14794e-08
2.69949e-08
2.31336e-08
1.98111e-08
1.69544e-08
1.44997e-08
1.2392e-08
1.05835e-08
9.03272e-09
7.70396e-09
6.5662e-09
5.59265e-09
4.7602e-09
4.0489e-09
3.44153e-09
2.92327e-09
2.48137e-09
2.10482e-09
1.7842e-09
1.51138e-09
1.2794e-09
1.08228e-09
9.14912e-10
7.72894e-10
6.52473e-10
5.50437e-10
4.64039e-10
3.90934e-10
3.29121e-10
2.76891e-10
2.32789e-10
1.95578e-10
1.64202e-10
1.37765e-10
1.15505e-10
9.67755e-11
8.10272e-11
6.7795e-11
5.66848e-11
4.73628e-11
3.95466e-11
3.29976e-11
2.75143e-11
2.29263e-11
1.90903e-11
1.58852e-11
1.32091e-11
1.09763e-11
9.11471e-12
7.56362e-12
6.27217e-12
5.19766e-12
4.30428e-12
3.562e-12
2.94571e-12
2.43438e-12
2.01043e-12
1.65917e-12
1.36834e-12
1.12772e-12
9.28774e-13
7.64401e-13
6.28688e-13
5.16716e-13
4.24395e-13
3.48331e-13
2.85704e-13
2.34177e-13
1.91812e-13
1.57003e-13
1.28424e-13
1.04975e-13
8.5749e-14
6.99965e-14
5.70988e-14
4.6546e-14
3.79176e-14
3.08676e-14
2.51113e-14
2.04146e-14
1.6585e-14
1.34647e-14
1.0924e-14
8.85669e-15
7.17573e-15
5.80987e-15
4.70079e-15
3.80086e-15
3.07113e-15
2.47982e-15
2.001e-15
1.61355e-15
1.30023e-15
1.04705e-15
8.426e-16
6.77612e-16
5.44563e-16
4.37342e-16
3.50996e-16
2.81508e-16
2.25625e-16
1.80714e-16
1.44645e-16
1.15697e-16
9.24806e-17
7.38733e-17
5.89703e-17
4.70422e-17
3.75017e-17
2.98761e-17
2.37852e-17
1.89233e-17
1.50453e-17
1.1954e-17
9.49148e-18
7.53124e-18
5.97187e-18
4.73221e-18
3.7474e-18
2.96556e-18
2.34528e-18
1.85351e-18
1.46389e-18
1.1554e-18
9.11315e-19
7.1832e-19
5.65822e-19
4.45405e-19
3.50384e-19
2.75452e-19
2.16402e-19
1.69899e-19
1.33302e-19
1.04519e-19
8.1897e-20
6.41293e-20
5.01834e-20
3.92445e-20
3.06699e-20
2.39532e-20
1.86952e-20
1.45818e-20
1.13661e-20
8.85376e-21
6.89225e-21
5.36181e-21
4.1685e-21
3.23866e-21
2.5146e-21
1.95115e-21
1.51298e-21
1.17244e-21
9.07968e-22
7.02698e-22
5.43483e-22
4.20072e-22
3.24475e-22
2.50472e-22
1.93222e-22
1.48962e-22
1.14767e-22
8.83647e-23
6.79927e-23
5.22839e-23
4.01786e-23
3.08564e-23
2.36819e-23
1.81641e-23
1.3923e-23
1.06653e-23
8.16469e-24
6.2464e-24
4.77577e-24
3.64907e-24
2.78642e-24
2.12635e-24
1.62162e-24
1.23591e-24
9.41356e-25
7.16549e-25
5.45085e-25
4.1439e-25
3.14833e-25
2.39045e-25
1.81387e-25
1.3755e-25
1.04242e-25
7.89505e-26
5.97578e-26
4.52026e-26
3.41713e-26
2.5816e-26
1.94915e-26
1.47073e-26
1.10905e-26
8.35791e-27
6.29473e-27
4.73791e-27
3.56393e-27
2.67918e-27
2.01283e-27
1.51128e-27
1.13401e-27
8.50391e-28
6.37316e-28
4.77336e-28
3.57296e-28
2.67279e-28
1.99819e-28
1.49295e-28
1.11477e-28
8.31882e-29
6.20403e-29
4.62404e-29
3.44434e-29
2.56406e-29
1.9076e-29
1.41835e-29
1.05396e-29
7.82719e-30
5.8095e-30
4.30956e-30
3.19528e-30
2.36811e-30
1.7546e-30
1.30005e-30
9.63782e-31
7.15554e-31
5.32974e-31
3.99501e-31
3.03003e-31
2.34676e-31
1.88266e-31
1.59513e-31
1.45771e-31
1.01504
0.949418
0.88888
0.832852
0.780692
0.73189
0.68607
0.642947
0.602303
0.563962
0.527782
0.49364
0.461429
0.431051
0.402419
0.37545
0.350065
0.326189
0.303751
0.282681
0.262911
0.244378
0.227018
0.21077
0.195574
0.181375
0.168116
0.155745
0.144211
0.133464
0.123458
0.114147
0.10549
0.0974446
0.0899724
0.0830367
0.0766024
0.0706365
0.0651078
0.0599868
0.0552458
0.0508586
0.0468007
0.0430491
0.0395823
0.0363799
0.033423
0.0306941
0.0281765
0.0258549
0.0237148
0.021743
0.0199268
0.0182547
0.0167159
0.0153004
0.0139987
0.0128023
0.011703
0.0106935
0.0097667
0.00891627
0.00813623
0.00742107
0.00676568
0.00616532
0.00561562
0.00511253
0.00465231
0.00423149
0.00384689
0.00349555
0.00317474
0.00288195
0.00261486
0.00237134
0.00214941
0.00194727
0.00176323
0.00159576
0.00144345
0.00130499
0.00117919
0.00106496
0.000961276
0.000867224
0.000781952
0.000704682
0.0006347
0.000571354
0.000514047
0.00046223
0.000415405
0.000373113
0.000334938
0.000300498
0.000269446
0.000241464
0.000216264
0.000193581
0.000173177
0.000154833
0.000138351
0.000123551
0.000110269
9.83563e-05
8.76783e-05
7.81128e-05
6.9549e-05
6.18868e-05
5.50354e-05
4.89128e-05
4.34449e-05
3.85646e-05
3.42115e-05
3.03311e-05
2.68742e-05
2.37966e-05
2.10583e-05
1.86235e-05
1.646e-05
1.45386e-05
1.28335e-05
1.13212e-05
9.98077e-06
8.7935e-06
7.74254e-06
6.81284e-06
5.99095e-06
5.26484e-06
4.62377e-06
4.05815e-06
3.55942e-06
3.11997e-06
2.73301e-06
2.39249e-06
2.09303e-06
1.82987e-06
1.59875e-06
1.39591e-06
1.218e-06
1.06208e-06
9.25503e-07
8.05961e-07
7.01397e-07
6.09996e-07
5.30155e-07
4.60459e-07
3.99661e-07
3.4666e-07
3.00488e-07
2.60292e-07
2.25322e-07
1.94921e-07
1.68509e-07
1.45578e-07
1.25683e-07
1.08435e-07
9.34906e-08
8.05518e-08
6.93569e-08
5.96777e-08
5.13146e-08
4.40938e-08
3.78635e-08
3.24915e-08
2.78628e-08
2.38773e-08
2.04481e-08
1.74994e-08
1.49658e-08
1.27904e-08
1.09237e-08
9.32312e-09
7.95164e-09
6.7773e-09
5.77245e-09
4.91324e-09
4.17906e-09
3.55217e-09
3.01725e-09
2.56114e-09
2.17249e-09
1.84155e-09
1.55996e-09
1.32053e-09
1.11708e-09
9.44324e-10
7.9774e-10
6.73448e-10
5.68132e-10
4.78957e-10
4.03502e-10
3.39701e-10
2.85792e-10
2.40273e-10
2.01865e-10
1.69481e-10
1.42194e-10
1.19218e-10
9.98864e-11
8.36319e-11
6.99744e-11
5.8507e-11
4.88853e-11
4.08178e-11
3.40583e-11
2.83987e-11
2.36633e-11
1.9704e-11
1.63958e-11
1.36337e-11
1.13292e-11
9.4077e-12
7.80674e-12
6.47379e-12
5.36474e-12
4.44264e-12
3.6765e-12
3.0404e-12
2.51263e-12
2.07505e-12
1.7125e-12
1.41233e-12
1.16397e-12
9.58628e-13
7.88972e-13
6.48896e-13
5.33324e-13
4.38037e-13
3.59527e-13
2.94888e-13
2.41704e-13
1.97977e-13
1.6205e-13
1.32552e-13
1.08349e-13
8.85051e-14
7.22463e-14
5.89341e-14
4.8042e-14
3.91363e-14
3.18597e-14
2.59185e-14
2.10708e-14
1.71181e-14
1.38975e-14
1.12751e-14
9.14135e-15
7.40636e-15
5.9966e-15
4.85188e-15
3.92302e-15
3.16983e-15
2.55952e-15
2.06531e-15
1.66541e-15
1.34202e-15
1.0807e-15
8.6968e-16
6.9939e-16
5.62064e-16
4.51398e-16
3.62277e-16
2.90555e-16
2.32876e-16
1.86521e-16
1.49293e-16
1.19415e-16
9.54528e-17
7.62474e-17
6.08654e-17
4.8554e-17
3.87069e-17
3.08362e-17
2.45495e-17
1.95315e-17
1.55288e-17
1.23381e-17
9.7965e-18
7.77327e-18
6.16378e-18
4.88429e-18
3.86782e-18
3.06086e-18
2.42065e-18
1.91307e-18
1.51093e-18
1.19253e-18
9.406e-19
7.41403e-19
5.84005e-19
4.59718e-19
3.61643e-19
2.84304e-19
2.23356e-19
1.75359e-19
1.37585e-19
1.07877e-19
8.45287e-20
6.619e-20
5.17959e-20
4.05055e-20
3.16555e-20
2.47229e-20
1.92959e-20
1.50504e-20
1.17313e-20
9.13825e-21
7.11371e-21
5.5341e-21
4.30244e-21
3.34272e-21
2.5954e-21
2.01385e-21
1.56159e-21
1.21012e-21
9.37143e-22
7.25277e-22
5.60946e-22
4.33569e-22
3.34901e-22
2.5852e-22
1.99431e-22
1.53749e-22
1.18455e-22
9.12039e-23
7.01773e-23
5.39637e-23
4.14696e-23
3.18478e-23
2.44428e-23
1.87477e-23
1.43703e-23
1.1008e-23
8.42701e-24
6.44709e-24
4.92921e-24
3.76631e-24
2.87594e-24
2.19467e-24
1.67372e-24
1.27562e-24
9.716e-25
7.3957e-25
5.62597e-25
4.27703e-25
3.24948e-25
2.46725e-25
1.87215e-25
1.41969e-25
1.07591e-25
8.14869e-26
6.16776e-26
4.66548e-26
3.52691e-26
2.66453e-26
2.01177e-26
1.51798e-26
1.14468e-26
8.62642e-27
6.49695e-27
4.89012e-27
3.67842e-27
2.76525e-27
2.07749e-27
1.55983e-27
1.17044e-27
8.7771e-28
6.5779e-28
4.92671e-28
3.68774e-28
2.75866e-28
2.06238e-28
1.54091e-28
1.15058e-28
8.58606e-29
6.40333e-29
4.77259e-29
3.55499e-29
2.64642e-29
1.96888e-29
1.46392e-29
1.08781e-29
8.07863e-30
5.99613e-30
4.448e-30
3.29792e-30
2.44418e-30
1.81096e-30
1.34182e-30
9.94741e-31
7.3854e-31
5.50095e-31
4.12336e-31
3.12739e-31
2.42217e-31
1.94315e-31
1.64635e-31
1.50456e-31
1.01881
0.958018
0.900155
0.845507
0.793974
0.745356
0.699447
0.656063
0.615046
0.576261
0.539591
0.504932
0.472189
0.441275
0.412109
0.384612
0.358711
0.334334
0.311411
0.289873
0.269655
0.250693
0.232924
0.216287
0.200723
0.186175
0.172586
0.159904
0.148077
0.137055
0.126791
0.117238
0.108354
0.100097
0.0924274
0.0853073
0.0787011
0.0725753
0.0668977
0.0616384
0.0567689
0.0522625
0.0480941
0.0442401
0.0406783
0.0373881
0.0343501
0.0315461
0.0289591
0.0265734
0.0243743
0.0223479
0.0204814
0.018763
0.0171816
0.0157267
0.0143889
0.0131592
0.0120294
0.0109918
0.0100392
0.00916508
0.00836332
0.00762823
0.00695457
0.00633747
0.00577244
0.00525531
0.00478225
0.00434969
0.00395435
0.0035932
0.00326344
0.00296247
0.00268793
0.0024376
0.00220948
0.00200168
0.0018125
0.00164036
0.00148379
0.00134146
0.00121215
0.00109472
0.000988145
0.000891464
0.000803809
0.000724379
0.000652442
0.000587325
0.000528416
0.000475151
0.000427017
0.000383543
0.000344301
0.000308899
0.000276978
0.000248214
0.000222309
0.000198993
0.000178018
0.000159162
0.000142219
0.000127005
0.000113352
0.000101106
9.01294e-05
8.02965e-05
7.14934e-05
6.36169e-05
5.6574e-05
5.02803e-05
4.46595e-05
3.96427e-05
3.5168e-05
3.11791e-05
2.76256e-05
2.44619e-05
2.16471e-05
1.91442e-05
1.69201e-05
1.49451e-05
1.31923e-05
1.16377e-05
1.02598e-05
9.03934e-06
7.959e-06
7.00331e-06
6.15844e-06
5.41204e-06
4.75304e-06
4.17161e-06
3.65894e-06
3.2072e-06
2.80942e-06
2.45938e-06
2.15155e-06
1.88103e-06
1.64345e-06
1.43494e-06
1.25206e-06
1.09177e-06
9.51379e-07
8.28495e-07
7.21008e-07
6.27051e-07
5.44978e-07
4.73334e-07
4.10835e-07
3.56352e-07
3.08889e-07
2.67569e-07
2.31623e-07
2.00371e-07
1.7322e-07
1.49648e-07
1.29198e-07
1.11467e-07
9.61046e-08
8.2804e-08
7.12962e-08
6.13463e-08
5.27495e-08
4.53267e-08
3.89222e-08
3.34e-08
2.86419e-08
2.4545e-08
2.10198e-08
1.79887e-08
1.53843e-08
1.3148e-08
1.12291e-08
9.58381e-09
8.17398e-09
6.9668e-09
5.93386e-09
5.05062e-09
4.29592e-09
3.6515e-09
3.10162e-09
2.63275e-09
2.23324e-09
1.89305e-09
1.60359e-09
1.35745e-09
1.14831e-09
9.70731e-10
8.20048e-10
6.9228e-10
5.84019e-10
4.9235e-10
4.14785e-10
3.492e-10
2.93784e-10
2.46992e-10
2.0751e-10
1.7422e-10
1.4617e-10
1.22552e-10
1.0268e-10
8.59707e-11
7.19312e-11
6.01432e-11
5.02524e-11
4.19593e-11
3.50108e-11
2.91929e-11
2.43251e-11
2.0255e-11
1.68544e-11
1.4015e-11
1.1646e-11
9.6708e-12
8.02507e-12
6.65484e-12
5.51477e-12
4.56688e-12
3.77932e-12
3.12543e-12
2.5829e-12
2.13308e-12
1.76039e-12
1.45183e-12
1.19652e-12
9.85439e-13
8.11038e-13
6.67045e-13
5.48241e-13
4.50288e-13
3.69583e-13
3.03135e-13
2.48464e-13
2.03514e-13
1.66582e-13
1.36259e-13
1.11379e-13
9.09806e-14
7.4267e-14
6.05825e-14
4.93858e-14
4.0231e-14
3.27509e-14
2.66434e-14
2.16601e-14
1.75969e-14
1.42862e-14
1.15905e-14
9.39705e-15
7.61353e-15
6.16433e-15
4.9876e-15
4.03276e-15
3.2585e-15
2.63112e-15
2.12309e-15
1.71199e-15
1.37956e-15
1.11093e-15
8.94008e-16
7.18954e-16
5.77787e-16
4.64026e-16
3.72411e-16
2.98684e-16
2.39391e-16
1.91739e-16
1.5347e-16
1.22756e-16
9.81231e-17
7.83805e-17
6.25682e-17
4.99123e-17
3.97898e-17
3.16989e-17
2.52363e-17
2.00779e-17
1.59632e-17
1.26833e-17
1.00706e-17
7.99075e-18
6.33623e-18
5.02094e-18
3.97604e-18
3.1465e-18
2.48838e-18
1.9666e-18
1.5532e-18
1.22589e-18
9.66918e-19
7.62147e-19
6.00345e-19
4.72581e-19
3.71762e-19
2.92259e-19
2.29606e-19
1.80266e-19
1.41435e-19
1.10896e-19
8.6894e-20
6.80421e-20
5.32453e-20
4.1639e-20
3.25413e-20
2.54147e-20
1.98359e-20
1.54716e-20
1.20596e-20
9.39398e-21
7.31279e-21
5.68897e-21
4.42284e-21
3.43627e-21
2.66804e-21
2.07021e-21
1.60529e-21
1.24398e-21
9.6337e-22
7.45575e-22
5.76646e-22
4.45704e-22
3.44274e-22
2.65755e-22
2.05013e-22
1.58052e-22
1.2177e-22
9.37567e-23
7.21416e-23
5.54742e-23
4.26303e-23
3.27392e-23
2.5127e-23
1.92724e-23
1.47725e-23
1.13161e-23
8.66291e-24
6.62756e-24
5.0672e-24
3.87175e-24
2.95645e-24
2.2561e-24
1.72057e-24
1.31133e-24
9.988e-25
7.60275e-25
5.78347e-25
4.39677e-25
3.34046e-25
2.53633e-25
1.92456e-25
1.45944e-25
1.10604e-25
8.37684e-26
6.34045e-26
4.79611e-26
3.62566e-26
2.73914e-26
2.0681e-26
1.56048e-26
1.17673e-26
8.86798e-27
6.67888e-27
5.02706e-27
3.78143e-27
2.84269e-27
2.13567e-27
1.60351e-27
1.20321e-27
9.0229e-28
6.76211e-28
5.06468e-28
3.79102e-28
2.83592e-28
2.12015e-28
1.58406e-28
1.18281e-28
8.82654e-29
6.58268e-29
4.90626e-29
3.65456e-29
2.72055e-29
2.02403e-29
1.50492e-29
1.11829e-29
8.30493e-30
6.16409e-30
4.57261e-30
3.39031e-30
2.51265e-30
1.8617e-30
1.37941e-30
1.02261e-30
7.59233e-31
5.65509e-31
4.23893e-31
3.21509e-31
2.49014e-31
1.9977e-31
1.69248e-31
1.54669e-31
1.021
0.963772
0.908347
0.85522
0.804557
0.756367
0.710586
0.667128
0.6259
0.586812
0.549776
0.51471
0.481536
0.450178
0.420563
0.392619
0.366277
0.341468
0.318125
0.296182
0.275575
0.256239
0.238114
0.221137
0.20525
0.190396
0.176518
0.163563
0.151479
0.140216
0.129725
0.11996
0.110877
0.102434
0.0945899
0.0873075
0.0805501
0.0742835
0.0684749
0.0630938
0.0581112
0.0534999
0.0492341
0.0452898
0.0416445
0.0382769
0.0351673
0.0322971
0.0296491
0.0272069
0.0249557
0.0228812
0.0209705
0.0192112
0.0175921
0.0161026
0.014733
0.013474
0.0123172
0.0112548
0.0102795
0.00938449
0.00856356
0.0078109
0.00712113
0.00648927
0.00591073
0.00538123
0.00489684
0.00445393
0.00404912
0.00367932
0.00334166
0.00303348
0.00275236
0.00249604
0.00226245
0.00204967
0.00185596
0.00167968
0.00151936
0.00137363
0.00124121
0.00112097
0.00101184
0.00091284
0.000823083
0.000741749
0.000668087
0.000601409
0.000541087
0.000486545
0.000437257
0.000392741
0.000352557
0.000316306
0.00028362
0.000254167
0.000227641
0.000203765
0.000182287
0.000162979
0.00014563
0.000130051
0.00011607
0.000103531
9.22908e-05
8.22221e-05
7.32078e-05
6.51425e-05
5.79307e-05
5.1486e-05
4.57304e-05
4.05934e-05
3.60113e-05
3.19268e-05
2.8288e-05
2.50485e-05
2.21662e-05
1.96033e-05
1.73259e-05
1.53035e-05
1.35086e-05
1.19168e-05
1.05058e-05
9.25611e-06
8.14986e-06
7.17125e-06
6.30612e-06
5.54182e-06
4.86702e-06
4.27164e-06
3.74668e-06
3.28411e-06
2.87679e-06
2.51835e-06
2.20315e-06
1.92614e-06
1.68286e-06
1.46934e-06
1.28208e-06
1.11795e-06
9.74193e-07
8.48362e-07
7.38297e-07
6.42088e-07
5.58046e-07
4.84684e-07
4.20687e-07
3.64897e-07
3.16296e-07
2.73986e-07
2.37177e-07
2.05176e-07
1.77374e-07
1.53237e-07
1.32296e-07
1.1414e-07
9.84092e-08
8.47896e-08
7.30058e-08
6.28174e-08
5.40144e-08
4.64136e-08
3.98555e-08
3.42009e-08
2.93287e-08
2.51335e-08
2.15239e-08
1.84201e-08
1.57532e-08
1.34633e-08
1.14984e-08
9.81362e-09
8.36999e-09
7.13386e-09
6.07615e-09
5.17173e-09
4.39893e-09
3.73906e-09
3.176e-09
2.69589e-09
2.28679e-09
1.93845e-09
1.64204e-09
1.39001e-09
1.17585e-09
9.94009e-10
8.39713e-10
7.08881e-10
5.98024e-10
5.04157e-10
4.24732e-10
3.57574e-10
3.00829e-10
2.52915e-10
2.12486e-10
1.78398e-10
1.49675e-10
1.25491e-10
1.05142e-10
8.80323e-11
7.36562e-11
6.15854e-11
5.14575e-11
4.29656e-11
3.58504e-11
2.9893e-11
2.49084e-11
2.07407e-11
1.72586e-11
1.43511e-11
1.19253e-11
9.90272e-12
8.21753e-12
6.81443e-12
5.64703e-12
4.67641e-12
3.86996e-12
3.20039e-12
2.64485e-12
2.18424e-12
1.80261e-12
1.48664e-12
1.22522e-12
1.00907e-12
8.30489e-13
6.83042e-13
5.61389e-13
4.61087e-13
3.78447e-13
3.10406e-13
2.54423e-13
2.08395e-13
1.70577e-13
1.39527e-13
1.14051e-13
9.31628e-14
7.60483e-14
6.20355e-14
5.05703e-14
4.11959e-14
3.35364e-14
2.72825e-14
2.21797e-14
1.8019e-14
1.46289e-14
1.18685e-14
9.62245e-15
7.79616e-15
6.3122e-15
5.10723e-15
4.12949e-15
3.33667e-15
2.69423e-15
2.17402e-15
1.75306e-15
1.41266e-15
1.13758e-15
9.15454e-16
7.36201e-16
5.91648e-16
4.75157e-16
3.81345e-16
3.05849e-16
2.45134e-16
1.96339e-16
1.57152e-16
1.25701e-16
1.00477e-16
8.0261e-17
6.40693e-17
5.11098e-17
4.07444e-17
3.24594e-17
2.58418e-17
2.05596e-17
1.63462e-17
1.29876e-17
1.03122e-17
8.18248e-18
6.48826e-18
5.14142e-18
4.07145e-18
3.222e-18
2.54809e-18
2.01379e-18
1.59047e-18
1.25531e-18
9.90121e-19
7.80437e-19
6.14752e-19
4.83922e-19
3.80684e-19
2.99273e-19
2.35116e-19
1.84592e-19
1.4483e-19
1.13558e-19
8.89795e-20
6.96752e-20
5.45233e-20
4.26384e-20
3.33223e-20
2.60247e-20
2.0312e-20
1.58429e-20
1.23491e-20
9.61947e-21
7.48833e-21
5.82553e-21
4.52902e-21
3.51876e-21
2.73209e-21
2.11991e-21
1.64383e-21
1.27385e-21
9.86499e-22
7.63475e-22
5.9049e-22
4.56405e-22
3.5254e-22
2.72136e-22
2.09935e-22
1.61847e-22
1.24694e-22
9.6008e-23
7.38739e-23
5.68063e-23
4.3654e-23
3.35254e-23
2.57304e-23
1.97353e-23
1.51273e-23
1.15879e-23
8.87097e-24
6.78674e-24
5.1889e-24
3.96474e-24
3.02746e-24
2.3103e-24
1.7619e-24
1.34283e-24
1.02279e-24
7.78538e-25
5.92241e-25
4.5024e-25
3.42071e-25
2.59726e-25
1.9708e-25
1.49451e-25
1.13261e-25
8.57812e-26
6.4928e-26
4.91135e-26
3.71278e-26
2.80496e-26
2.1178e-26
1.59798e-26
1.20501e-26
9.0811e-27
6.83939e-27
5.14788e-27
3.87231e-27
2.91101e-27
2.18701e-27
1.64206e-27
1.23214e-27
9.23979e-28
6.92467e-28
5.18644e-28
3.88216e-28
2.9041e-28
2.17112e-28
1.62215e-28
1.21125e-28
9.03877e-29
6.74096e-29
5.02424e-29
3.74244e-29
2.78597e-29
2.0727e-29
1.54111e-29
1.14518e-29
8.50467e-30
6.31235e-30
4.68259e-30
3.47185e-30
2.57309e-30
1.90648e-30
1.41259e-30
1.04721e-30
7.77496e-31
5.79113e-31
4.34091e-31
3.29245e-31
2.5501e-31
2.04584e-31
1.73327e-31
1.58395e-31
1.02245
0.967798
0.914366
0.862638
0.81288
0.765216
0.719685
0.676277
0.634957
0.595676
0.558377
0.523002
0.489487
0.457769
0.427785
0.39947
0.372758
0.347586
0.323888
0.301601
0.280662
0.261007
0.242577
0.225309
0.209146
0.19403
0.179904
0.166715
0.15441
0.142939
0.132253
0.122305
0.113051
0.104448
0.0964542
0.0890321
0.0821446
0.0757566
0.0698352
0.0643491
0.0592691
0.0545672
0.0502175
0.0461954
0.042478
0.0390438
0.0358724
0.0329452
0.0302444
0.0277536
0.0254574
0.0233414
0.0213924
0.019598
0.0179464
0.0164271
0.0150299
0.0137456
0.0125656
0.0114818
0.0104869
0.00957385
0.00873639
0.00796857
0.00726489
0.0066203
0.00603008
0.0054899
0.00499574
0.00454389
0.00413092
0.00375365
0.00340917
0.00309477
0.00280797
0.00254648
0.00230817
0.00209109
0.00189346
0.00171363
0.00155007
0.00140139
0.0012663
0.00114363
0.00103229
0.000931291
0.00083972
0.000756742
0.000681591
0.000613566
0.000552024
0.00049638
0.000446095
0.000400679
0.000359684
0.0003227
0.000289353
0.000259304
0.000232242
0.000207884
0.000185972
0.000166273
0.000148573
0.00013268
0.000118416
0.000105623
9.41564e-05
8.38841e-05
7.46876e-05
6.64593e-05
5.91017e-05
5.25268e-05
4.66548e-05
4.14139e-05
3.67392e-05
3.25721e-05
2.88599e-05
2.55548e-05
2.26142e-05
1.99995e-05
1.76761e-05
1.56128e-05
1.37817e-05
1.21576e-05
1.07182e-05
9.44321e-06
8.3146e-06
7.31621e-06
6.4336e-06
5.65384e-06
4.9654e-06
4.35799e-06
3.82242e-06
3.3505e-06
2.93494e-06
2.56926e-06
2.24768e-06
1.96507e-06
1.71687e-06
1.49905e-06
1.308e-06
1.14055e-06
9.93886e-07
8.65511e-07
7.53221e-07
6.55067e-07
5.69327e-07
4.94481e-07
4.29191e-07
3.72274e-07
3.2269e-07
2.79524e-07
2.41971e-07
2.09323e-07
1.8096e-07
1.56335e-07
1.3497e-07
1.16447e-07
1.00398e-07
8.65036e-08
7.44816e-08
6.40872e-08
5.51063e-08
4.73519e-08
4.06612e-08
3.48923e-08
2.99216e-08
2.56416e-08
2.1959e-08
1.87925e-08
1.60717e-08
1.37355e-08
1.17309e-08
1.0012e-08
8.5392e-09
7.27808e-09
6.19899e-09
5.27629e-09
4.48786e-09
3.81465e-09
3.24021e-09
2.75039e-09
2.33302e-09
1.97763e-09
1.67524e-09
1.41811e-09
1.19962e-09
1.0141e-09
8.56689e-10
7.23213e-10
6.10114e-10
5.1435e-10
4.33319e-10
3.64804e-10
3.06911e-10
2.58028e-10
2.16783e-10
1.82005e-10
1.52702e-10
1.28028e-10
1.07268e-10
8.98122e-11
7.51455e-11
6.28307e-11
5.24979e-11
4.38343e-11
3.65753e-11
3.04974e-11
2.54121e-11
2.11601e-11
1.76075e-11
1.46413e-11
1.21664e-11
1.0103e-11
8.3837e-12
6.95223e-12
5.76122e-12
4.77097e-12
3.94822e-12
3.26511e-12
2.69833e-12
2.22841e-12
1.83907e-12
1.51671e-12
1.25e-12
1.02948e-12
8.47285e-13
6.96857e-13
5.72743e-13
4.70413e-13
3.86101e-13
3.16684e-13
2.59569e-13
2.1261e-13
1.74027e-13
1.42349e-13
1.16358e-13
9.50472e-14
7.75866e-14
6.32904e-14
5.15932e-14
4.20292e-14
3.42148e-14
2.78344e-14
2.26283e-14
1.83835e-14
1.49248e-14
1.21086e-14
9.81712e-15
7.95388e-15
6.4399e-15
5.21056e-15
4.21304e-15
3.40417e-15
2.74874e-15
2.218e-15
1.78853e-15
1.44124e-15
1.1606e-15
9.33978e-16
7.51098e-16
6.0362e-16
4.84772e-16
3.89062e-16
3.12038e-16
2.50095e-16
2.00313e-16
1.60332e-16
1.28245e-16
1.02511e-16
8.18854e-17
6.5366e-17
5.21443e-17
4.15691e-17
3.31165e-17
2.63649e-17
2.09758e-17
1.66771e-17
1.32505e-17
1.0521e-17
8.34812e-18
6.61961e-18
5.24551e-18
4.15387e-18
3.28723e-18
2.59968e-18
2.05456e-18
1.62268e-18
1.28073e-18
1.01017e-18
7.9624e-19
6.27201e-19
4.93722e-19
3.88393e-19
3.05333e-19
2.39878e-19
1.88331e-19
1.47763e-19
1.15858e-19
9.07817e-20
7.10865e-20
5.56277e-20
4.35021e-20
3.39973e-20
2.65519e-20
2.07235e-20
1.61639e-20
1.25993e-20
9.81436e-21
7.64004e-21
5.94356e-21
4.62078e-21
3.59006e-21
2.78745e-21
2.16286e-21
1.67715e-21
1.29966e-21
1.00649e-21
7.78948e-22
6.02458e-22
4.65656e-22
3.59686e-22
2.77652e-22
2.14191e-22
1.65128e-22
1.27222e-22
9.79543e-23
7.53716e-23
5.7958e-23
4.45391e-23
3.42052e-23
2.62522e-23
2.01355e-23
1.54341e-23
1.18229e-23
9.05087e-24
6.92438e-24
5.29414e-24
4.04515e-24
3.08887e-24
2.35716e-24
1.79764e-24
1.37007e-24
1.04354e-24
7.94333e-25
6.04257e-25
4.59375e-25
3.49012e-25
2.64996e-25
2.01079e-25
1.52483e-25
1.1556e-25
8.75221e-26
6.62458e-26
5.01104e-26
3.78814e-26
2.8619e-26
2.16079e-26
1.63042e-26
1.22947e-26
9.26547e-27
6.97826e-27
5.2524e-27
3.95094e-27
2.97013e-27
2.23142e-27
1.6754e-27
1.25716e-27
9.42746e-28
7.06532e-28
5.29179e-28
3.96102e-28
2.9631e-28
2.21523e-28
1.65511e-28
1.23586e-28
9.22244e-29
6.87795e-29
5.12634e-29
3.8185e-29
2.8426e-29
2.11483e-29
1.57244e-29
1.16846e-29
8.67756e-30
6.44068e-30
4.77779e-30
3.54245e-30
2.62541e-30
1.94525e-30
1.44132e-30
1.06851e-30
7.93309e-31
5.90891e-31
4.4292e-31
3.35943e-31
2.602e-31
2.08751e-31
1.76858e-31
1.61622e-31
1.02345
0.970683
0.918803
0.868249
0.819315
0.772179
0.726943
0.683652
0.642317
0.602924
0.565444
0.52984
0.496063
0.464063
0.433784
0.405167
0.378155
0.352684
0.328694
0.306123
0.284909
0.26499
0.246306
0.228797
0.212404
0.197069
0.182736
0.169352
0.156863
0.145219
0.13437
0.124269
0.114872
0.106134
0.0980155
0.0904766
0.08348
0.0769905
0.0709747
0.0654008
0.0602391
0.0554615
0.0510415
0.0469542
0.0431765
0.0396864
0.0364633
0.0334883
0.0307433
0.0282117
0.0258778
0.0237272
0.0217461
0.0199221
0.0182434
0.016699
0.0152788
0.0139733
0.0127738
0.0116721
0.0106607
0.00973258
0.00888126
0.00810073
0.0073854
0.00673013
0.00613013
0.005581
0.00507865
0.00461931
0.00419948
0.00381596
0.00346577
0.00314615
0.00285459
0.00258876
0.00234649
0.00212582
0.00192491
0.00174209
0.00157581
0.00142466
0.00128733
0.00116262
0.00104943
0.000946759
0.000853667
0.000769311
0.000692912
0.000623757
0.000561194
0.000504625
0.000453505
0.000407335
0.000365658
0.00032806
0.00029416
0.000263612
0.0002361
0.000211337
0.000189061
0.000169035
0.000151041
0.000134884
0.000120383
0.000107378
9.57205e-05
8.52776e-05
7.59283e-05
6.75633e-05
6.00835e-05
5.33993e-05
4.74298e-05
4.21019e-05
3.73495e-05
3.31132e-05
2.93393e-05
2.59793e-05
2.29899e-05
2.03318e-05
1.79697e-05
1.58722e-05
1.40106e-05
1.23596e-05
1.08963e-05
9.60009e-06
8.45273e-06
7.43775e-06
6.54048e-06
5.74776e-06
5.04789e-06
4.43039e-06
3.88592e-06
3.40616e-06
2.9837e-06
2.61194e-06
2.28502e-06
1.99772e-06
1.7454e-06
1.52395e-06
1.32973e-06
1.1595e-06
1.0104e-06
8.7989e-07
7.65735e-07
6.6595e-07
5.78786e-07
5.02697e-07
4.36321e-07
3.78459e-07
3.28051e-07
2.84168e-07
2.45991e-07
2.12801e-07
1.83966e-07
1.58932e-07
1.37213e-07
1.18382e-07
1.02067e-07
8.79409e-08
7.57192e-08
6.51521e-08
5.60219e-08
4.81387e-08
4.13368e-08
3.5472e-08
3.04188e-08
2.60677e-08
2.23239e-08
1.91048e-08
1.63387e-08
1.39637e-08
1.19258e-08
1.01784e-08
8.6811e-09
7.39903e-09
6.302e-09
5.36397e-09
4.56245e-09
3.87804e-09
3.29406e-09
2.7961e-09
2.37179e-09
2.0105e-09
1.70308e-09
1.44168e-09
1.21956e-09
1.03096e-09
8.70928e-10
7.35233e-10
6.20255e-10
5.22899e-10
4.40521e-10
3.70867e-10
3.12012e-10
2.62317e-10
2.20386e-10
1.8503e-10
1.5524e-10
1.30157e-10
1.09051e-10
9.13053e-11
7.63947e-11
6.38752e-11
5.33707e-11
4.45631e-11
3.71834e-11
3.10045e-11
2.58346e-11
2.1512e-11
1.79003e-11
1.48848e-11
1.23687e-11
1.0271e-11
8.5231e-12
7.06784e-12
5.85703e-12
4.85031e-12
4.01387e-12
3.3194e-12
2.74321e-12
2.26547e-12
1.86965e-12
1.54193e-12
1.27079e-12
1.0466e-12
8.61377e-13
7.08447e-13
5.8227e-13
4.78237e-13
3.92523e-13
3.21952e-13
2.63887e-13
2.16147e-13
1.76923e-13
1.44717e-13
1.18294e-13
9.66285e-14
7.88774e-14
6.43434e-14
5.24517e-14
4.27286e-14
3.47841e-14
2.82975e-14
2.30049e-14
1.86894e-14
1.51732e-14
1.23101e-14
9.9805e-15
8.08625e-15
6.54708e-15
5.29729e-15
4.28316e-15
3.46084e-15
2.7945e-15
2.25492e-15
1.8183e-15
1.46523e-15
1.17992e-15
9.49527e-16
7.63603e-16
6.1367e-16
4.92844e-16
3.95541e-16
3.17234e-16
2.54259e-16
2.03648e-16
1.63002e-16
1.30381e-16
1.04218e-16
8.32492e-17
6.64548e-17
5.30128e-17
4.22615e-17
3.36681e-17
2.68041e-17
2.13252e-17
1.69549e-17
1.34713e-17
1.06963e-17
8.48722e-18
6.72991e-18
5.33291e-18
4.22309e-18
3.34201e-18
2.643e-18
2.08881e-18
1.64972e-18
1.30207e-18
1.02701e-18
8.09513e-19
6.37656e-19
5.01953e-19
3.94868e-19
3.10424e-19
2.43878e-19
1.91471e-19
1.50227e-19
1.1779e-19
9.22956e-20
7.2272e-20
5.65554e-20
4.42276e-20
3.45644e-20
2.69948e-20
2.10692e-20
1.64335e-20
1.28095e-20
9.97811e-21
7.76752e-21
6.04274e-21
4.69789e-21
3.64997e-21
2.83396e-21
2.19896e-21
1.70514e-21
1.32136e-21
1.02329e-21
7.91952e-22
6.12516e-22
4.7343e-22
3.65691e-22
2.82288e-22
2.17767e-22
1.67885e-22
1.29346e-22
9.95903e-23
7.66305e-23
5.89261e-23
4.52831e-23
3.47766e-23
2.66908e-23
2.04719e-23
1.5692e-23
1.20205e-23
9.20212e-24
7.0401e-24
5.38263e-24
4.11277e-24
3.1405e-24
2.39656e-24
1.8277e-24
1.39298e-24
1.06099e-24
8.07616e-25
6.14362e-25
4.67057e-25
3.54849e-25
2.69429e-25
2.04443e-25
1.55034e-25
1.17493e-25
8.89865e-26
6.73542e-26
5.09489e-26
3.85154e-26
2.9098e-26
2.19696e-26
1.65771e-26
1.25005e-26
9.42059e-27
7.0951e-27
5.34035e-27
4.0171e-27
3.01987e-27
2.26879e-27
1.70347e-27
1.27822e-27
9.5854e-28
7.1837e-28
5.38046e-28
4.0274e-28
3.01275e-28
2.25235e-28
1.68285e-28
1.25657e-28
9.37704e-29
6.99326e-29
5.2123e-29
3.88253e-29
2.89027e-29
2.1503e-29
1.59882e-29
1.18806e-29
8.82314e-30
6.54874e-30
4.85796e-30
3.60189e-30
2.66947e-30
1.97789e-30
1.46551e-30
1.08644e-30
8.06627e-31
6.00812e-31
4.50357e-31
3.41585e-31
2.64571e-31
2.12259e-31
1.79831e-31
1.6434e-31
1.02417
0.972747
0.922032
0.872404
0.824154
0.777485
0.732533
0.689382
0.648074
0.608625
0.571027
0.535259
0.501288
0.469073
0.438567
0.409716
0.382468
0.356762
0.332541
0.309745
0.288312
0.268183
0.249297
0.231594
0.215017
0.199507
0.185009
0.171469
0.158832
0.147049
0.136069
0.125846
0.116334
0.107489
0.0992696
0.0916369
0.0845529
0.0779819
0.0718902
0.0662458
0.0610185
0.05618
0.0517036
0.0475641
0.0437378
0.0402028
0.0369382
0.0339248
0.0311443
0.0285799
0.0262158
0.0240372
0.0220304
0.0201827
0.0184821
0.0169176
0.0154788
0.0141563
0.0129411
0.011825
0.0108004
0.00986018
0.00899773
0.00820697
0.00748228
0.00681843
0.00621057
0.00565424
0.00514531
0.00467994
0.00425461
0.00386606
0.00351127
0.00318746
0.00289208
0.00262275
0.0023773
0.00215373
0.00195019
0.00176497
0.00159651
0.00144337
0.00130424
0.00117789
0.00106322
0.000959194
0.00086488
0.000779416
0.000702014
0.000631951
0.000568566
0.000511254
0.000459462
0.000412686
0.000370462
0.00033237
0.000298024
0.000267075
0.000239202
0.000214113
0.000191545
0.000171256
0.000153026
0.000136656
0.000121965
0.000108789
9.69781e-05
8.6398e-05
7.69259e-05
6.8451e-05
6.08729e-05
5.41009e-05
4.8053e-05
4.26551e-05
3.78403e-05
3.35483e-05
2.97248e-05
2.63207e-05
2.3292e-05
2.05989e-05
1.82059e-05
1.60807e-05
1.41947e-05
1.2522e-05
1.10394e-05
9.72623e-06
8.5638e-06
7.53549e-06
6.62642e-06
5.82329e-06
5.11422e-06
4.48861e-06
3.93698e-06
3.45092e-06
3.02291e-06
2.64627e-06
2.31505e-06
2.02397e-06
1.76833e-06
1.54398e-06
1.3472e-06
1.17474e-06
1.02368e-06
8.91455e-07
7.75799e-07
6.74703e-07
5.86393e-07
5.09304e-07
4.42056e-07
3.83433e-07
3.32363e-07
2.87903e-07
2.49225e-07
2.15598e-07
1.86384e-07
1.61021e-07
1.39016e-07
1.19938e-07
1.03408e-07
8.9097e-08
7.67146e-08
6.60086e-08
5.67584e-08
4.87715e-08
4.18803e-08
3.59384e-08
3.08187e-08
2.64104e-08
2.26174e-08
1.93559e-08
1.65536e-08
1.41473e-08
1.20826e-08
1.03122e-08
8.79525e-09