/*--------------------------------*- C++ -*----------------------------------*\
  =========                 |
  \\      /  F ield         | OpenFOAM: The Open Source CFD Toolbox
   \\    /   O peration     | Website:  https://openfoam.org
    \\  /    A nd           | Version:  10
     \\/     M anipulation  |
\*---------------------------------------------------------------------------*/
FoamFile
{
    format      ascii;
    class       volScalarField;
    location    "0.28";
    object      N1;
}
// * * * * * * * * * * * * * * * * * * * * * * * * * * * * * * * * * * * * * //

dimensions      [0 0 0 0 0 0 0];

internalField   nonuniform List<scalar> 
8000
(
1.40377e-05
4.205e-05
6.98936e-05
9.74805e-05
0.000124733
0.000151584
0.00017797
0.000203837
0.000229136
0.000253824
0.000277863
0.000301221
0.000323868
0.000345782
0.000366944
0.000387337
0.000406951
0.000425776
0.000443808
0.000461043
0.000477483
0.000493129
0.000507986
0.000522061
0.00053536
0.000547894
0.000559674
0.00057071
0.000581016
0.000590605
0.000599491
0.000607689
0.000615213
0.000622081
0.000628306
0.000633905
0.000638894
0.000643289
0.000647107
0.000650363
0.000653074
0.000655255
0.000656923
0.000658093
0.000658781
0.000659003
0.000658773
0.000658108
0.000657021
0.000655528
0.000653643
0.000651381
0.000648756
0.000645781
0.000642471
0.000638839
0.000634898
0.000630662
0.000626143
0.000621354
0.000616307
0.000611016
0.000605491
0.000599745
0.00059379
0.000587636
0.000581295
0.000574779
0.000568097
0.000561261
0.000554281
0.000547166
0.000539928
0.000532576
0.000525119
0.000517567
0.000509929
0.000502213
0.000494429
0.000486585
0.000478689
0.000470749
0.000462774
0.00045477
0.000446746
0.000438707
0.000430662
0.000422617
0.000414579
0.000406553
0.000398546
0.000390564
0.000382612
0.000374697
0.000366822
0.000358993
0.000351216
0.000343494
0.000335831
0.000328233
0.000320702
0.000313244
0.00030586
0.000298555
0.000291332
0.000284194
0.000277143
0.000270182
0.000263314
0.000256541
0.000249864
0.000243286
0.000236809
0.000230433
0.00022416
0.000217993
0.00021193
0.000205975
0.000200126
0.000194386
0.000188754
0.00018323
0.000177816
0.000172511
0.000167315
0.000162229
0.000157251
0.000152381
0.00014762
0.000142967
0.00013842
0.00013398
0.000129645
0.000125415
0.000121288
0.000117265
0.000113343
0.000109522
0.0001058
0.000102176
9.86487e-05
9.52173e-05
9.188e-05
8.86354e-05
8.54822e-05
8.24188e-05
7.94436e-05
7.65553e-05
7.37522e-05
7.10328e-05
6.83954e-05
6.58385e-05
6.33605e-05
6.09597e-05
5.86344e-05
5.63832e-05
5.42043e-05
5.20961e-05
5.0057e-05
4.80853e-05
4.61795e-05
4.43379e-05
4.25589e-05
4.0841e-05
3.91825e-05
3.75819e-05
3.60378e-05
3.45484e-05
3.31124e-05
3.17283e-05
3.03945e-05
2.91097e-05
2.78724e-05
2.66812e-05
2.55347e-05
2.44316e-05
2.33706e-05
2.23502e-05
2.13694e-05
2.04267e-05
1.9521e-05
1.86511e-05
1.78158e-05
1.7014e-05
1.62444e-05
1.55061e-05
1.47979e-05
1.41189e-05
1.34679e-05
1.2844e-05
1.22463e-05
1.16737e-05
1.11255e-05
1.06006e-05
1.00982e-05
9.61751e-06
9.15768e-06
8.71793e-06
8.29748e-06
7.89559e-06
7.51154e-06
7.14463e-06
6.79419e-06
6.45956e-06
6.1401e-06
5.8352e-06
5.54428e-06
5.26676e-06
5.00208e-06
4.74972e-06
4.50915e-06
4.27989e-06
4.06145e-06
3.85337e-06
3.65521e-06
3.46654e-06
3.28695e-06
3.11603e-06
2.95341e-06
2.79872e-06
2.65161e-06
2.51174e-06
2.37877e-06
2.25241e-06
2.13234e-06
2.01829e-06
1.90996e-06
1.80711e-06
1.70946e-06
1.61678e-06
1.52884e-06
1.44541e-06
1.36628e-06
1.29123e-06
1.22008e-06
1.15264e-06
1.08873e-06
1.02817e-06
9.70796e-07
9.1646e-07
8.65009e-07
8.16299e-07
7.70193e-07
7.26561e-07
6.85278e-07
6.46226e-07
6.09291e-07
5.74366e-07
5.41348e-07
5.10139e-07
4.80645e-07
4.52778e-07
4.26453e-07
4.01589e-07
3.78109e-07
3.55942e-07
3.35017e-07
3.15269e-07
2.96635e-07
2.79055e-07
2.62473e-07
2.46835e-07
2.3209e-07
2.18189e-07
2.05087e-07
1.9274e-07
1.81107e-07
1.70148e-07
1.59826e-07
1.50105e-07
1.40953e-07
1.32338e-07
1.24229e-07
1.16599e-07
1.09419e-07
1.02665e-07
9.63128e-08
9.03392e-08
8.47226e-08
7.94427e-08
7.44802e-08
6.98166e-08
6.54348e-08
6.13185e-08
5.74521e-08
5.38212e-08
5.04119e-08
4.72113e-08
4.42071e-08
4.13877e-08
3.87421e-08
3.62601e-08
3.3932e-08
3.17484e-08
2.97009e-08
2.77812e-08
2.59816e-08
2.4295e-08
2.27144e-08
2.12334e-08
1.9846e-08
1.85465e-08
1.73295e-08
1.61899e-08
1.5123e-08
1.41243e-08
1.31896e-08
1.23149e-08
1.14965e-08
1.07309e-08
1.00149e-08
9.34519e-09
8.71901e-09
8.13358e-09
7.58635e-09
7.0749e-09
6.59696e-09
6.15041e-09
5.73324e-09
5.34359e-09
4.97969e-09
4.6399e-09
4.32266e-09
4.02653e-09
3.75014e-09
3.49221e-09
3.25155e-09
3.02704e-09
2.81762e-09
2.62231e-09
2.44018e-09
2.27038e-09
2.11208e-09
1.96454e-09
1.82705e-09
1.69893e-09
1.57957e-09
1.46838e-09
1.36482e-09
1.26839e-09
1.1786e-09
1.09501e-09
1.01721e-09
9.44795e-10
8.77414e-10
8.14724e-10
7.56407e-10
7.02166e-10
6.51723e-10
6.04821e-10
5.61217e-10
5.20686e-10
4.83017e-10
4.48013e-10
4.15492e-10
3.85282e-10
3.57224e-10
3.31168e-10
3.06977e-10
2.8452e-10
2.63677e-10
2.44335e-10
2.26391e-10
2.09746e-10
1.94311e-10
1.79999e-10
1.66733e-10
1.54439e-10
1.4305e-10
1.32501e-10
1.22735e-10
1.13695e-10
1.05333e-10
9.75991e-11
9.04509e-11
8.38476e-11
7.77514e-11
7.21275e-11
6.69434e-11
6.21694e-11
5.77778e-11
5.37432e-11
5.0042e-11
4.66528e-11
4.35555e-11
4.07322e-11
3.81661e-11
3.58421e-11
3.37464e-11
3.18667e-11
3.01918e-11
2.87117e-11
2.74176e-11
2.63017e-11
2.53574e-11
2.4579e-11
2.39618e-11
2.35021e-11
2.31972e-11
2.30452e-11
1.41813e-05
4.24934e-05
7.06601e-05
9.85965e-05
0.000126226
0.000153479
0.000180293
0.000206613
0.000232386
0.000257569
0.000282121
0.000306007
0.000329197
0.000351665
0.000373389
0.000394352
0.000414539
0.000433939
0.000452545
0.000470352
0.000487358
0.000503564
0.000518973
0.000533588
0.000547416
0.000560466
0.000572746
0.000584267
0.000595041
0.000605081
0.000614398
0.000623009
0.000630926
0.000638166
0.000644743
0.000650673
0.000655973
0.000660658
0.000664744
0.000668248
0.000671186
0.000673574
0.000675428
0.000676765
0.0006776
0.000677949
0.000677829
0.000677254
0.00067624
0.000674803
0.000672957
0.000670717
0.000668098
0.000665115
0.000661781
0.000658111
0.000654118
0.000649817
0.00064522
0.000640342
0.000635194
0.00062979
0.000624142
0.000618263
0.000612165
0.000605859
0.000599358
0.000592672
0.000585814
0.000578795
0.000571624
0.000564313
0.000556872
0.000549312
0.000541642
0.000533872
0.000526011
0.000518069
0.000510055
0.000501978
0.000493846
0.000485668
0.000477452
0.000469205
0.000460936
0.000452652
0.00044436
0.000436067
0.000427781
0.000419506
0.000411251
0.000403021
0.000394821
0.000386658
0.000378537
0.000370463
0.000362441
0.000354475
0.000346572
0.000338733
0.000330965
0.00032327
0.000315653
0.000308117
0.000300665
0.0002933
0.000286025
0.000278843
0.000271756
0.000264767
0.000257877
0.00025109
0.000244405
0.000237826
0.000231353
0.000224989
0.000218733
0.000212586
0.000206551
0.000200627
0.000194814
0.000189114
0.000183527
0.000178052
0.000172689
0.00016744
0.000162302
0.000157277
0.000152363
0.00014756
0.000142868
0.000138285
0.000133811
0.000129445
0.000125186
0.000121034
0.000116986
0.000113042
0.0001092
0.00010546
0.00010182
9.8278e-05
9.48335e-05
9.14847e-05
8.82302e-05
8.50683e-05
8.19976e-05
7.90165e-05
7.61233e-05
7.33165e-05
7.05944e-05
6.79553e-05
6.53976e-05
6.29196e-05
6.05197e-05
5.81961e-05
5.59471e-05
5.37712e-05
5.16665e-05
4.96314e-05
4.76643e-05
4.57635e-05
4.39274e-05
4.21542e-05
4.04424e-05
3.87904e-05
3.71966e-05
3.56594e-05
3.41772e-05
3.27486e-05
3.13719e-05
3.00458e-05
2.87687e-05
2.75392e-05
2.63558e-05
2.52173e-05
2.41221e-05
2.3069e-05
2.20566e-05
2.10836e-05
2.01488e-05
1.92509e-05
1.83887e-05
1.75611e-05
1.67668e-05
1.60048e-05
1.52738e-05
1.45729e-05
1.3901e-05
1.32571e-05
1.26401e-05
1.20492e-05
1.14832e-05
1.09415e-05
1.04229e-05
9.92679e-06
9.45218e-06
8.99828e-06
8.56431e-06
8.1495e-06
7.7531e-06
7.37439e-06
7.01268e-06
6.66728e-06
6.33755e-06
6.02285e-06
5.72258e-06
5.43613e-06
5.16294e-06
4.90246e-06
4.65416e-06
4.41753e-06
4.19206e-06
3.97729e-06
3.77276e-06
3.57802e-06
3.39265e-06
3.21624e-06
3.04839e-06
2.88873e-06
2.73688e-06
2.59251e-06
2.45527e-06
2.32484e-06
2.20092e-06
2.08319e-06
1.97138e-06
1.86522e-06
1.76443e-06
1.66878e-06
1.57801e-06
1.49189e-06
1.41021e-06
1.33276e-06
1.25932e-06
1.18971e-06
1.12374e-06
1.06123e-06
1.00202e-06
9.45932e-07
8.92826e-07
8.4255e-07
7.94961e-07
7.49926e-07
7.07315e-07
6.67007e-07
6.28885e-07
5.92837e-07
5.58757e-07
5.26544e-07
4.96102e-07
4.67338e-07
4.40166e-07
4.14503e-07
3.90269e-07
3.67389e-07
3.45791e-07
3.25407e-07
3.06174e-07
2.88029e-07
2.70913e-07
2.54772e-07
2.39553e-07
2.25206e-07
2.11682e-07
1.98938e-07
1.86931e-07
1.75619e-07
1.64965e-07
1.54933e-07
1.45486e-07
1.36594e-07
1.28224e-07
1.20348e-07
1.12938e-07
1.05967e-07
9.941e-08
9.32443e-08
8.74472e-08
8.19975e-08
7.68753e-08
7.20618e-08
6.75391e-08
6.32904e-08
5.92997e-08
5.5552e-08
5.20331e-08
4.87295e-08
4.56287e-08
4.27186e-08
3.9988e-08
3.74262e-08
3.50231e-08
3.27694e-08
3.0656e-08
2.86746e-08
2.68171e-08
2.50762e-08
2.34448e-08
2.19162e-08
2.04842e-08
1.91429e-08
1.78868e-08
1.67105e-08
1.56093e-08
1.45785e-08
1.36137e-08
1.27109e-08
1.18662e-08
1.1076e-08
1.03369e-08
9.64571e-09
8.99939e-09
8.39514e-09
7.83031e-09
7.30241e-09
6.8091e-09
6.34819e-09
5.91761e-09
5.51543e-09
5.13983e-09
4.78911e-09
4.46167e-09
4.15601e-09
3.87074e-09
3.60451e-09
3.35612e-09
3.12438e-09
2.90823e-09
2.70664e-09
2.51865e-09
2.34339e-09
2.18e-09
2.02772e-09
1.8858e-09
1.75356e-09
1.63036e-09
1.5156e-09
1.40871e-09
1.30918e-09
1.2165e-09
1.13022e-09
1.04992e-09
9.75177e-10
9.0563e-10
8.40924e-10
7.80731e-10
7.24745e-10
6.72681e-10
6.2427e-10
5.79264e-10
5.3743e-10
4.98549e-10
4.6242e-10
4.28853e-10
3.97672e-10
3.68711e-10
3.41818e-10
3.16848e-10
2.93669e-10
2.72156e-10
2.52192e-10
2.33671e-10
2.16491e-10
2.00559e-10
1.85787e-10
1.72095e-10
1.59406e-10
1.4765e-10
1.36762e-10
1.26681e-10
1.17352e-10
1.0872e-10
1.00738e-10
9.33596e-11
8.65439e-11
8.02517e-11
7.44469e-11
6.90961e-11
6.41686e-11
5.96358e-11
5.54714e-11
5.16512e-11
4.8153e-11
4.49561e-11
4.2042e-11
3.93934e-11
3.69946e-11
3.48316e-11
3.28915e-11
3.11627e-11
2.9635e-11
2.82992e-11
2.71475e-11
2.61728e-11
2.53694e-11
2.47324e-11
2.42579e-11
2.39431e-11
2.37862e-11
1.4322e-05
4.29217e-05
7.13907e-05
9.96481e-05
0.000127619
0.000155235
0.000182434
0.000209157
0.000235353
0.000260976
0.000285984
0.000310341
0.000334012
0.000356972
0.000379196
0.000400664
0.00042136
0.00044127
0.000460387
0.000478702
0.000496213
0.000512917
0.000528816
0.000543913
0.000558213
0.000571722
0.000584449
0.000596403
0.000607595
0.000618036
0.00062774
0.000636719
0.000644988
0.000652561
0.000659454
0.000665681
0.000671259
0.000676204
0.000680531
0.000684257
0.000687399
0.000689973
0.000691995
0.000693482
0.00069445
0.000694915
0.000694893
0.000694401
0.000693454
0.000692067
0.000690257
0.000688038
0.000685426
0.000682435
0.000679081
0.000675378
0.00067134
0.000666981
0.000662316
0.000657358
0.00065212
0.000646616
0.000640858
0.00063486
0.000628634
0.000622193
0.000615549
0.000608713
0.000601697
0.000594513
0.000587172
0.000579686
0.000572064
0.000564317
0.000556456
0.000548491
0.000540431
0.000532287
0.000524067
0.000515781
0.000507438
0.000499046
0.000490614
0.00048215
0.000473662
0.000465157
0.000456644
0.00044813
0.00043962
0.000431124
0.000422645
0.000414192
0.000405771
0.000397386
0.000389043
0.000380749
0.000372508
0.000364325
0.000356205
0.000348152
0.00034017
0.000332264
0.000324437
0.000316693
0.000309035
0.000301467
0.000293991
0.000286611
0.000279328
0.000272145
0.000265065
0.000258089
0.00025122
0.000244458
0.000237805
0.000231264
0.000224834
0.000218517
0.000212314
0.000206225
0.000200251
0.000194392
0.000188649
0.000183022
0.00017751
0.000172114
0.000166834
0.000161668
0.000156617
0.000151681
0.000146857
0.000142147
0.000137548
0.00013306
0.000128683
0.000124414
0.000120253
0.000116199
0.000112251
0.000108406
0.000104664
0.000101024
9.7483e-05
9.40407e-05
9.06953e-05
8.74451e-05
8.42887e-05
8.12243e-05
7.82503e-05
7.53651e-05
7.2567e-05
6.98542e-05
6.72251e-05
6.46779e-05
6.22109e-05
5.98223e-05
5.75106e-05
5.52738e-05
5.31103e-05
5.10184e-05
4.89964e-05
4.70425e-05
4.5155e-05
4.33323e-05
4.15727e-05
3.98745e-05
3.82361e-05
3.6656e-05
3.51324e-05
3.36638e-05
3.22487e-05
3.08855e-05
2.95727e-05
2.83088e-05
2.70924e-05
2.5922e-05
2.47963e-05
2.37137e-05
2.2673e-05
2.16729e-05
2.07119e-05
1.9789e-05
1.89027e-05
1.80519e-05
1.72354e-05
1.64521e-05
1.57007e-05
1.49802e-05
1.42895e-05
1.36276e-05
1.29934e-05
1.23859e-05
1.18042e-05
1.12473e-05
1.07143e-05
1.02042e-05
9.71637e-06
9.24979e-06
8.80369e-06
8.37728e-06
7.9698e-06
7.58051e-06
7.20869e-06
6.85364e-06
6.51469e-06
6.1912e-06
5.88253e-06
5.58807e-06
5.30725e-06
5.03949e-06
4.78425e-06
4.541e-06
4.30923e-06
4.08846e-06
3.87821e-06
3.67803e-06
3.48748e-06
3.30613e-06
3.13359e-06
2.96947e-06
2.81338e-06
2.66497e-06
2.5239e-06
2.38983e-06
2.26243e-06
2.14142e-06
2.02649e-06
1.91735e-06
1.81375e-06
1.71542e-06
1.62211e-06
1.53359e-06
1.44963e-06
1.37001e-06
1.29452e-06
1.22296e-06
1.15515e-06
1.09089e-06
1.03002e-06
9.72372e-07
9.17782e-07
8.661e-07
8.17181e-07
7.70887e-07
7.27086e-07
6.85651e-07
6.46463e-07
6.09408e-07
5.74375e-07
5.41262e-07
5.09969e-07
4.80401e-07
4.5247e-07
4.26089e-07
4.01177e-07
3.77658e-07
3.55456e-07
3.34503e-07
3.14732e-07
2.9608e-07
2.78486e-07
2.61894e-07
2.46249e-07
2.31501e-07
2.17599e-07
2.04499e-07
1.92156e-07
1.80528e-07
1.69577e-07
1.59263e-07
1.49553e-07
1.40412e-07
1.31808e-07
1.23712e-07
1.16095e-07
1.08929e-07
1.02189e-07
9.58507e-08
8.98915e-08
8.42895e-08
7.90241e-08
7.40761e-08
6.94269e-08
6.50595e-08
6.09572e-08
5.71048e-08
5.34875e-08
5.00916e-08
4.69041e-08
4.39127e-08
4.11057e-08
3.84723e-08
3.60021e-08
3.36854e-08
3.15129e-08
2.94761e-08
2.75667e-08
2.57772e-08
2.41001e-08
2.25288e-08
2.10568e-08
1.9678e-08
1.83867e-08
1.71776e-08
1.60456e-08
1.4986e-08
1.39943e-08
1.30662e-08
1.21979e-08
1.13856e-08
1.06259e-08
9.91533e-09
9.25094e-09
8.62981e-09
8.04919e-09
7.50653e-09
6.99944e-09
6.52564e-09
6.08302e-09
5.6696e-09
5.2835e-09
4.92298e-09
4.58639e-09
4.27219e-09
3.97893e-09
3.70527e-09
3.44993e-09
3.21172e-09
2.98952e-09
2.78229e-09
2.58906e-09
2.40889e-09
2.24094e-09
2.0844e-09
1.93851e-09
1.80258e-09
1.67593e-09
1.55796e-09
1.44809e-09
1.34577e-09
1.25051e-09
1.16182e-09
1.07927e-09
1.00244e-09
9.30945e-10
8.6443e-10
8.02555e-10
7.45004e-10
6.91484e-10
6.4172e-10
5.95456e-10
5.52452e-10
5.12485e-10
4.75346e-10
4.40841e-10
4.08788e-10
3.79018e-10
3.51373e-10
3.25705e-10
3.01878e-10
2.79763e-10
2.59242e-10
2.40203e-10
2.22543e-10
2.06165e-10
1.90981e-10
1.76905e-10
1.63861e-10
1.51777e-10
1.40585e-10
1.30223e-10
1.20632e-10
1.11759e-10
1.03554e-10
9.59693e-11
8.89631e-11
8.2495e-11
7.65279e-11
7.10276e-11
6.59623e-11
6.13028e-11
5.7022e-11
5.30951e-11
4.9499e-11
4.62128e-11
4.32172e-11
4.04945e-11
3.80288e-11
3.58053e-11
3.38109e-11
3.20338e-11
3.04634e-11
2.90903e-11
2.79064e-11
2.69045e-11
2.60786e-11
2.54238e-11
2.4936e-11
2.46124e-11
2.44511e-11
1.44537e-05
4.33204e-05
7.20658e-05
0.000100613
0.00012889
0.000156828
0.000184365
0.000211444
0.000238012
0.000264022
0.000289429
0.000314197
0.00033829
0.00036168
0.000384341
0.000406251
0.000427392
0.00044775
0.000467313
0.000486073
0.000504025
0.000521166
0.000537495
0.000553015
0.000567728
0.00058164
0.00059476
0.000607094
0.000618653
0.000629448
0.000639491
0.000648794
0.000657372
0.000665239
0.00067241
0.000678899
0.000684722
0.000689896
0.000694436
0.000698359
0.000701681
0.00070442
0.00070659
0.00070821
0.000709296
0.000709863
0.000709929
0.00070951
0.000708622
0.000707281
0.000705503
0.000703303
0.000700697
0.000697701
0.00069433
0.000690598
0.000686521
0.000682112
0.000677387
0.000672359
0.000667042
0.00066145
0.000655597
0.000649494
0.000643157
0.000636597
0.000629826
0.000622858
0.000615703
0.000608375
0.000600885
0.000593243
0.000585461
0.000577551
0.000569522
0.000561384
0.00055315
0.000544827
0.000536426
0.000527956
0.000519426
0.000510846
0.000502224
0.000493568
0.000484887
0.000476189
0.00046748
0.00045877
0.000450065
0.000441371
0.000432697
0.000424048
0.00041543
0.000406849
0.000398312
0.000389824
0.000381389
0.000373014
0.000364703
0.00035646
0.00034829
0.000340198
0.000332186
0.000324259
0.00031642
0.000308672
0.000301019
0.000293464
0.000286008
0.000278655
0.000271406
0.000264264
0.000257231
0.000250308
0.000243498
0.0002368
0.000230217
0.000223749
0.000217398
0.000211164
0.000205047
0.000199049
0.000193168
0.000187406
0.000181763
0.000176238
0.000170831
0.000165542
0.000160371
0.000155316
0.000150377
0.000145554
0.000140845
0.00013625
0.000131768
0.000127397
0.000123136
0.000118985
0.000114942
0.000111005
0.000107174
0.000103446
9.98204e-05
9.62956e-05
9.28701e-05
8.9542e-05
8.63099e-05
8.31721e-05
8.01269e-05
7.71725e-05
7.43072e-05
7.15294e-05
6.88373e-05
6.6229e-05
6.37029e-05
6.12571e-05
5.88899e-05
5.65995e-05
5.43841e-05
5.22421e-05
5.01715e-05
4.81707e-05
4.6238e-05
4.43716e-05
4.25698e-05
4.08309e-05
3.91532e-05
3.75352e-05
3.59751e-05
3.44713e-05
3.30222e-05
3.16263e-05
3.0282e-05
2.89879e-05
2.77423e-05
2.65438e-05
2.5391e-05
2.42825e-05
2.32169e-05
2.21927e-05
2.12087e-05
2.02636e-05
1.93561e-05
1.84849e-05
1.76489e-05
1.68467e-05
1.60773e-05
1.53396e-05
1.46323e-05
1.39545e-05
1.33051e-05
1.2683e-05
1.20873e-05
1.15171e-05
1.09713e-05
1.0449e-05
9.94943e-06
9.47166e-06
9.01486e-06
8.57822e-06
8.16097e-06
7.76234e-06
7.3816e-06
7.01803e-06
6.67096e-06
6.3397e-06
6.02363e-06
5.72211e-06
5.43455e-06
5.16037e-06
4.89901e-06
4.64992e-06
4.4126e-06
4.18653e-06
3.97124e-06
3.76625e-06
3.57113e-06
3.38544e-06
3.20876e-06
3.04069e-06
2.88086e-06
2.7289e-06
2.58444e-06
2.44715e-06
2.3167e-06
2.19278e-06
2.07509e-06
1.96334e-06
1.85726e-06
1.75657e-06
1.66102e-06
1.57038e-06
1.4844e-06
1.40287e-06
1.32557e-06
1.2523e-06
1.18285e-06
1.11706e-06
1.05473e-06
9.95696e-07
9.39796e-07
8.86874e-07
8.36782e-07
7.89378e-07
7.44526e-07
7.02097e-07
6.61969e-07
6.24025e-07
5.88152e-07
5.54245e-07
5.22201e-07
4.91924e-07
4.63323e-07
4.36309e-07
4.108e-07
3.86716e-07
3.63982e-07
3.42526e-07
3.22281e-07
3.03181e-07
2.85165e-07
2.68175e-07
2.52156e-07
2.37053e-07
2.22819e-07
2.09404e-07
1.96765e-07
1.84858e-07
1.73644e-07
1.63083e-07
1.5314e-07
1.4378e-07
1.3497e-07
1.26679e-07
1.18879e-07
1.11541e-07
1.0464e-07
9.81497e-08
9.20476e-08
8.63112e-08
8.09195e-08
7.58528e-08
7.10922e-08
6.66199e-08
6.24193e-08
5.84745e-08
5.47704e-08
5.12931e-08
4.80291e-08
4.4966e-08
4.20917e-08
3.93951e-08
3.68656e-08
3.44933e-08
3.22688e-08
3.01831e-08
2.82279e-08
2.63954e-08
2.46782e-08
2.30692e-08
2.15619e-08
2.015e-08
1.88277e-08
1.75896e-08
1.64305e-08
1.53454e-08
1.43299e-08
1.33796e-08
1.24905e-08
1.16587e-08
1.08807e-08
1.01532e-08
9.47283e-09
8.83679e-09
8.24225e-09
7.68658e-09
7.16732e-09
6.68215e-09
6.22892e-09
5.80558e-09
5.41022e-09
5.04105e-09
4.69639e-09
4.37465e-09
4.07437e-09
3.79414e-09
3.53267e-09
3.28875e-09
3.06122e-09
2.84903e-09
2.65115e-09
2.46667e-09
2.29469e-09
2.13439e-09
1.98501e-09
1.84581e-09
1.71613e-09
1.59533e-09
1.48282e-09
1.37805e-09
1.2805e-09
1.18968e-09
1.10515e-09
1.02648e-09
9.53273e-10
8.85163e-10
8.21804e-10
7.62873e-10
7.08069e-10
6.57112e-10
6.09738e-10
5.65703e-10
5.24777e-10
4.86747e-10
4.51415e-10
4.18593e-10
3.88108e-10
3.598e-10
3.33517e-10
3.09118e-10
2.86473e-10
2.6546e-10
2.45964e-10
2.27881e-10
2.1111e-10
1.95561e-10
1.81148e-10
1.67792e-10
1.55417e-10
1.43957e-10
1.33346e-10
1.23525e-10
1.14439e-10
1.06037e-10
9.8271e-11
9.10968e-11
8.44736e-11
7.83634e-11
7.27311e-11
6.75444e-11
6.27731e-11
5.83896e-11
5.43685e-11
5.06862e-11
4.73212e-11
4.42537e-11
4.14658e-11
3.89408e-11
3.6664e-11
3.46218e-11
3.28021e-11
3.1194e-11
2.9788e-11
2.85757e-11
2.75498e-11
2.67041e-11
2.60336e-11
2.55342e-11
2.52028e-11
2.50376e-11
1.4572e-05
4.36775e-05
7.26684e-05
0.000101471
0.000130014
0.000158232
0.000186063
0.000213449
0.000240337
0.000266678
0.000292428
0.000317548
0.000342004
0.000365762
0.000388798
0.000411087
0.00043261
0.00045335
0.000473297
0.000492438
0.000510769
0.000528284
0.000544982
0.000560864
0.000575933
0.000590192
0.000603648
0.000616309
0.000628183
0.000639283
0.000649618
0.000659201
0.000668045
0.000676165
0.000683575
0.00069029
0.000696325
0.000701696
0.00070642
0.000710513
0.000713992
0.000716872
0.000719171
0.000720906
0.000722094
0.00072275
0.000722892
0.000722537
0.000721701
0.000720399
0.000718649
0.000716467
0.000713867
0.000710867
0.000707481
0.000703726
0.000699615
0.000695163
0.000690387
0.000685299
0.000679915
0.000674247
0.000668311
0.000662119
0.000655686
0.000649023
0.000642144
0.000635062
0.000627788
0.000620335
0.000612716
0.000604941
0.000597022
0.00058897
0.000580796
0.000572511
0.000564125
0.000555648
0.000547091
0.000538462
0.000529772
0.000521029
0.000512243
0.000503422
0.000494575
0.000485709
0.000476832
0.000467953
0.000459079
0.000450216
0.000441372
0.000432553
0.000423766
0.000415017
0.000406312
0.000397656
0.000389055
0.000380514
0.000372038
0.000363632
0.000355299
0.000347046
0.000338874
0.000330789
0.000322794
0.000314891
0.000307085
0.000299379
0.000291774
0.000284273
0.000276879
0.000269594
0.00026242
0.000255358
0.000248411
0.000241579
0.000234863
0.000228266
0.000221787
0.000215427
0.000209187
0.000203068
0.000197069
0.000191191
0.000185434
0.000179798
0.000174282
0.000168886
0.00016361
0.000158454
0.000153415
0.000148495
0.000143691
0.000139003
0.00013443
0.000129971
0.000125625
0.00012139
0.000117265
0.000113249
0.00010934
0.000105537
0.000101838
9.82421e-05
9.47473e-05
9.1352e-05
8.80546e-05
8.48534e-05
8.17466e-05
7.87325e-05
7.58094e-05
7.29755e-05
7.02289e-05
6.75679e-05
6.49907e-05
6.24955e-05
6.00804e-05
5.77438e-05
5.54836e-05
5.32983e-05
5.11859e-05
4.91446e-05
4.71728e-05
4.52687e-05
4.34305e-05
4.16564e-05
3.99449e-05
3.82941e-05
3.67024e-05
3.51682e-05
3.36899e-05
3.22658e-05
3.08943e-05
2.9574e-05
2.83032e-05
2.70805e-05
2.59044e-05
2.47735e-05
2.36863e-05
2.26414e-05
2.16376e-05
2.06734e-05
1.97475e-05
1.88587e-05
1.80057e-05
1.71873e-05
1.64024e-05
1.56497e-05
1.49282e-05
1.42366e-05
1.35741e-05
1.29395e-05
1.23317e-05
1.17499e-05
1.11931e-05
1.06603e-05
1.01506e-05
9.66317e-06
9.19713e-06
8.75167e-06
8.32598e-06
7.91929e-06
7.53085e-06
7.15993e-06
6.80584e-06
6.46789e-06
6.14542e-06
5.83781e-06
5.54443e-06
5.26471e-06
4.99806e-06
4.74394e-06
4.50182e-06
4.27118e-06
4.05153e-06
3.8424e-06
3.64334e-06
3.45389e-06
3.27364e-06
3.10218e-06
2.93911e-06
2.78407e-06
2.63669e-06
2.49663e-06
2.36354e-06
2.23712e-06
2.11705e-06
2.00304e-06
1.89481e-06
1.79208e-06
1.69461e-06
1.60213e-06
1.51442e-06
1.43123e-06
1.35237e-06
1.27762e-06
1.20677e-06
1.13964e-06
1.07605e-06
1.01583e-06
9.58798e-07
9.04806e-07
8.53701e-07
8.05338e-07
7.59579e-07
7.16293e-07
6.75354e-07
6.36642e-07
6.00044e-07
5.65451e-07
5.32759e-07
5.0187e-07
4.72691e-07
4.45131e-07
4.19106e-07
3.94535e-07
3.71341e-07
3.49452e-07
3.28797e-07
3.09311e-07
2.90931e-07
2.73598e-07
2.57254e-07
2.41846e-07
2.27324e-07
2.13638e-07
2.00743e-07
1.88596e-07
1.77155e-07
1.66381e-07
1.56236e-07
1.46687e-07
1.37699e-07
1.29241e-07
1.21283e-07
1.13797e-07
1.06755e-07
1.00134e-07
9.39086e-08
8.80563e-08
8.25556e-08
7.73864e-08
7.25296e-08
6.79669e-08
6.36813e-08
5.96567e-08
5.58778e-08
5.23302e-08
4.90002e-08
4.58751e-08
4.29427e-08
4.01916e-08
3.7611e-08
3.51907e-08
3.29212e-08
3.07933e-08
2.87987e-08
2.69291e-08
2.51771e-08
2.35356e-08
2.19978e-08
2.05574e-08
1.92084e-08
1.79453e-08
1.67627e-08
1.56557e-08
1.46197e-08
1.36501e-08
1.2743e-08
1.18944e-08
1.11007e-08
1.03584e-08
9.66435e-09
9.01546e-09
8.40889e-09
7.84199e-09
7.31223e-09
6.81726e-09
6.35486e-09
5.92296e-09
5.51961e-09
5.14297e-09
4.79134e-09
4.4631e-09
4.15674e-09
3.87085e-09
3.6041e-09
3.35524e-09
3.12311e-09
2.90663e-09
2.70475e-09
2.51654e-09
2.34108e-09
2.17755e-09
2.02514e-09
1.88313e-09
1.75083e-09
1.62759e-09
1.5128e-09
1.40591e-09
1.30639e-09
1.21374e-09
1.12749e-09
1.04723e-09
9.72546e-10
9.03059e-10
8.38419e-10
7.78296e-10
7.22385e-10
6.70397e-10
6.22066e-10
5.7714e-10
5.35387e-10
4.96588e-10
4.60541e-10
4.27056e-10
3.95955e-10
3.67074e-10
3.4026e-10
3.15368e-10
2.92265e-10
2.70827e-10
2.50937e-10
2.32488e-10
2.15378e-10
1.99515e-10
1.84811e-10
1.71184e-10
1.5856e-10
1.46867e-10
1.36042e-10
1.26023e-10
1.16753e-10
1.08181e-10
1.00258e-10
9.29386e-11
8.61814e-11
7.99477e-11
7.42015e-11
6.89099e-11
6.40422e-11
5.95701e-11
5.54677e-11
5.17109e-11
4.82779e-11
4.51484e-11
4.23041e-11
3.97281e-11
3.74052e-11
3.53218e-11
3.34652e-11
3.18247e-11
3.03902e-11
2.91534e-11
2.81067e-11
2.7244e-11
2.656e-11
2.60505e-11
2.57123e-11
2.55438e-11
1.4674e-05
4.39851e-05
7.31862e-05
0.000102206
0.000130975
0.00015943
0.000187507
0.00021515
0.000242305
0.000268923
0.000294959
0.000320374
0.000345131
0.000369197
0.000392544
0.000415149
0.00043699
0.00045805
0.000478315
0.000497775
0.000516421
0.000534249
0.000551255
0.000567439
0.000582804
0.000597352
0.00061109
0.000624024
0.000636162
0.000647516
0.000658095
0.000667912
0.000676979
0.000685311
0.000692921
0.000699825
0.000706038
0.000711575
0.000716453
0.000720689
0.000724298
0.000727298
0.000729705
0.000731537
0.00073281
0.000733541
0.000733748
0.000733446
0.000732653
0.000731386
0.00072966
0.000727492
0.000724898
0.000721895
0.000718497
0.000714722
0.000710583
0.000706096
0.000701277
0.00069614
0.000690699
0.000684969
0.000678963
0.000672697
0.000666183
0.000659434
0.000652465
0.000645287
0.000637914
0.000630357
0.00062263
0.000614743
0.000606709
0.000598539
0.000590244
0.000581835
0.000573322
0.000564717
0.000556029
0.000547267
0.000538443
0.000529564
0.000520641
0.000511681
0.000502694
0.000493688
0.00048467
0.00047565
0.000466634
0.000457629
0.000448643
0.000439682
0.000430754
0.000421863
0.000413017
0.000404221
0.00039548
0.0003868
0.000378186
0.000369642
0.000361174
0.000352786
0.00034448
0.000336263
0.000328136
0.000320104
0.00031217
0.000304337
0.000296607
0.000288983
0.000281467
0.000274062
0.00026677
0.000259592
0.000252529
0.000245584
0.000238758
0.000232051
0.000225465
0.000219
0.000212658
0.000206437
0.000200339
0.000194364
0.000188511
0.000182782
0.000177175
0.00017169
0.000166326
0.000161084
0.000155962
0.00015096
0.000146077
0.000141311
0.000136662
0.000132129
0.000127711
0.000123406
0.000119212
0.000115129
0.000111156
0.000107289
0.000103529
9.98737e-05
9.63209e-05
9.28693e-05
8.95171e-05
8.62627e-05
8.31044e-05
8.00403e-05
7.70686e-05
7.41876e-05
7.13954e-05
6.86903e-05
6.60703e-05
6.35336e-05
6.10785e-05
5.8703e-05
5.64053e-05
5.41836e-05
5.20362e-05
4.9961e-05
4.79565e-05
4.60207e-05
4.4152e-05
4.23484e-05
4.06085e-05
3.89303e-05
3.73122e-05
3.57525e-05
3.42496e-05
3.28018e-05
3.14076e-05
3.00653e-05
2.87734e-05
2.75304e-05
2.63348e-05
2.51851e-05
2.40798e-05
2.30176e-05
2.1997e-05
2.10168e-05
2.00756e-05
1.9172e-05
1.83048e-05
1.74729e-05
1.66749e-05
1.59097e-05
1.51762e-05
1.44732e-05
1.37996e-05
1.31544e-05
1.25366e-05
1.19451e-05
1.13791e-05
1.08374e-05
1.03192e-05
9.82371e-06
9.34993e-06
8.89707e-06
8.4643e-06
8.05086e-06
7.65597e-06
7.27889e-06
6.91891e-06
6.57534e-06
6.24752e-06
5.93479e-06
5.63655e-06
5.35217e-06
5.0811e-06
4.82275e-06
4.57661e-06
4.34214e-06
4.11884e-06
3.90624e-06
3.70386e-06
3.51127e-06
3.32802e-06
3.15371e-06
2.98794e-06
2.83033e-06
2.6805e-06
2.53811e-06
2.40281e-06
2.27429e-06
2.15222e-06
2.03632e-06
1.92629e-06
1.82186e-06
1.72276e-06
1.62875e-06
1.53957e-06
1.45501e-06
1.37484e-06
1.29884e-06
1.22682e-06
1.15858e-06
1.09393e-06
1.0327e-06
9.74727e-07
9.19838e-07
8.67884e-07
8.18717e-07
7.72198e-07
7.28193e-07
6.86574e-07
6.47219e-07
6.10013e-07
5.74845e-07
5.4161e-07
5.10208e-07
4.80543e-07
4.52526e-07
4.26068e-07
4.01089e-07
3.77511e-07
3.55257e-07
3.3426e-07
3.1445e-07
2.95764e-07
2.78143e-07
2.61528e-07
2.45864e-07
2.311e-07
2.17187e-07
2.04078e-07
1.91729e-07
1.80098e-07
1.69145e-07
1.58832e-07
1.49124e-07
1.39986e-07
1.31388e-07
1.23298e-07
1.15687e-07
1.08529e-07
1.01798e-07
9.54687e-08
8.95191e-08
8.39271e-08
7.86721e-08
7.37345e-08
6.9096e-08
6.47393e-08
6.06478e-08
5.68061e-08
5.31995e-08
4.98142e-08
4.66372e-08
4.36561e-08
4.08593e-08
3.82358e-08
3.57753e-08
3.34681e-08
3.13049e-08
2.92771e-08
2.73765e-08
2.55954e-08
2.39266e-08
2.23632e-08
2.08989e-08
1.95275e-08
1.82434e-08
1.70412e-08
1.59158e-08
1.48625e-08
1.38769e-08
1.29547e-08
1.2092e-08
1.12851e-08
1.05305e-08
9.8249e-09
9.16523e-09
8.54859e-09
7.97226e-09
7.4337e-09
6.93051e-09
6.46043e-09
6.02136e-09
5.6113e-09
5.22841e-09
4.87094e-09
4.53724e-09
4.2258e-09
3.93515e-09
3.66397e-09
3.41098e-09
3.175e-09
2.95491e-09
2.74969e-09
2.55835e-09
2.37997e-09
2.21372e-09
2.05878e-09
1.91441e-09
1.77991e-09
1.65462e-09
1.53793e-09
1.42927e-09
1.32809e-09
1.2339e-09
1.14623e-09
1.06463e-09
9.88703e-10
9.18061e-10
8.52347e-10
7.91226e-10
7.34385e-10
6.81534e-10
6.324e-10
5.86728e-10
5.44281e-10
5.04838e-10
4.68192e-10
4.3415e-10
4.02533e-10
3.73172e-10
3.45912e-10
3.20607e-10
2.9712e-10
2.75326e-10
2.55106e-10
2.3635e-10
2.18956e-10
2.02829e-10
1.87881e-10
1.74028e-10
1.61194e-10
1.49307e-10
1.38302e-10
1.28116e-10
1.18693e-10
1.09978e-10
1.01923e-10
9.44825e-11
8.76131e-11
8.12758e-11
7.54342e-11
7.00547e-11
6.51061e-11
6.05597e-11
5.63891e-11
5.25699e-11
4.90799e-11
4.58984e-11
4.30068e-11
4.03881e-11
3.80266e-11
3.59085e-11
3.40212e-11
3.23533e-11
3.08951e-11
2.96377e-11
2.85737e-11
2.76966e-11
2.70012e-11
2.64833e-11
2.61395e-11
2.59682e-11
1.47577e-05
4.42372e-05
7.36101e-05
0.000102807
0.00013176
0.000160404
0.00018868
0.00021653
0.000243899
0.00027074
0.000297005
0.000322656
0.000347653
0.000371965
0.000395562
0.000418419
0.000440515
0.00046183
0.000482351
0.000502065
0.000520964
0.000539042
0.000556295
0.000572721
0.000588323
0.000603103
0.000617066
0.000630219
0.00064257
0.000654127
0.000664902
0.000674907
0.000684153
0.000692655
0.000700426
0.000707482
0.000713837
0.000719507
0.000724509
0.00072886
0.000732574
0.00073567
0.000738164
0.000740074
0.000741416
0.000742208
0.000742466
0.000742208
0.000741451
0.00074021
0.000738504
0.000736348
0.000733759
0.000730754
0.000727347
0.000723556
0.000719395
0.00071488
0.000710026
0.000704849
0.000699363
0.000693583
0.000687522
0.000681196
0.000674618
0.000667801