/*--------------------------------*- C++ -*----------------------------------*\
  =========                 |
  \\      /  F ield         | OpenFOAM: The Open Source CFD Toolbox
   \\    /   O peration     | Website:  https://openfoam.org
    \\  /    A nd           | Version:  10
     \\/     M anipulation  |
\*---------------------------------------------------------------------------*/
FoamFile
{
    format      ascii;
    class       volScalarField;
    location    "0.66";
    object      Exp1;
}
// * * * * * * * * * * * * * * * * * * * * * * * * * * * * * * * * * * * * * //

dimensions      [0 0 0 0 0 0 0];

internalField   uniform 0;

boundaryField
{
    frontAndBack
    {
        type            empty;
    }
    inlet
    {
        type            calculated;
        value           uniform 0;
    }
    outlet
    {
        type            calculated;
        value           uniform 0;
    }
    substrate
    {
        type            calculated;
        value           nonuniform List<scalar> 
400
(
3.43616e-12
1.02903e-11
1.71022e-11
2.38532e-11
3.05272e-11
3.711e-11
4.35892e-11
4.99541e-11
5.61951e-11
6.23039e-11
6.82738e-11
7.40988e-11
7.97741e-11
8.5296e-11
9.06616e-11
9.58689e-11
1.00917e-10
1.05804e-10
1.10531e-10
1.15099e-10
1.19509e-10
1.23762e-10
1.2786e-10
1.31806e-10
1.35602e-10
1.39251e-10
1.42755e-10
1.46119e-10
1.49345e-10
1.52437e-10
1.55398e-10
1.58232e-10
1.60942e-10
1.63531e-10
1.66004e-10
1.68363e-10
1.70612e-10
1.72755e-10
1.74794e-10
1.76732e-10
1.78574e-10
1.80321e-10
1.81978e-10
1.83545e-10
1.85028e-10
1.86427e-10
1.87747e-10
1.88988e-10
1.90155e-10
1.91248e-10
1.92271e-10
1.93225e-10
1.94113e-10
1.94936e-10
1.95696e-10
1.96396e-10
1.97037e-10
1.97621e-10
1.9815e-10
1.98624e-10
1.99046e-10
1.99417e-10
1.99738e-10
2.00011e-10
2.00237e-10
2.00418e-10
2.00553e-10
2.00646e-10
2.00696e-10
2.00706e-10
2.00675e-10
2.00605e-10
2.00496e-10
2.00351e-10
2.00169e-10
1.99952e-10
1.997e-10
1.99415e-10
1.99096e-10
1.98745e-10
1.98363e-10
1.9795e-10
1.97507e-10
1.97035e-10
1.96534e-10
1.96004e-10
1.95448e-10
1.94865e-10
1.94256e-10
1.93621e-10
1.92961e-10
1.92277e-10
1.91569e-10
1.90838e-10
1.90085e-10
1.89309e-10
1.88511e-10
1.87693e-10
1.86854e-10
1.85995e-10
1.85116e-10
1.84218e-10
1.83302e-10
1.82368e-10
1.81416e-10
1.80447e-10
1.79461e-10
1.78459e-10
1.77441e-10
1.76408e-10
1.75361e-10
1.74298e-10
1.73222e-10
1.72133e-10
1.7103e-10
1.69915e-10
1.68787e-10
1.67648e-10
1.66497e-10
1.65335e-10
1.64163e-10
1.62981e-10
1.61789e-10
1.60587e-10
1.59377e-10
1.58158e-10
1.56931e-10
1.55697e-10
1.54454e-10
1.53205e-10
1.5195e-10
1.50688e-10
1.4942e-10
1.48147e-10
1.46868e-10
1.45585e-10
1.44298e-10
1.43006e-10
1.41711e-10
1.40412e-10
1.3911e-10
1.37806e-10
1.36499e-10
1.3519e-10
1.3388e-10
1.32568e-10
1.31255e-10
1.29941e-10
1.28627e-10
1.27313e-10
1.25999e-10
1.24685e-10
1.23373e-10
1.22061e-10
1.2075e-10
1.19441e-10
1.18135e-10
1.1683e-10
1.15527e-10
1.14227e-10
1.12931e-10
1.11637e-10
1.10347e-10
1.0906e-10
1.07777e-10
1.06499e-10
1.05225e-10
1.03955e-10
1.0269e-10
1.0143e-10
1.00176e-10
9.89266e-11
9.7683e-11
9.64453e-11
9.52135e-11
9.39879e-11
9.27687e-11
9.1556e-11
9.035e-11
8.91509e-11
8.79588e-11
8.67738e-11
8.55962e-11
8.44261e-11
8.32636e-11
8.21089e-11
8.0962e-11
7.98232e-11
7.86924e-11
7.757e-11
7.64559e-11
7.53502e-11
7.42532e-11
7.31648e-11
7.20851e-11
7.10144e-11
6.99526e-11
6.88998e-11
6.78561e-11
6.68216e-11
6.57964e-11
6.47804e-11
6.37739e-11
6.27767e-11
6.17891e-11
6.0811e-11
5.98425e-11
5.88836e-11
5.79343e-11
5.69948e-11
5.6065e-11
5.51449e-11
5.42346e-11
5.33341e-11
5.24434e-11
5.15626e-11
5.06915e-11
4.98303e-11
4.8979e-11
4.81375e-11
4.73059e-11
4.64841e-11
4.56721e-11
4.48699e-11
4.40775e-11
4.3295e-11
4.25221e-11
4.17591e-11
4.10057e-11
4.0262e-11
3.9528e-11
3.88036e-11
3.80889e-11
3.73836e-11
3.66879e-11
3.60016e-11
3.53248e-11
3.46574e-11
3.39993e-11
3.33505e-11
3.27109e-11
3.20805e-11
3.14592e-11
3.0847e-11
3.02438e-11
2.96496e-11
2.90643e-11
2.84878e-11
2.792e-11
2.7361e-11
2.68106e-11
2.62687e-11
2.57354e-11
2.52104e-11
2.46939e-11
2.41856e-11
2.36855e-11
2.31936e-11
2.27097e-11
2.22338e-11
2.17658e-11
2.13057e-11
2.08533e-11
2.04086e-11
1.99714e-11
1.95418e-11
1.91197e-11
1.87049e-11
1.82973e-11
1.7897e-11
1.75038e-11
1.71176e-11
1.67384e-11
1.6366e-11
1.60004e-11
1.56415e-11
1.52893e-11
1.49436e-11
1.46043e-11
1.42714e-11
1.39448e-11
1.36245e-11
1.33102e-11
1.3002e-11
1.26998e-11
1.24034e-11
1.21129e-11
1.18281e-11
1.15489e-11
1.12752e-11
1.10071e-11
1.07443e-11
1.04869e-11
1.02347e-11
9.9877e-12
9.74577e-12
9.50884e-12
9.27685e-12
9.04971e-12
8.82735e-12
8.60969e-12
8.39666e-12
8.18819e-12
7.9842e-12
7.78461e-12
7.58936e-12
7.39838e-12
7.21159e-12
7.02892e-12
6.85031e-12
6.67568e-12
6.50496e-12
6.3381e-12
6.17502e-12
6.01565e-12
5.85993e-12
5.7078e-12
5.55919e-12
5.41404e-12
5.27228e-12
5.13387e-12
4.99872e-12
4.86679e-12
4.73802e-12
4.61234e-12
4.48971e-12
4.37005e-12
4.25332e-12
4.13947e-12
4.02843e-12
3.92016e-12
3.8146e-12
3.7117e-12
3.61141e-12
3.51368e-12
3.41845e-12
3.32569e-12
3.23534e-12
3.14736e-12
3.0617e-12
2.97831e-12
2.89715e-12
2.81818e-12
2.74136e-12
2.66664e-12
2.59398e-12
2.52334e-12
2.45468e-12
2.38797e-12
2.32316e-12
2.26021e-12
2.1991e-12
2.13979e-12
2.08224e-12
2.02641e-12
1.97228e-12
1.91981e-12
1.86897e-12
1.81973e-12
1.77206e-12
1.72593e-12
1.68132e-12
1.63818e-12
1.59651e-12
1.55627e-12
1.51743e-12
1.47997e-12
1.44387e-12
1.4091e-12
1.37565e-12
1.34348e-12
1.31259e-12
1.28294e-12
1.25452e-12
1.22732e-12
1.2013e-12
1.17646e-12
1.15278e-12
1.13024e-12
1.10883e-12
1.08853e-12
1.06933e-12
1.05122e-12
1.03418e-12
1.01821e-12
1.00328e-12
9.89395e-13
9.76542e-13
9.64711e-13
9.53894e-13
9.44085e-13
9.35275e-13
9.2746e-13
9.20633e-13
9.14791e-13
9.09928e-13
9.06042e-13
9.0313e-13
9.0119e-13
9.0022e-13
)
;
    }
    Wall
    {
        type            calculated;
        value           nonuniform List<scalar> 
400
(
3.43616e-12
1.02903e-11
1.71022e-11
2.38532e-11
3.05272e-11
3.711e-11
4.35892e-11
4.9954e-11
5.61949e-11
6.23038e-11
6.82736e-11
7.40985e-11
7.97738e-11
8.52956e-11
9.06612e-11
9.58684e-11
1.00916e-10
1.05803e-10
1.10531e-10
1.15099e-10
1.19508e-10
1.23761e-10
1.27859e-10
1.31805e-10
1.35601e-10
1.39249e-10
1.42754e-10
1.46118e-10
1.49344e-10
1.52436e-10
1.55397e-10
1.58231e-10
1.6094e-10
1.6353e-10
1.66002e-10
1.68362e-10
1.70611e-10
1.72753e-10
1.74792e-10
1.76731e-10
1.78572e-10
1.80319e-10
1.81975e-10
1.83543e-10
1.85026e-10
1.86425e-10
1.87745e-10
1.88986e-10
1.90153e-10
1.91246e-10
1.92268e-10
1.93223e-10
1.9411e-10
1.94933e-10
1.95694e-10
1.96394e-10
1.97035e-10
1.97619e-10
1.98147e-10
1.98621e-10
1.99043e-10
1.99414e-10
1.99735e-10
2.00008e-10
2.00234e-10
2.00415e-10
2.00551e-10
2.00643e-10
2.00694e-10
2.00703e-10
2.00672e-10
2.00602e-10
2.00494e-10
2.00348e-10
2.00166e-10
1.99949e-10
1.99697e-10
1.99412e-10
1.99093e-10
1.98742e-10
1.9836e-10
1.97947e-10
1.97504e-10
1.97032e-10
1.96531e-10
1.96002e-10
1.95445e-10
1.94862e-10
1.94253e-10
1.93618e-10
1.92958e-10
1.92274e-10
1.91567e-10
1.90836e-10
1.90082e-10
1.89306e-10
1.88509e-10
1.8769e-10
1.86851e-10
1.85992e-10
1.85113e-10
1.84216e-10
1.83299e-10
1.82365e-10
1.81413e-10
1.80444e-10
1.79458e-10
1.78456e-10
1.77439e-10
1.76406e-10
1.75358e-10
1.74296e-10
1.7322e-10
1.7213e-10
1.71027e-10
1.69912e-10
1.68785e-10
1.67645e-10
1.66495e-10
1.65333e-10
1.64161e-10
1.62978e-10
1.61786e-10
1.60585e-10
1.59375e-10
1.58156e-10
1.56929e-10
1.55694e-10
1.54452e-10
1.53203e-10
1.51947e-10
1.50685e-10
1.49418e-10
1.48144e-10
1.46866e-10
1.45583e-10
1.44295e-10
1.43004e-10
1.41708e-10
1.4041e-10
1.39108e-10
1.37804e-10
1.36497e-10
1.35188e-10
1.33878e-10
1.32566e-10
1.31253e-10
1.29939e-10
1.28625e-10
1.27311e-10
1.25997e-10
1.24683e-10
1.23371e-10
1.22059e-10
1.20748e-10
1.1944e-10
1.18133e-10
1.16828e-10
1.15525e-10
1.14226e-10
1.12929e-10
1.11635e-10
1.10345e-10
1.09058e-10
1.07776e-10
1.06497e-10
1.05223e-10
1.03953e-10
1.02689e-10
1.01429e-10
1.00174e-10
9.8925e-11
9.76815e-11
9.64437e-11
9.5212e-11
9.39864e-11
9.27672e-11
9.15545e-11
9.03485e-11
8.91494e-11
8.79573e-11
8.67724e-11
8.55949e-11
8.44248e-11
8.32623e-11
8.21076e-11
8.09607e-11
7.98219e-11
7.86912e-11
7.75687e-11
7.64546e-11
7.5349e-11
7.4252e-11
7.31636e-11
7.2084e-11
7.10132e-11
6.99514e-11
6.88987e-11
6.7855e-11
6.68205e-11
6.57953e-11
6.47794e-11
6.37728e-11
6.27757e-11
6.17881e-11
6.081e-11
5.98415e-11
5.88826e-11
5.79334e-11
5.69938e-11
5.6064e-11
5.5144e-11
5.42337e-11
5.33332e-11
5.24426e-11
5.15617e-11
5.06907e-11
4.98295e-11
4.89782e-11
4.81367e-11
4.73051e-11
4.64833e-11
4.56713e-11
4.48692e-11
4.40768e-11
4.32943e-11
4.25215e-11
4.17584e-11
4.1005e-11
4.02614e-11
3.95274e-11
3.8803e-11
3.80882e-11
3.7383e-11
3.66873e-11
3.60011e-11
3.53242e-11
3.46568e-11
3.39987e-11
3.33499e-11
3.27104e-11
3.208e-11
3.14587e-11
3.08465e-11
3.02434e-11
2.96491e-11
2.90638e-11
2.84873e-11
2.79196e-11
2.73605e-11
2.68101e-11
2.62683e-11
2.57349e-11
2.521e-11
2.46935e-11
2.41852e-11
2.36851e-11
2.31932e-11
2.27093e-11
2.22334e-11
2.17655e-11
2.13053e-11
2.08529e-11
2.04082e-11
1.99711e-11
1.95415e-11
1.91194e-11
1.87046e-11
1.8297e-11
1.78967e-11
1.75035e-11
1.71173e-11
1.67381e-11
1.63657e-11
1.60001e-11
1.56413e-11
1.5289e-11
1.49433e-11
1.46041e-11
1.42712e-11
1.39446e-11
1.36242e-11
1.331e-11
1.30018e-11
1.26996e-11
1.24032e-11
1.21127e-11
1.18279e-11
1.15487e-11
1.12751e-11
1.10069e-11
1.07442e-11
1.04867e-11
1.02346e-11
9.98754e-12
9.74561e-12
9.50869e-12
9.2767e-12
9.04956e-12
8.82721e-12
8.60955e-12
8.39653e-12
8.18806e-12
7.98407e-12
7.78449e-12
7.58924e-12
7.39826e-12
7.21148e-12
7.02881e-12
6.8502e-12
6.67557e-12
6.50486e-12
6.338e-12
6.17492e-12
6.01555e-12
5.85984e-12
5.70771e-12
5.5591e-12
5.41395e-12
5.2722e-12
5.13379e-12
4.99864e-12
4.86672e-12
4.73795e-12
4.61227e-12
4.48964e-12
4.36998e-12
4.25326e-12
4.13941e-12
4.02837e-12
3.9201e-12
3.81454e-12
3.71164e-12
3.61135e-12
3.51362e-12
3.4184e-12
3.32564e-12
3.23529e-12
3.14731e-12
3.06165e-12
2.97826e-12
2.89711e-12
2.81814e-12
2.74132e-12
2.6666e-12
2.59394e-12
2.5233e-12
2.45464e-12
2.38793e-12
2.32312e-12
2.26018e-12
2.19907e-12
2.13976e-12
2.08221e-12
2.02638e-12
1.97225e-12
1.91978e-12
1.86894e-12
1.81971e-12
1.77204e-12
1.72591e-12
1.68129e-12
1.63816e-12
1.59649e-12
1.55624e-12
1.51741e-12
1.47995e-12
1.44385e-12
1.40908e-12
1.37563e-12
1.34347e-12
1.31257e-12
1.28293e-12
1.25451e-12
1.2273e-12
1.20129e-12
1.17645e-12
1.15277e-12
1.13023e-12
1.10882e-12
1.08852e-12
1.06932e-12
1.05121e-12
1.03417e-12
1.01819e-12
1.00327e-12
9.89383e-13
9.7653e-13
9.64699e-13
9.53882e-13
9.44073e-13
9.35263e-13
9.27448e-13
9.20621e-13
9.14779e-13
9.09916e-13
9.0603e-13
9.03119e-13
9.01179e-13
9.00208e-13
)
;
    }
}


// ************************************************************************* //
