/*--------------------------------*- C++ -*----------------------------------*\
  =========                 |
  \\      /  F ield         | OpenFOAM: The Open Source CFD Toolbox
   \\    /   O peration     | Website:  https://openfoam.org
    \\  /    A nd           | Version:  10
     \\/     M anipulation  |
\*---------------------------------------------------------------------------*/
FoamFile
{
    format      ascii;
    class       volScalarField;
    location    "0.66";
    object      N1;
}
// * * * * * * * * * * * * * * * * * * * * * * * * * * * * * * * * * * * * * //

dimensions      [0 0 0 0 0 0 0];

internalField   nonuniform List<scalar> 
8000
(
2.60837e-11
7.81443e-11
1.29923e-10
1.81275e-10
2.32078e-10
2.82223e-10
3.31614e-10
3.80169e-10
4.27812e-10
4.74481e-10
5.20121e-10
5.64685e-10
6.08136e-10
6.50442e-10
6.9158e-10
7.31531e-10
7.70285e-10
8.07834e-10
8.44177e-10
8.79317e-10
9.13261e-10
9.46019e-10
9.77603e-10
1.00803e-09
1.03732e-09
1.06548e-09
1.09255e-09
1.11855e-09
1.14349e-09
1.16741e-09
1.19032e-09
1.21226e-09
1.23325e-09
1.25332e-09
1.27248e-09
1.29078e-09
1.30822e-09
1.32485e-09
1.34068e-09
1.35573e-09
1.37003e-09
1.38361e-09
1.39648e-09
1.40867e-09
1.4202e-09
1.43109e-09
1.44136e-09
1.45103e-09
1.46011e-09
1.46863e-09
1.4766e-09
1.48404e-09
1.49096e-09
1.49739e-09
1.50333e-09
1.5088e-09
1.51381e-09
1.51838e-09
1.52252e-09
1.52624e-09
1.52955e-09
1.53247e-09
1.53501e-09
1.53717e-09
1.53896e-09
1.54041e-09
1.5415e-09
1.54226e-09
1.5427e-09
1.54281e-09
1.54262e-09
1.54212e-09
1.54133e-09
1.54024e-09
1.53888e-09
1.53724e-09
1.53534e-09
1.53317e-09
1.53075e-09
1.52808e-09
1.52516e-09
1.52201e-09
1.51862e-09
1.51501e-09
1.51118e-09
1.50713e-09
1.50287e-09
1.4984e-09
1.49373e-09
1.48886e-09
1.4838e-09
1.47856e-09
1.47313e-09
1.46752e-09
1.46173e-09
1.45577e-09
1.44965e-09
1.44337e-09
1.43692e-09
1.43032e-09
1.42357e-09
1.41668e-09
1.40964e-09
1.40246e-09
1.39514e-09
1.3877e-09
1.38012e-09
1.37242e-09
1.3646e-09
1.35666e-09
1.3486e-09
1.34044e-09
1.33217e-09
1.32379e-09
1.31531e-09
1.30674e-09
1.29807e-09
1.28931e-09
1.28046e-09
1.27153e-09
1.26252e-09
1.25343e-09
1.24426e-09
1.23502e-09
1.22572e-09
1.21635e-09
1.20691e-09
1.19742e-09
1.18786e-09
1.17826e-09
1.1686e-09
1.1589e-09
1.14915e-09
1.13936e-09
1.12953e-09
1.11966e-09
1.10976e-09
1.09983e-09
1.08986e-09
1.07988e-09
1.06987e-09
1.05983e-09
1.04979e-09
1.03972e-09
1.02964e-09
1.01955e-09
1.00946e-09
9.99354e-10
9.89247e-10
9.7914e-10
9.69035e-10
9.58932e-10
9.48836e-10
9.38747e-10
9.28669e-10
9.18603e-10
9.08551e-10
8.98516e-10
8.88499e-10
8.78503e-10
8.6853e-10
8.58581e-10
8.48658e-10
8.38763e-10
8.28898e-10
8.19065e-10
8.09265e-10
7.99501e-10
7.89773e-10
7.80084e-10
7.70436e-10
7.60828e-10
7.51264e-10
7.41745e-10
7.32272e-10
7.22846e-10
7.13469e-10
7.04142e-10
6.94867e-10
6.85645e-10
6.76477e-10
6.67364e-10
6.58307e-10
6.49308e-10
6.40367e-10
6.31487e-10
6.22666e-10
6.13907e-10
6.05211e-10
5.96579e-10
5.8801e-10
5.79507e-10
5.7107e-10
5.62699e-10
5.54396e-10
5.46161e-10
5.37994e-10
5.29898e-10
5.21871e-10
5.13915e-10
5.0603e-10
4.98216e-10
4.90475e-10
4.82806e-10
4.7521e-10
4.67688e-10
4.60239e-10
4.52864e-10
4.45564e-10
4.38338e-10
4.31187e-10
4.24111e-10
4.1711e-10
4.10184e-10
4.03334e-10
3.9656e-10
3.89861e-10
3.83238e-10
3.7669e-10
3.70218e-10
3.63822e-10
3.57502e-10
3.51257e-10
3.45088e-10
3.38994e-10
3.32975e-10
3.27031e-10
3.21163e-10
3.15369e-10
3.09649e-10
3.04004e-10
2.98433e-10
2.92936e-10
2.87512e-10
2.82161e-10
2.76883e-10
2.71678e-10
2.66545e-10
2.61483e-10
2.56493e-10
2.51575e-10
2.46726e-10
2.41948e-10
2.3724e-10
2.32601e-10
2.28031e-10
2.23529e-10
2.19095e-10
2.14729e-10
2.10429e-10
2.06196e-10
2.02029e-10
1.97927e-10
1.9389e-10
1.89917e-10
1.86008e-10
1.82162e-10
1.78378e-10
1.74657e-10
1.70997e-10
1.67398e-10
1.63859e-10
1.60379e-10
1.56959e-10
1.53597e-10
1.50293e-10
1.47046e-10
1.43856e-10
1.40722e-10
1.37643e-10
1.34619e-10
1.31649e-10
1.28732e-10
1.25868e-10
1.23057e-10
1.20297e-10
1.17588e-10
1.14929e-10
1.1232e-10
1.09759e-10
1.07248e-10
1.04784e-10
1.02367e-10
9.99966e-11
9.76721e-11
9.53929e-11
9.31583e-11
9.09677e-11
8.88205e-11
8.67161e-11
8.46538e-11
8.26331e-11
8.06532e-11
7.87137e-11
7.68139e-11
7.49532e-11
7.31311e-11
7.13468e-11
6.95999e-11
6.78898e-11
6.62158e-11
6.45774e-11
6.29741e-11
6.14052e-11
5.98703e-11
5.83686e-11
5.68998e-11
5.54632e-11
5.40584e-11
5.26847e-11
5.13416e-11
5.00287e-11
4.87454e-11
4.74911e-11
4.62654e-11
4.50678e-11
4.38978e-11
4.27549e-11
4.16386e-11
4.05483e-11
3.94838e-11
3.84444e-11
3.74298e-11
3.64394e-11
3.54728e-11
3.45296e-11
3.36094e-11
3.27117e-11
3.1836e-11
3.09821e-11
3.01494e-11
2.93375e-11
2.85461e-11
2.77748e-11
2.70231e-11
2.62908e-11
2.55774e-11
2.48825e-11
2.42059e-11
2.3547e-11
2.29057e-11
2.22816e-11
2.16742e-11
2.10834e-11
2.05087e-11
1.99499e-11
1.94066e-11
1.88786e-11
1.83655e-11
1.7867e-11
1.7383e-11
1.6913e-11
1.64568e-11
1.60142e-11
1.55848e-11
1.51685e-11
1.4765e-11
1.4374e-11
1.39953e-11
1.36287e-11
1.32739e-11
1.29308e-11
1.2599e-11
1.22785e-11
1.1969e-11
1.16703e-11
1.13822e-11
1.11046e-11
1.08372e-11
1.05799e-11
1.03325e-11
1.00949e-11
9.86692e-12
9.64836e-12
9.43911e-12
9.23904e-12
9.048e-12
8.86587e-12
8.69253e-12
8.52786e-12
8.37175e-12
8.22409e-12
8.08479e-12
7.95374e-12
7.83087e-12
7.71608e-12
7.60929e-12
7.51044e-12
7.41945e-12
7.33626e-12
7.26081e-12
7.19306e-12
7.13296e-12
7.08045e-12
7.03552e-12
6.99812e-12
6.96823e-12
6.94583e-12
6.93091e-12
6.92345e-12
2.63507e-11
7.89685e-11
1.31348e-10
1.83351e-10
2.34855e-10
2.85752e-10
3.35944e-10
3.85346e-10
4.33881e-10
4.81482e-10
5.28091e-10
5.73659e-10
6.18144e-10
6.61509e-10
7.03729e-10
7.4478e-10
7.84648e-10
8.23323e-10
8.60798e-10
8.97073e-10
9.32151e-10
9.6604e-10
9.98748e-10
1.03029e-09
1.06068e-09
1.08994e-09
1.11808e-09
1.14512e-09
1.1711e-09
1.19602e-09
1.21993e-09
1.24283e-09
1.26475e-09
1.28573e-09
1.30577e-09
1.32492e-09
1.3432e-09
1.36062e-09
1.37722e-09
1.39301e-09
1.40803e-09
1.42229e-09
1.43582e-09
1.44864e-09
1.46077e-09
1.47224e-09
1.48305e-09
1.49324e-09
1.50282e-09
1.51181e-09
1.52023e-09
1.52809e-09
1.53541e-09
1.54221e-09
1.54851e-09
1.55431e-09
1.55963e-09
1.56449e-09
1.5689e-09
1.57288e-09
1.57642e-09
1.57955e-09
1.58228e-09
1.58462e-09
1.58658e-09
1.58817e-09
1.58939e-09
1.59027e-09
1.5908e-09
1.591e-09
1.59088e-09
1.59044e-09
1.58969e-09
1.58864e-09
1.58729e-09
1.58566e-09
1.58375e-09
1.58157e-09
1.57912e-09
1.57641e-09
1.57345e-09
1.57024e-09
1.56678e-09
1.56309e-09
1.55917e-09
1.55503e-09
1.55066e-09
1.54608e-09
1.54129e-09
1.53629e-09
1.5311e-09
1.52571e-09
1.52012e-09
1.51436e-09
1.5084e-09
1.50228e-09
1.49598e-09
1.48951e-09
1.48287e-09
1.47607e-09
1.46912e-09
1.46202e-09
1.45476e-09
1.44737e-09
1.43983e-09
1.43215e-09
1.42434e-09
1.4164e-09
1.40834e-09
1.40015e-09
1.39185e-09
1.38343e-09
1.3749e-09
1.36626e-09
1.35751e-09
1.34867e-09
1.33973e-09
1.33069e-09
1.32157e-09
1.31235e-09
1.30305e-09
1.29367e-09
1.28422e-09
1.27469e-09
1.26508e-09
1.25541e-09
1.24568e-09
1.23588e-09
1.22602e-09
1.21611e-09
1.20615e-09
1.19613e-09
1.18607e-09
1.17597e-09
1.16582e-09
1.15564e-09
1.14542e-09
1.13517e-09
1.12489e-09
1.11458e-09
1.10425e-09
1.0939e-09
1.08353e-09
1.07314e-09
1.06274e-09
1.05233e-09
1.04191e-09
1.03148e-09
1.02105e-09
1.01062e-09
1.00019e-09
9.89761e-10
9.7934e-10
9.68928e-10
9.58526e-10
9.48137e-10
9.37762e-10
9.27405e-10
9.17067e-10
9.06749e-10
8.96455e-10
8.86186e-10
8.75945e-10
8.65732e-10
8.5555e-10
8.45401e-10
8.35287e-10
8.25209e-10
8.15168e-10
8.05168e-10
7.95209e-10
7.85293e-10
7.75421e-10
7.65596e-10
7.55818e-10
7.4609e-10
7.36411e-10
7.26785e-10
7.17212e-10
7.07693e-10
6.9823e-10
6.88824e-10
6.79476e-10
6.70188e-10
6.6096e-10
6.51793e-10
6.42689e-10
6.33649e-10
6.24673e-10
6.15763e-10
6.06919e-10
5.98142e-10
5.89434e-10
5.80794e-10
5.72224e-10
5.63724e-10
5.55295e-10
5.46938e-10
5.38653e-10
5.30441e-10
5.22302e-10
5.14238e-10
5.06247e-10
4.98332e-10
4.90492e-10
4.82728e-10
4.75039e-10
4.67428e-10
4.59892e-10
4.52434e-10
4.45053e-10
4.37749e-10
4.30523e-10
4.23375e-10
4.16305e-10
4.09312e-10
4.02398e-10
3.95562e-10
3.88804e-10
3.82124e-10
3.75522e-10
3.68998e-10
3.62553e-10
3.56185e-10
3.49895e-10
3.43683e-10
3.37548e-10
3.31491e-10
3.2551e-10
3.19607e-10
3.1378e-10
3.0803e-10
3.02356e-10
2.96758e-10
2.91235e-10
2.85787e-10
2.80414e-10
2.75116e-10
2.69892e-10
2.64742e-10
2.59665e-10
2.5466e-10
2.49729e-10
2.44869e-10
2.40081e-10
2.35364e-10
2.30717e-10
2.26141e-10
2.21634e-10
2.17196e-10
2.12827e-10
2.08526e-10
2.04292e-10
2.00125e-10
1.96024e-10
1.91989e-10
1.8802e-10
1.84115e-10
1.80273e-10
1.76496e-10
1.72781e-10
1.69128e-10
1.65537e-10
1.62007e-10
1.58537e-10
1.55126e-10
1.51775e-10
1.48482e-10
1.45247e-10
1.42069e-10
1.38948e-10
1.35882e-10
1.32872e-10
1.29916e-10
1.27014e-10
1.24165e-10
1.21369e-10
1.18625e-10
1.15932e-10
1.13289e-10
1.10697e-10
1.08153e-10
1.05659e-10
1.03212e-10
1.00813e-10
9.84606e-11
9.61541e-11
9.38931e-11
9.16769e-11
8.95047e-11
8.73761e-11
8.52904e-11
8.32469e-11
8.1245e-11
7.92841e-11
7.73636e-11
7.54828e-11
7.36412e-11
7.18381e-11
7.0073e-11
6.83452e-11
6.66541e-11
6.49992e-11
6.33799e-11
6.17956e-11
6.02457e-11
5.87296e-11
5.72468e-11
5.57968e-11
5.43789e-11
5.29927e-11
5.16375e-11
5.03129e-11
4.90183e-11
4.77532e-11
4.65171e-11
4.53095e-11
4.41298e-11
4.29776e-11
4.18523e-11
4.07535e-11
3.96807e-11
3.86334e-11
3.76112e-11
3.66136e-11
3.56401e-11
3.46902e-11
3.37636e-11
3.28598e-11
3.19784e-11
3.11189e-11
3.0281e-11
2.94641e-11
2.8668e-11
2.78922e-11
2.71363e-11
2.63999e-11
2.56827e-11
2.49843e-11
2.43043e-11
2.36423e-11
2.29981e-11
2.23712e-11
2.17614e-11
2.11682e-11
2.05914e-11
2.00307e-11
1.94857e-11
1.89561e-11
1.84416e-11
1.7942e-11
1.74569e-11
1.6986e-11
1.65291e-11
1.6086e-11
1.56563e-11
1.52398e-11
1.48362e-11
1.44453e-11
1.40669e-11
1.37008e-11
1.33466e-11
1.30042e-11
1.26734e-11
1.23539e-11
1.20456e-11
1.17483e-11
1.14617e-11
1.11857e-11
1.09201e-11
1.06648e-11
1.04196e-11
1.01842e-11
9.95863e-12
9.74266e-12
9.53615e-12
9.33897e-12
9.15098e-12
8.97207e-12
8.8021e-12
8.64097e-12
8.48856e-12
8.34478e-12
8.20952e-12
8.08269e-12
7.96421e-12
7.85399e-12
7.75196e-12
7.65804e-12
7.57218e-12
7.49431e-12
7.42438e-12
7.36234e-12
7.30815e-12
7.26177e-12
7.22316e-12
7.19232e-12
7.1692e-12
7.1538e-12
7.1461e-12
2.66127e-11
7.97658e-11
1.32707e-10
1.85308e-10
2.3745e-10
2.89024e-10
3.39935e-10
3.90095e-10
4.39425e-10
4.87856e-10
5.35329e-10
5.81789e-10
6.27192e-10
6.715e-10
7.14681e-10
7.5671e-10
7.97569e-10
8.37244e-10
8.75726e-10
9.13011e-10
9.49099e-10
9.83995e-10
1.01771e-09
1.05024e-09
1.08161e-09
1.11184e-09
1.14094e-09
1.16892e-09
1.19582e-09
1.22165e-09
1.24643e-09
1.27019e-09
1.29296e-09
1.31475e-09
1.33558e-09
1.3555e-09
1.37451e-09
1.39265e-09
1.40994e-09
1.4264e-09
1.44206e-09
1.45694e-09
1.47106e-09
1.48444e-09
1.49711e-09
1.50909e-09
1.5204e-09
1.53106e-09
1.54109e-09
1.5505e-09
1.55932e-09
1.56756e-09
1.57525e-09
1.58239e-09
1.589e-09
1.5951e-09
1.60071e-09
1.60583e-09
1.61048e-09
1.61468e-09
1.61844e-09
1.62176e-09
1.62467e-09
1.62717e-09
1.62927e-09
1.63099e-09
1.63234e-09
1.63332e-09
1.63394e-09
1.63422e-09
1.63416e-09
1.63377e-09
1.63306e-09
1.63204e-09
1.63071e-09
1.62909e-09
1.62717e-09
1.62497e-09
1.6225e-09
1.61976e-09
1.61675e-09
1.61349e-09
1.60998e-09
1.60622e-09
1.60222e-09
1.59799e-09
1.59353e-09
1.58885e-09
1.58395e-09
1.57884e-09
1.57352e-09
1.568e-09
1.56228e-09
1.55637e-09
1.55027e-09
1.54399e-09
1.53753e-09
1.53089e-09
1.52409e-09
1.51712e-09
1.50998e-09
1.50269e-09
1.49525e-09
1.48765e-09
1.47991e-09
1.47203e-09
1.46401e-09
1.45586e-09
1.44758e-09
1.43917e-09
1.43064e-09
1.42199e-09
1.41323e-09
1.40436e-09
1.39537e-09
1.38629e-09
1.3771e-09
1.36782e-09
1.35844e-09
1.34897e-09
1.33942e-09
1.32978e-09
1.32006e-09
1.31027e-09
1.3004e-09
1.29046e-09
1.28046e-09
1.27039e-09
1.26026e-09
1.25007e-09
1.23983e-09
1.22954e-09
1.2192e-09
1.20881e-09
1.19839e-09
1.18792e-09
1.17742e-09
1.16688e-09
1.15632e-09
1.14572e-09
1.1351e-09
1.12446e-09
1.1138e-09
1.10312e-09
1.09243e-09
1.08173e-09
1.07102e-09
1.0603e-09
1.04958e-09
1.03886e-09
1.02814e-09
1.01742e-09
1.00671e-09
9.96004e-10
9.85312e-10
9.74632e-10
9.63968e-10
9.53322e-10
9.42695e-10
9.3209e-10
9.21508e-10
9.10953e-10
9.00425e-10
8.89927e-10
8.79461e-10
8.69028e-10
8.58631e-10
8.48272e-10
8.37951e-10
8.27671e-10
8.17434e-10
8.07241e-10
7.97094e-10
7.86994e-10
7.76943e-10
7.66942e-10
7.56993e-10
7.47098e-10
7.37257e-10
7.27473e-10
7.17745e-10
7.08076e-10
6.98467e-10
6.88919e-10
6.79433e-10
6.70011e-10
6.60652e-10
6.51359e-10
6.42133e-10
6.32974e-10
6.23882e-10
6.1486e-10
6.05908e-10
5.97027e-10
5.88218e-10
5.7948e-10
5.70816e-10
5.62225e-10
5.53709e-10
5.45267e-10
5.36901e-10
5.28611e-10
5.20398e-10
5.12261e-10
5.04202e-10
4.9622e-10
4.88317e-10
4.80493e-10
4.72747e-10
4.6508e-10
4.57493e-10
4.49985e-10
4.42557e-10
4.35209e-10
4.27941e-10
4.20753e-10
4.13645e-10
4.06618e-10
3.99671e-10
3.92805e-10
3.86018e-10
3.79312e-10
3.72686e-10
3.66141e-10
3.59675e-10
3.53289e-10
3.46983e-10
3.40756e-10
3.34609e-10
3.2854e-10
3.22551e-10
3.1664e-10
3.10807e-10
3.05052e-10
2.99375e-10
2.93775e-10
2.88252e-10
2.82806e-10
2.77436e-10
2.72142e-10
2.66923e-10
2.61779e-10
2.56709e-10
2.51713e-10
2.46791e-10
2.41942e-10
2.37166e-10
2.32462e-10
2.27829e-10
2.23267e-10
2.18776e-10
2.14354e-10
2.10002e-10
2.05719e-10
2.01503e-10
1.97356e-10
1.93275e-10
1.89261e-10
1.85312e-10
1.81429e-10
1.7761e-10
1.73855e-10
1.70164e-10
1.66535e-10
1.62968e-10
1.59462e-10
1.56018e-10
1.52633e-10
1.49307e-10
1.4604e-10
1.42832e-10
1.3968e-10
1.36586e-10
1.33547e-10
1.30564e-10
1.27636e-10
1.24761e-10
1.2194e-10
1.19172e-10
1.16456e-10
1.13791e-10
1.11176e-10
1.08612e-10
1.06097e-10
1.03631e-10
1.01213e-10
9.88417e-11
9.65175e-11
9.42393e-11
9.20065e-11
8.98184e-11
8.76744e-11
8.55737e-11
8.35159e-11
8.15002e-11
7.9526e-11
7.75927e-11
7.56996e-11
7.38461e-11
7.20316e-11
7.02555e-11
6.85172e-11
6.6816e-11
6.51515e-11
6.35228e-11
6.19296e-11
6.03712e-11
5.8847e-11
5.73564e-11
5.58989e-11
5.44739e-11
5.30809e-11
5.17192e-11
5.03885e-11
4.9088e-11
4.78173e-11
4.65759e-11
4.53633e-11
4.41788e-11
4.30221e-11
4.18926e-11
4.07898e-11
3.97133e-11
3.86625e-11
3.7637e-11
3.66362e-11
3.56599e-11
3.47074e-11
3.37783e-11
3.28722e-11
3.19887e-11
3.11273e-11
3.02877e-11
2.94693e-11
2.86718e-11
2.78948e-11
2.71378e-11
2.64006e-11
2.56826e-11
2.49836e-11
2.43032e-11
2.36409e-11
2.29965e-11
2.23696e-11
2.17599e-11
2.1167e-11
2.05906e-11
2.00303e-11
1.94859e-11
1.89571e-11
1.84435e-11
1.79448e-11
1.74608e-11
1.69912e-11
1.65356e-11
1.60939e-11
1.56658e-11
1.52509e-11
1.48491e-11
1.44601e-11
1.40837e-11
1.37196e-11
1.33677e-11
1.30276e-11
1.26992e-11
1.23823e-11
1.20766e-11
1.17821e-11
1.14984e-11
1.12254e-11
1.09629e-11
1.07108e-11
1.04689e-11
1.0237e-11
1.0015e-11
9.8027e-12
9.6e-12
9.40676e-12
9.22285e-12
9.04813e-12
8.8825e-12
8.72583e-12
8.57803e-12
8.43899e-12
8.30862e-12
8.18682e-12
8.07352e-12
7.96863e-12
7.87209e-12
7.78383e-12
7.70378e-12
7.6319e-12
7.56812e-12
7.51242e-12
7.46474e-12
7.42506e-12
7.39335e-12
7.36959e-12
7.35375e-12
7.34584e-12
2.68571e-11
8.05061e-11
1.33962e-10
1.87102e-10
2.39813e-10
2.91989e-10
3.43534e-10
3.94361e-10
4.4439e-10
4.9355e-10
5.41778e-10
5.8902e-10
6.35227e-10
6.80359e-10
7.24382e-10
7.67267e-10
8.08993e-10
8.49544e-10
8.88908e-10
9.27077e-10
9.64051e-10
9.99829e-10
1.03442e-09
1.06782e-09
1.10006e-09
1.13114e-09
1.16108e-09
1.18989e-09
1.2176e-09
1.24422e-09
1.26978e-09
1.2943e-09
1.3178e-09
1.3403e-09
1.36184e-09
1.38243e-09
1.40209e-09
1.42086e-09
1.43876e-09
1.45581e-09
1.47203e-09
1.48745e-09
1.50209e-09
1.51598e-09
1.52913e-09
1.54156e-09
1.55331e-09
1.56438e-09
1.5748e-09
1.58459e-09
1.59377e-09
1.60235e-09
1.61035e-09
1.61779e-09
1.62469e-09
1.63105e-09
1.63691e-09
1.64226e-09
1.64713e-09
1.65153e-09
1.65547e-09
1.65897e-09
1.66203e-09
1.66468e-09
1.66691e-09
1.66875e-09
1.6702e-09
1.67127e-09
1.67197e-09
1.67232e-09
1.67232e-09
1.67197e-09
1.6713e-09
1.67031e-09
1.669e-09
1.66738e-09
1.66546e-09
1.66325e-09
1.66076e-09
1.65799e-09
1.65494e-09
1.65164e-09
1.64807e-09
1.64425e-09
1.64018e-09
1.63588e-09
1.63134e-09
1.62657e-09
1.62157e-09
1.61636e-09
1.61094e-09
1.6053e-09
1.59946e-09
1.59343e-09
1.5872e-09
1.58078e-09
1.57418e-09
1.5674e-09
1.56044e-09
1.55331e-09
1.54602e-09
1.53857e-09
1.53095e-09
1.52319e-09
1.51527e-09
1.50721e-09
1.49901e-09
1.49067e-09
1.48219e-09
1.47359e-09
1.46486e-09
1.45601e-09
1.44704e-09
1.43796e-09
1.42877e-09
1.41947e-09
1.41006e-09
1.40056e-09
1.39096e-09
1.38127e-09
1.37149e-09
1.36163e-09
1.35168e-09
1.34165e-09
1.33155e-09
1.32138e-09
1.31113e-09
1.30083e-09
1.29046e-09
1.28003e-09
1.26954e-09
1.25901e-09
1.24842e-09
1.23779e-09
1.22711e-09
1.21639e-09
1.20564e-09
1.19485e-09
1.18403e-09
1.17319e-09
1.16231e-09
1.15142e-09
1.1405e-09
1.12957e-09
1.11862e-09
1.10767e-09
1.0967e-09
1.08572e-09
1.07475e-09
1.06377e-09
1.05279e-09
1.04181e-09
1.03085e-09
1.01989e-09
1.00894e-09
9.98004e-10
9.87085e-10
9.76183e-10
9.65302e-10
9.54442e-10
9.43607e-10
9.32799e-10
9.22019e-10
9.11269e-10
9.00552e-10
8.8987e-10
8.79224e-10
8.68616e-10
8.58048e-10
8.47521e-10
8.37039e-10
8.26601e-10
8.16211e-10
8.05869e-10
7.95577e-10
7.85336e-10
7.75149e-10
7.65017e-10
7.5494e-10
7.4492e-10
7.3496e-10
7.25059e-10
7.1522e-10
7.05443e-10
6.95729e-10
6.86081e-10
6.76498e-10
6.66982e-10
6.57534e-10
6.48155e-10
6.38846e-10
6.29608e-10
6.20441e-10
6.11347e-10
6.02326e-10
5.93379e-10
5.84507e-10
5.7571e-10
5.66989e-10
5.58345e-10
5.49779e-10
5.4129e-10
5.32879e-10
5.24548e-10
5.16295e-10
5.08122e-10
5.0003e-10
4.92017e-10
4.84086e-10
4.76235e-10
4.68466e-10
4.60778e-10
4.53172e-10
4.45647e-10
4.38205e-10
4.30845e-10
4.23567e-10
4.16371e-10
4.09257e-10
4.02226e-10
3.95277e-10
3.8841e-10
3.81626e-10
3.74923e-10
3.68302e-10
3.61763e-10
3.55305e-10
3.48929e-10
3.42634e-10
3.36421e-10
3.30287e-10
3.24235e-10
3.18262e-10
3.12369e-10
3.06556e-10
3.00822e-10
2.95166e-10
2.89589e-10
2.8409e-10
2.78669e-10
2.73325e-10
2.68057e-10
2.62866e-10
2.57751e-10
2.52711e-10
2.47746e-10
2.42855e-10
2.38037e-10
2.33293e-10
2.28622e-10
2.24023e-10
2.19495e-10
2.15039e-10
2.10653e-10
2.06336e-10
2.02089e-10
1.97911e-10
1.938e-10
1.89757e-10
1.85781e-10
1.8187e-10
1.78025e-10
1.74245e-10
1.70529e-10
1.66877e-10
1.63287e-10
1.5976e-10
1.56294e-10
1.52888e-10
1.49543e-10
1.46258e-10
1.43031e-10
1.39862e-10
1.36751e-10
1.33696e-10
1.30697e-10
1.27754e-10
1.24865e-10
1.2203e-10
1.19249e-10
1.1652e-10
1.13843e-10
1.11217e-10
1.08642e-10
1.06117e-10
1.0364e-10
1.01213e-10
9.88326e-11
9.64997e-11
9.42133e-11
9.19728e-11
8.97773e-11
8.76263e-11
8.55191e-11
8.3455e-11
8.14335e-11
7.94538e-11
7.75153e-11
7.56173e-11
7.37593e-11
7.19406e-11
7.01606e-11
6.84187e-11
6.67142e-11
6.50465e-11
6.3415e-11
6.18192e-11
6.02584e-11
5.87321e-11
5.72396e-11
5.57805e-11
5.4354e-11
5.29597e-11
5.15971e-11
5.02654e-11
4.89643e-11
4.76931e-11
4.64513e-11
4.52385e-11
4.4054e-11
4.28974e-11
4.17682e-11
4.06658e-11
3.95898e-11
3.85397e-11
3.7515e-11
3.65152e-11
3.55398e-11
3.45885e-11
3.36607e-11
3.2756e-11
3.1874e-11
3.10141e-11
3.01761e-11
2.93595e-11
2.85638e-11
2.77887e-11
2.70338e-11
2.62986e-11
2.55829e-11
2.48861e-11
2.4208e-11
2.35481e-11
2.29062e-11
2.22818e-11
2.16747e-11
2.10845e-11
2.05108e-11
1.99533e-11
1.94118e-11
1.88858e-11
1.83752e-11
1.78796e-11
1.73987e-11
1.69322e-11
1.64799e-11
1.60415e-11
1.56167e-11
1.52053e-11
1.4807e-11
1.44215e-11
1.40487e-11
1.36883e-11
1.33401e-11
1.30038e-11
1.26793e-11
1.23663e-11
1.20647e-11
1.17742e-11
1.14946e-11
1.12259e-11
1.09677e-11
1.072e-11
1.04825e-11
1.02552e-11
1.00378e-11
9.83027e-12
9.63239e-12
9.44406e-12
9.26516e-12
9.09555e-12
8.93513e-12
8.78378e-12
8.6414e-12
8.5079e-12
8.38319e-12
8.26717e-12
8.15977e-12
8.06091e-12
7.97053e-12
7.88856e-12
7.81495e-12
7.74965e-12
7.69261e-12
7.64379e-12
7.60315e-12
7.57068e-12
7.54635e-12
7.53014e-12
7.52204e-12
2.70767e-11
8.11694e-11
1.35081e-10
1.88696e-10
2.41905e-10
2.94604e-10
3.46698e-10
3.981e-10
4.4873e-10
4.98516e-10
5.47393e-10
5.95306e-10
6.42203e-10
6.88041e-10
7.32786e-10
7.76405e-10
8.18875e-10
8.60177e-10
9.00296e-10
9.39225e-10
9.76958e-10
1.01349e-09
1.04884e-09
1.08299e-09
1.11597e-09
1.14778e-09
1.17844e-09
1.20796e-09
1.23637e-09
1.26367e-09
1.2899e-09
1.31507e-09
1.33921e-09
1.36233e-09
1.38446e-09
1.40564e-09
1.42587e-09
1.44518e-09
1.4636e-09
1.48116e-09
1.49787e-09
1.51376e-09
1.52885e-09
1.54317e-09
1.55673e-09
1.56956e-09
1.58168e-09
1.59312e-09
1.60388e-09
1.61399e-09
1.62348e-09
1.63235e-09
1.64063e-09
1.64833e-09
1.65547e-09
1.66206e-09
1.66813e-09
1.67369e-09
1.67875e-09
1.68332e-09
1.68742e-09
1.69107e-09
1.69427e-09
1.69704e-09
1.69939e-09
1.70132e-09
1.70286e-09
1.70401e-09
1.70479e-09
1.7052e-09
1.70524e-09
1.70494e-09
1.7043e-09
1.70333e-09
1.70203e-09
1.70042e-09
1.6985e-09
1.69629e-09
1.69377e-09
1.69098e-09
1.6879e-09
1.68456e-09
1.68094e-09
1.67707e-09
1.67295e-09
1.66858e-09
1.66397e-09
1.65912e-09
1.65405e-09
1.64875e-09
1.64323e-09
1.6375e-09
1.63156e-09
1.62541e-09
1.61907e-09
1.61254e-09
1.60581e-09
1.59891e-09
1.59182e-09
1.58456e-09
1.57713e-09
1.56953e-09
1.56177e-09
1.55386e-09
1.54579e-09
1.53757e-09
1.52921e-09
1.52071e-09
1.51207e-09
1.5033e-09
1.4944e-09
1.48537e-09
1.47623e-09
1.46697e-09
1.45759e-09
1.44811e-09
1.43852e-09
1.42883e-09
1.41904e-09
1.40915e-09
1.39918e-09
1.38912e-09
1.37897e-09
1.36874e-09
1.35844e-09
1.34806e-09
1.33761e-09
1.3271e-09
1.31652e-09
1.30588e-09
1.29519e-09
1.28444e-09
1.27364e-09
1.26279e-09
1.2519e-09
1.24097e-09
1.23e-09
1.219e-09
1.20796e-09
1.19689e-09
1.1858e-09
1.17469e-09
1.16355e-09
1.1524e-09
1.14123e-09
1.13005e-09
1.11886e-09
1.10767e-09
1.09647e-09
1.08527e-09
1.07407e-09
1.06287e-09
1.05168e-09
1.0405e-09
1.02933e-09
1.01818e-09
1.00704e-09
9.95917e-10
9.84816e-10
9.73737e-10
9.62683e-10
9.51656e-10
9.40658e-10
9.29692e-10
9.18758e-10
9.0786e-10
8.96998e-10
8.86176e-10
8.75395e-10
8.64656e-10
8.53961e-10
8.43313e-10
8.32712e-10
8.22161e-10
8.11661e-10
8.01214e-10
7.90821e-10
7.80483e-10
7.70203e-10
7.59981e-10
7.49819e-10
7.39718e-10
7.2968e-10
7.19705e-10
7.09796e-10
6.99952e-10
6.90176e-10
6.80467e-10
6.70828e-10
6.6126e-10
6.51763e-10
6.42338e-10
6.32985e-10
6.23707e-10
6.14504e-10
6.05376e-10
5.96325e-10
5.8735e-10
5.78453e-10
5.69634e-10
5.60895e-10
5.52234e-10
5.43653e-10
5.35153e-10
5.26734e-10
5.18396e-10
5.1014e-10
5.01965e-10
4.93873e-10
4.85864e-10
4.77938e-10
4.70094e-10
4.62334e-10
4.54658e-10
4.47065e-10
4.39556e-10
4.32131e-10
4.2479e-10
4.17532e-10
4.10359e-10
4.03269e-10
3.96263e-10
3.89342e-10
3.82503e-10
3.75749e-10
3.69077e-10
3.62489e-10
3.55984e-10
3.49562e-10
3.43223e-10
3.36965e-10
3.3079e-10
3.24697e-10
3.18685e-10
3.12754e-10
3.06904e-10
3.01134e-10
2.95444e-10
2.89834e-10
2.84303e-10
2.78851e-10
2.73477e-10
2.68181e-10
2.62962e-10
2.5782e-10
2.52755e-10
2.47765e-10
2.4285e-10
2.3801e-10
2.33245e-10
2.28553e-10
2.23933e-10
2.19387e-10
2.14912e-10
2.10508e-10
2.06175e-10
2.01912e-10
1.97719e-10
1.93594e-10
1.89537e-10
1.85548e-10
1.81625e-10
1.77768e-10
1.73977e-10
1.70251e-10
1.66589e-10
1.6299e-10
1.59454e-10
1.5598e-10
1.52567e-10
1.49215e-10
1.45923e-10
1.4269e-10
1.39515e-10
1.36399e-10
1.3334e-10
1.30337e-10
1.2739e-10
1.24498e-10
1.2166e-10
1.18876e-10
1.16145e-10
1.13466e-10
1.10839e-10
1.08262e-10
1.05736e-10
1.03259e-10
1.00831e-10
9.84508e-11
9.61182e-11
9.38323e-11
9.15925e-11
8.9398e-11
8.72482e-11
8.51424e-11
8.308e-11
8.10602e-11
7.90825e-11
7.71462e-11
7.52507e-11
7.33952e-11
7.15792e-11
6.9802e-11
6.8063e-11
6.63616e-11
6.46972e-11
6.30691e-11
6.14768e-11
5.99196e-11
5.8397e-11
5.69083e-11
5.5453e-11
5.40305e-11
5.26403e-11
5.12817e-11
4.99543e-11
4.86574e-11
4.73905e-11
4.61532e-11
4.49448e-11
4.37648e-11
4.26127e-11
4.14881e-11
4.03903e-11
3.93189e-11
3.82735e-11
3.72535e-11
3.62584e-11
3.52878e-11
3.43413e-11
3.34183e-11
3.25184e-11
3.16412e-11
3.07863e-11
2.99531e-11
2.91414e-11
2.83506e-11
2.75804e-11
2.68304e-11
2.61001e-11
2.53893e-11
2.46974e-11
2.40242e-11
2.33693e-11
2.27324e-11
2.21129e-11
2.15108e-11
2.09255e-11
2.03567e-11
1.98043e-11
1.92677e-11
1.87467e-11
1.82411e-11
1.77505e-11
1.72746e-11
1.68131e-11
1.63658e-11
1.59325e-11
1.55127e-11
1.51063e-11
1.47131e-11
1.43328e-11
1.39651e-11
1.36098e-11
1.32667e-11
1.29356e-11
1.26163e-11
1.23086e-11
1.20122e-11
1.1727e-11
1.14528e-11
1.11895e-11
1.09367e-11
1.06945e-11
1.04625e-11
1.02408e-11
1.0029e-11
9.82715e-12
9.63501e-12
9.45249e-12
9.27945e-12
9.11579e-12
8.96138e-12
8.81612e-12
8.67992e-12
8.55269e-12
8.43432e-12
8.32475e-12
8.22389e-12
8.13169e-12
8.04806e-12
7.97296e-12
7.90634e-12
7.84814e-12
7.79833e-12
7.75688e-12
7.72375e-12
7.69893e-12
7.68239e-12
7.67412e-12
2.72661e-11
8.17407e-11
1.36043e-10
1.90063e-10
2.43693e-10
2.96833e-10
3.49388e-10
4.01272e-10
4.52405e-10
5.02714e-10
5.52134e-10
6.00606e-10
6.48078e-10
6.94506e-10
7.39852e-10
7.84083e-10
8.27173e-10
8.69101e-10
9.09851e-10
9.49413e-10
9.87779e-10
1.02495e-09
1.06092e-09
1.0957e-09
1.1293e-09
1.16172e-09
1.19298e-09
1.2231e-09
1.25209e-09
1.27996e-09
1.30675e-09
1.33246e-09
1.35713e-09
1.38077e-09
1.40341e-09
1.42507e-09
1.44577e-09
1.46554e-09
1.48441e-09
1.50239e-09
1.51951e-09
1.53579e-09
1.55126e-09
1.56594e-09
1.57985e-09
1.59301e-09
1.60545e-09
1.61718e-09
1.62823e-09
1.63862e-09
1.64836e-09
1.65748e-09
1.66599e-09
1.67391e-09
1.68125e-09
1.68804e-09
1.69429e-09
1.70002e-09
1.70524e-09
1.70996e-09
1.71419e-09
1.71796e-09
1.72128e-09
1.72415e-09
1.7266e-09
1.72862e-09
1.73024e-09
1.73146e-09
1.73229e-09
1.73275e-09
1.73284e-09
1.73257e-09
1.73196e-09
1.73101e-09
1.72972e-09
1.72812e-09
1.7262e-09
1.72397e-09
1.72145e-09
1.71863e-09
1.71553e-09
1.71215e-09
1.7085e-09
1.70458e-09
1.70041e-09
1.69599e-09
1.69132e-09
1.68641e-09
1.68126e-09
1.67589e-09
1.6703e-09
1.66448e-09
1.65846e-09
1.65222e-09
1.64579e-09
1.63915e-09
1.63233e-09
1.62532e-09
1.61812e-09
1.61075e-09
1.6032e-09
1.59549e-09
1.58761e-09
1.57957e-09
1.57137e-09
1.56302e-09
1.55453e-09
1.54589e-09
1.53711e-09
1.5282e-09
1.51915e-09
1.50998e-09
1.50069e-09
1.49128e-09
1.48175e-09
1.47211e-09
1.46237e-09
1.45252e-09
1.44257e-09
1.43252e-09
1.42239e-09
1.41216e-09
1.40185e-09
1.39145e-09
1.38098e-09
1.37043e-09
1.35981e-09
1.34912e-09
1.33837e-09
1.32756e-09
1.31669e-09
1.30576e-09
1.29478e-09
1.28376e-09
1.27269e-09
1.26157e-09
1.25042e-09
1.23924e-09
1.22802e-09
1.21677e-09
1.20549e-09
1.19419e-09
1.18287e-09
1.17154e-09
1.16018e-09
1.14882e-09
1.13744e-09
1.12606e-09
1.11468e-09
1.10329e-09
1.09191e-09
1.08053e-09
1.06915e-09
1.05779e-09
1.04643e-09
1.03509e-09
1.02377e-09
1.01246e-09
1.00117e-09
9.89911e-10
9.78674e-10
9.67464e-10
9.56283e-10
9.45135e-10
9.3402e-10
9.2294e-10
9.11899e-10
9.00897e-10
8.89936e-10
8.79019e-10
8.68147e-10
8.57322e-10
8.46545e-10
8.35819e-10
8.25145e-10
8.14524e-10
8.03958e-10
7.93449e-10
7.82998e-10
7.72606e-10
7.62275e-10
7.52007e-10
7.41802e-10
7.31661e-10
7.21587e-10
7.1158e-10
7.01641e-10
6.91772e-10
6.81973e-10
6.72245e-10
6.6259e-10
6.53008e-10
6.43501e-10
6.34069e-10
6.24713e-10
6.15433e-10
6.06231e-10
5.97108e-10
5.88063e-10
5.79098e-10
5.70213e-10
5.61408e-10
5.52685e-10
5.44044e-10
5.35485e-10
5.27008e-10
5.18615e-10
5.10304e-10
5.02078e-10
4.93936e-10
4.85878e-10
4.77904e-10
4.70015e-10
4.62211e-10
4.54492e-10
4.46858e-10
4.3931e-10
4.31847e-10
4.24469e-10
4.17176e-10
4.09969e-10
4.02847e-10
3.9581e-10
3.88858e-10
3.81991e-10
3.75209e-10
3.68511e-10
3.61898e-10
3.55369e-10
3.48925e-10
3.42563e-10
3.36286e-10
3.30091e-10
3.23979e-10
3.1795e-10
3.12003e-10
3.06137e-10
3.00353e-10
2.94649e-10
2.89027e-10
2.83484e-10
2.78021e-10
2.72636e-10
2.67331e-10
2.62104e-10
2.56954e-10
2.51881e-10
2.46885e-10
2.41964e-10
2.3712e-10
2.3235e-10
2.27654e-10
2.23031e-10
2.18482e-10
2.14006e-10
2.09601e-10
2.05267e-10
2.01003e-10
1.9681e-10
1.92686e-10
1.8863e-10
1.84642e-10
1.80722e-10
1.76868e-10
1.73079e-10
1.69356e-10
1.65698e-10
1.62103e-10
1.58571e-10
1.55102e-10
1.51694e-10
1.48347e-10
1.4506e-10
1.41833e-10
1.38665e-10
1.35555e-10
1.32502e-10
1.29506e-10
1.26566e-10
1.23681e-10
1.20851e-10
1.18074e-10
1.15351e-10
1.1268e-10
1.10061e-10
1.07492e-10
1.04974e-10
1.02506e-10
1.00086e-10
9.77151e-11
9.53912e-11
9.31141e-11
9.08832e-11
8.86976e-11
8.65569e-11
8.44602e-11
8.24069e-11
8.03964e-11
7.84279e-11
7.65008e-11
7.46145e-11
7.27684e-11
7.09617e-11
6.91938e-11
6.74641e-11
6.5772e-11
6.41169e-11
6.24981e-11
6.09151e-11
5.93671e-11
5.78537e-11
5.63743e-11
5.49281e-11
5.35148e-11
5.21337e-11
5.07842e-11
4.94657e-11
4.81778e-11
4.69199e-11
4.56914e-11
4.44919e-11
4.33206e-11
4.21773e-11
4.10613e-11
3.99721e-11
3.89093e-11
3.78724e-11
3.68608e-11
3.58741e-11
3.49118e-11
3.39735e-11
3.30586e-11
3.21669e-11
3.12977e-11
3.04507e-11
2.96255e-11
2.88216e-11
2.80386e-11
2.72761e-11
2.65337e-11
2.58111e-11
2.51077e-11
2.44234e-11
2.37576e-11
2.311e-11
2.24803e-11
2.18681e-11
2.12731e-11
2.06949e-11
2.01333e-11
1.95878e-11
1.90582e-11
1.85442e-11
1.80454e-11
1.75616e-11
1.70925e-11
1.66377e-11
1.61972e-11
1.57704e-11
1.53573e-11
1.49575e-11
1.45709e-11
1.41971e-11
1.38359e-11
1.34871e-11
1.31505e-11
1.28259e-11
1.25131e-11
1.22118e-11
1.19219e-11
1.16431e-11
1.13754e-11
1.11184e-11
1.08721e-11
1.06364e-11
1.04109e-11
1.01956e-11
9.99041e-12
9.79508e-12
9.60952e-12
9.43361e-12
9.26723e-12
9.11025e-12
8.96259e-12
8.82413e-12
8.69477e-12
8.57444e-12
8.46305e-12
8.36052e-12
8.26678e-12
8.18177e-12
8.10542e-12
8.03769e-12
7.97852e-12
7.92789e-12
7.88574e-12
7.85207e-12
7.82683e-12
7.81002e-12
7.80161e-12
2.74216e-11
8.22092e-11
1.36831e-10
1.9118e-10
2.45152e-10
2.98648e-10
3.51575e-10
4.03847e-10
4.55384e-10
5.06113e-10
5.55966e-10
6.04886e-10
6.52819e-10
6.99719e-10
7.45546e-10
7.90266e-10
8.33852e-10
8.76281e-10
9.17536e-10
9.57605e-10
9.96479e-10
1.03415e-09
1.07063e-09
1.10591e-09
1.14001e-09
1.17292e-09
1.20466e-09
1.23526e-09
1.26471e-09
1.29305e-09
1.32028e-09
1.34643e-09
1.37153e-09
1.39558e-09
1.41863e-09
1.44068e-09
1.46176e-09
1.4819e-09
1.50112e-09
1.51944e-09
1.53689e-09
1.55348e-09
1.56926e-09
1.58423e-09
1.59842e-09
1.61185e-09
1.62454e-09
1.63652e-09
1.6478e-09
1.6584e-09
1.66835e-09
1.67767e-09
1.68636e-09
1.69446e-09
1.70197e-09
1.70892e-09
1.71531e-09
1.72118e-09
1.72652e-09
1.73136e-09
1.73571e-09
1.73958e-09
1.74299e-09
1.74594e-09