/*--------------------------------*- C++ -*----------------------------------*\
  =========                 |
  \\      /  F ield         | OpenFOAM: The Open Source CFD Toolbox
   \\    /   O peration     | Website:  https://openfoam.org
    \\  /    A nd           | Version:  10
     \\/     M anipulation  |
\*---------------------------------------------------------------------------*/
FoamFile
{
    format      ascii;
    class       volScalarField;
    location    "0.7";
    object      Exp1;
}
// * * * * * * * * * * * * * * * * * * * * * * * * * * * * * * * * * * * * * //

dimensions      [0 0 0 0 0 0 0];

internalField   uniform 0;

boundaryField
{
    frontAndBack
    {
        type            empty;
    }
    inlet
    {
        type            calculated;
        value           uniform 0;
    }
    outlet
    {
        type            calculated;
        value           uniform 0;
    }
    substrate
    {
        type            calculated;
        value           nonuniform List<scalar> 
400
(
8.99307e-13
2.69318e-12
4.47602e-12
6.24297e-12
7.98981e-12
9.71288e-12
1.1409e-11
1.30752e-11
1.47091e-11
1.63087e-11
1.7872e-11
1.93975e-11
2.08841e-11
2.23307e-11
2.37366e-11
2.51013e-11
2.64245e-11
2.7706e-11
2.89459e-11
3.01443e-11
3.13015e-11
3.2418e-11
3.34943e-11
3.45309e-11
3.55287e-11
3.64882e-11
3.74103e-11
3.82959e-11
3.91458e-11
3.99608e-11
4.0742e-11
4.14901e-11
4.22062e-11
4.28911e-11
4.35458e-11
4.4171e-11
4.47679e-11
4.53371e-11
4.58796e-11
4.63961e-11
4.68876e-11
4.73548e-11
4.77985e-11
4.82194e-11
4.86183e-11
4.89959e-11
4.93527e-11
4.96896e-11
5.00071e-11
5.03058e-11
5.05863e-11
5.08493e-11
5.10951e-11
5.13244e-11
5.15377e-11
5.17354e-11
5.19179e-11
5.20858e-11
5.22395e-11
5.23793e-11
5.25057e-11
5.2619e-11
5.27196e-11
5.28079e-11
5.28842e-11
5.29487e-11
5.30019e-11
5.30439e-11
5.30752e-11
5.30959e-11
5.31063e-11
5.31067e-11
5.30974e-11
5.30785e-11
5.30503e-11
5.3013e-11
5.29668e-11
5.2912e-11
5.28486e-11
5.27771e-11
5.26974e-11
5.26098e-11
5.25145e-11
5.24116e-11
5.23014e-11
5.21839e-11
5.20593e-11
5.19279e-11
5.17896e-11
5.16448e-11
5.14935e-11
5.13359e-11
5.1172e-11
5.10022e-11
5.08264e-11
5.06448e-11
5.04576e-11
5.02648e-11
5.00667e-11
4.98633e-11
4.96547e-11
4.94411e-11
4.92225e-11
4.89992e-11
4.87712e-11
4.85386e-11
4.83015e-11
4.80602e-11
4.78145e-11
4.75648e-11
4.7311e-11
4.70534e-11
4.67919e-11
4.65267e-11
4.6258e-11
4.59857e-11
4.57101e-11
4.54312e-11
4.51491e-11
4.4864e-11
4.45759e-11
4.42848e-11
4.39911e-11
4.36946e-11
4.33955e-11
4.3094e-11
4.27901e-11
4.24838e-11
4.21754e-11
4.18648e-11
4.15523e-11
4.12378e-11
4.09215e-11
4.06034e-11
4.02837e-11
3.99624e-11
3.96396e-11
3.93155e-11
3.899e-11
3.86633e-11
3.83355e-11
3.80067e-11
3.76768e-11
3.73461e-11
3.70146e-11
3.66824e-11
3.63495e-11
3.6016e-11
3.56821e-11
3.53478e-11
3.50131e-11
3.46782e-11
3.43431e-11
3.40079e-11
3.36726e-11
3.33374e-11
3.30023e-11
3.26673e-11
3.23326e-11
3.19982e-11
3.16642e-11
3.13306e-11
3.09976e-11
3.06651e-11
3.03332e-11
3.0002e-11
2.96716e-11
2.93419e-11
2.90132e-11
2.86854e-11
2.83585e-11
2.80327e-11
2.7708e-11
2.73844e-11
2.7062e-11
2.67409e-11
2.6421e-11
2.61025e-11
2.57854e-11
2.54697e-11
2.51555e-11
2.48428e-11
2.45316e-11
2.42221e-11
2.39142e-11
2.3608e-11
2.33036e-11
2.30008e-11
2.26999e-11
2.24008e-11
2.21036e-11
2.18083e-11
2.15149e-11
2.12235e-11
2.0934e-11
2.06466e-11
2.03612e-11
2.00779e-11
1.97967e-11
1.95176e-11
1.92406e-11
1.89658e-11
1.86932e-11
1.84229e-11
1.81547e-11
1.78888e-11
1.76251e-11
1.73637e-11
1.71047e-11
1.68479e-11
1.65935e-11
1.63414e-11
1.60916e-11
1.58442e-11
1.55992e-11
1.53565e-11
1.51162e-11
1.48784e-11
1.46429e-11
1.44098e-11
1.41792e-11
1.39509e-11
1.37251e-11
1.35017e-11
1.32807e-11
1.30622e-11
1.28461e-11
1.26324e-11
1.24211e-11
1.22123e-11
1.20058e-11
1.18018e-11
1.16002e-11
1.1401e-11
1.12043e-11
1.10099e-11
1.08179e-11
1.06283e-11
1.04411e-11
1.02562e-11
1.00737e-11
9.8936e-12
9.71581e-12
9.54037e-12
9.36724e-12
9.19644e-12
9.02793e-12
8.86172e-12
8.69779e-12
8.53613e-12
8.37672e-12
8.21955e-12
8.06462e-12
7.91189e-12
7.76137e-12
7.61303e-12
7.46686e-12
7.32284e-12
7.18097e-12
7.04121e-12
6.90357e-12
6.76801e-12
6.63453e-12
6.50311e-12
6.37372e-12
6.24636e-12
6.121e-12
5.99764e-12
5.87624e-12
5.75679e-12
5.63927e-12
5.52367e-12
5.40996e-12
5.29813e-12
5.18816e-12
5.08003e-12
4.97372e-12
4.86922e-12
4.76649e-12
4.66553e-12
4.56631e-12
4.46881e-12
4.37302e-12
4.27892e-12
4.18648e-12
4.09569e-12
4.00653e-12
3.91897e-12
3.833e-12
3.7486e-12
3.66575e-12
3.58443e-12
3.50462e-12
3.4263e-12
3.34945e-12
3.27405e-12
3.20009e-12
3.12754e-12
3.05639e-12
2.98661e-12
2.91819e-12
2.85111e-12
2.78535e-12
2.72089e-12
2.65771e-12
2.5958e-12
2.53513e-12
2.47569e-12
2.41746e-12
2.36042e-12
2.30456e-12
2.24985e-12
2.19628e-12
2.14384e-12
2.09249e-12
2.04224e-12
1.99306e-12
1.94493e-12
1.89783e-12
1.85176e-12
1.80669e-12
1.76262e-12
1.71951e-12
1.67736e-12
1.63615e-12
1.59587e-12
1.5565e-12
1.51803e-12
1.48044e-12
1.44371e-12
1.40784e-12
1.3728e-12
1.33859e-12
1.30518e-12
1.27258e-12
1.24075e-12
1.2097e-12
1.1794e-12
1.14985e-12
1.12103e-12
1.09292e-12
1.06553e-12
1.03882e-12
1.0128e-12
9.87452e-13
9.62761e-13
9.38718e-13
9.15313e-13
8.92533e-13
8.7037e-13
8.48811e-13
8.27848e-13
8.07469e-13
7.87666e-13
7.68428e-13
7.49747e-13
7.31613e-13
7.14017e-13
6.96951e-13
6.80405e-13
6.64372e-13
6.48843e-13
6.33811e-13
6.19268e-13
6.05206e-13
5.91619e-13
5.78498e-13
5.65837e-13
5.5363e-13
5.41869e-13
5.30549e-13
5.19664e-13
5.09208e-13
4.99175e-13
4.89559e-13
4.80356e-13
4.71561e-13
4.63168e-13
4.55173e-13
4.47571e-13
4.40359e-13
4.33532e-13
4.27087e-13
4.21019e-13
4.15326e-13
4.10005e-13
4.05051e-13
4.00463e-13
3.96238e-13
3.92374e-13
3.88868e-13
3.85718e-13
3.82922e-13
3.8048e-13
3.78389e-13
3.76648e-13
3.75257e-13
3.74214e-13
3.73519e-13
3.73172e-13
)
;
    }
    Wall
    {
        type            calculated;
        value           nonuniform List<scalar> 
400
(
8.99309e-13
2.69318e-12
4.47603e-12
6.24298e-12
7.98982e-12
9.7129e-12
1.1409e-11
1.30752e-11
1.47092e-11
1.63087e-11
1.7872e-11
1.93975e-11
2.08841e-11
2.23307e-11
2.37366e-11
2.51013e-11
2.64245e-11
2.7706e-11
2.89459e-11
3.01443e-11
3.13015e-11
3.2418e-11
3.34943e-11
3.45309e-11
3.55286e-11
3.64882e-11
3.74103e-11
3.82959e-11
3.91458e-11
3.99608e-11
4.0742e-11
4.14901e-11
4.22062e-11
4.28911e-11
4.35457e-11
4.4171e-11
4.47678e-11
4.5337e-11
4.58795e-11
4.63961e-11
4.68876e-11
4.73548e-11
4.77985e-11
4.82194e-11
4.86183e-11
4.89958e-11
4.93526e-11
4.96895e-11
5.0007e-11
5.03057e-11
5.05863e-11
5.08492e-11
5.1095e-11
5.13243e-11
5.15376e-11
5.17352e-11
5.19178e-11
5.20857e-11
5.22394e-11
5.23792e-11
5.25056e-11
5.26189e-11
5.27195e-11
5.28078e-11
5.2884e-11
5.29486e-11
5.30017e-11
5.30438e-11
5.3075e-11
5.30957e-11
5.31062e-11
5.31066e-11
5.30972e-11
5.30783e-11
5.30501e-11
5.30128e-11
5.29666e-11
5.29118e-11
5.28485e-11
5.27769e-11
5.26972e-11
5.26096e-11
5.25143e-11
5.24115e-11
5.23012e-11
5.21837e-11
5.20592e-11
5.19277e-11
5.17895e-11
5.16446e-11
5.14933e-11
5.13357e-11
5.11719e-11
5.1002e-11
5.08262e-11
5.06447e-11
5.04574e-11
5.02647e-11
5.00665e-11
4.98631e-11
4.96545e-11
4.94409e-11
4.92224e-11
4.8999e-11
4.8771e-11
4.85384e-11
4.83014e-11
4.806e-11
4.78144e-11
4.75646e-11
4.73109e-11
4.70532e-11
4.67917e-11
4.65266e-11
4.62578e-11
4.59856e-11
4.571e-11
4.54311e-11
4.5149e-11
4.48638e-11
4.45757e-11
4.42847e-11
4.39909e-11
4.36944e-11
4.33954e-11
4.30938e-11
4.27899e-11
4.24837e-11
4.21752e-11
4.18647e-11
4.15521e-11
4.12376e-11
4.09213e-11
4.06033e-11
4.02835e-11
3.99622e-11
3.96395e-11
3.93153e-11
3.89899e-11
3.86632e-11
3.83354e-11
3.80065e-11
3.76767e-11
3.7346e-11
3.70145e-11
3.66822e-11
3.63494e-11
3.60159e-11
3.5682e-11
3.53477e-11
3.5013e-11
3.46781e-11
3.4343e-11
3.40077e-11
3.36725e-11
3.33373e-11
3.30021e-11
3.26672e-11
3.23325e-11
3.19981e-11
3.16641e-11
3.13305e-11
3.09974e-11
3.06649e-11
3.03331e-11
3.00019e-11
2.96715e-11
2.93418e-11
2.90131e-11
2.86853e-11
2.83584e-11
2.80326e-11
2.77079e-11
2.73843e-11
2.70619e-11
2.67408e-11
2.64209e-11
2.61024e-11
2.57853e-11
2.54696e-11
2.51554e-11
2.48427e-11
2.45315e-11
2.4222e-11
2.39141e-11
2.36079e-11
2.33035e-11
2.30008e-11
2.26998e-11
2.24008e-11
2.21035e-11
2.18082e-11
2.15148e-11
2.12234e-11
2.09339e-11
2.06465e-11
2.03611e-11
2.00778e-11
1.97966e-11
1.95175e-11
1.92406e-11
1.89658e-11
1.86932e-11
1.84228e-11
1.81546e-11
1.78887e-11
1.76251e-11
1.73637e-11
1.71046e-11
1.68478e-11
1.65934e-11
1.63413e-11
1.60915e-11
1.58441e-11
1.55991e-11
1.53564e-11
1.51162e-11
1.48783e-11
1.46428e-11
1.44098e-11
1.41791e-11
1.39509e-11
1.37251e-11
1.35017e-11
1.32807e-11
1.30621e-11
1.2846e-11
1.26323e-11
1.24211e-11
1.22122e-11
1.20058e-11
1.18018e-11
1.16002e-11
1.1401e-11
1.12042e-11
1.10098e-11
1.08178e-11
1.06282e-11
1.0441e-11
1.02562e-11
1.00737e-11
9.89356e-12
9.71578e-12
9.54033e-12
9.36721e-12
9.1964e-12
9.0279e-12
8.86169e-12
8.69776e-12
8.5361e-12
8.37669e-12
8.21952e-12
8.06459e-12
7.91186e-12
7.76134e-12
7.613e-12
7.46683e-12
7.32281e-12
7.18094e-12
7.04119e-12
6.90354e-12
6.76799e-12
6.63451e-12
6.50308e-12
6.3737e-12
6.24634e-12
6.12098e-12
5.99761e-12
5.87621e-12
5.75676e-12
5.63925e-12
5.52365e-12
5.40994e-12
5.29811e-12
5.18814e-12
5.08001e-12
4.97371e-12
4.8692e-12
4.76647e-12
4.66551e-12
4.56629e-12
4.4688e-12
4.37301e-12
4.2789e-12
4.18647e-12
4.09567e-12
4.00651e-12
3.91895e-12
3.83299e-12
3.74859e-12
3.66573e-12
3.58441e-12
3.5046e-12
3.42628e-12
3.34944e-12
3.27404e-12
3.20008e-12
3.12753e-12
3.05638e-12
2.9866e-12
2.91818e-12
2.8511e-12
2.78534e-12
2.72088e-12
2.6577e-12
2.59579e-12
2.53512e-12
2.47568e-12
2.41745e-12
2.36041e-12
2.30455e-12
2.24984e-12
2.19628e-12
2.14383e-12
2.09249e-12
2.04223e-12
1.99305e-12
1.94492e-12
1.89783e-12
1.85175e-12
1.80669e-12
1.76261e-12
1.7195e-12
1.67736e-12
1.63615e-12
1.59587e-12
1.5565e-12
1.51802e-12
1.48043e-12
1.4437e-12
1.40783e-12
1.37279e-12
1.33858e-12
1.30518e-12
1.27257e-12
1.24075e-12
1.2097e-12
1.1794e-12
1.14985e-12
1.12102e-12
1.09292e-12
1.06552e-12
1.03882e-12
1.0128e-12
9.87448e-13
9.62758e-13
9.38715e-13
9.1531e-13
8.9253e-13
8.70367e-13
8.48808e-13
8.27845e-13
8.07466e-13
7.87663e-13
7.68426e-13
7.49744e-13
7.3161e-13
7.14015e-13
6.96948e-13
6.80403e-13
6.6437e-13
6.48841e-13
6.33809e-13
6.19266e-13
6.05204e-13
5.91617e-13
5.78496e-13
5.65835e-13
5.53628e-13
5.41867e-13
5.30548e-13
5.19663e-13
5.09206e-13
4.99173e-13
4.89558e-13
4.80355e-13
4.71559e-13
4.63166e-13
4.55171e-13
4.4757e-13
4.40358e-13
4.33531e-13
4.27085e-13
4.21018e-13
4.15325e-13
4.10003e-13
4.0505e-13
4.00462e-13
3.96237e-13
3.92373e-13
3.88866e-13
3.85717e-13
3.82921e-13
3.80478e-13
3.78387e-13
3.76647e-13
3.75256e-13
3.74213e-13
3.73518e-13
3.73171e-13
)
;
    }
}


// ************************************************************************* //
