/*--------------------------------*- C++ -*----------------------------------*\
  =========                 |
  \\      /  F ield         | OpenFOAM: The Open Source CFD Toolbox
   \\    /   O peration     | Website:  https://openfoam.org
    \\  /    A nd           | Version:  10
     \\/     M anipulation  |
\*---------------------------------------------------------------------------*/
FoamFile
{
    format      ascii;
    class       volScalarField;
    location    "0.7";
    object      N1;
}
// * * * * * * * * * * * * * * * * * * * * * * * * * * * * * * * * * * * * * //

dimensions      [0 0 0 0 0 0 0];

internalField   nonuniform List<scalar> 
8000
(
6.82659e-12
2.04519e-11
3.40036e-11
4.74441e-11
6.07413e-11
7.38669e-11
8.6796e-11
9.95069e-11
1.1198e-10
1.242e-10
1.36151e-10
1.47823e-10
1.59204e-10
1.70287e-10
1.81066e-10
1.91537e-10
2.01695e-10
2.11541e-10
2.21072e-10
2.30291e-10
2.39199e-10
2.47798e-10
2.56093e-10
2.64087e-10
2.71785e-10
2.79192e-10
2.86314e-10
2.93157e-10
2.99728e-10
3.06032e-10
3.12077e-10
3.17868e-10
3.23414e-10
3.2872e-10
3.33794e-10
3.38642e-10
3.43271e-10
3.47688e-10
3.51898e-10
3.55909e-10
3.59726e-10
3.63355e-10
3.66803e-10
3.70074e-10
3.73176e-10
3.76112e-10
3.78888e-10
3.8151e-10
3.83981e-10
3.86307e-10
3.88493e-10
3.90541e-10
3.92458e-10
3.94246e-10
3.95909e-10
3.97452e-10
3.98878e-10
4.0019e-10
4.01392e-10
4.02486e-10
4.03477e-10
4.04366e-10
4.05156e-10
4.05851e-10
4.06452e-10
4.06963e-10
4.07385e-10
4.07722e-10
4.07974e-10
4.08145e-10
4.08237e-10
4.08251e-10
4.08189e-10
4.08053e-10
4.07845e-10
4.07567e-10
4.0722e-10
4.06806e-10
4.06326e-10
4.05783e-10
4.05177e-10
4.04509e-10
4.03782e-10
4.02996e-10
4.02154e-10
4.01255e-10
4.00302e-10
3.99295e-10
3.98237e-10
3.97127e-10
3.95967e-10
3.94758e-10
3.93501e-10
3.92198e-10
3.90849e-10
3.89456e-10
3.88018e-10
3.86539e-10
3.85017e-10
3.83455e-10
3.81853e-10
3.80212e-10
3.78533e-10
3.76817e-10
3.75065e-10
3.73278e-10
3.71456e-10
3.69601e-10
3.67714e-10
3.65794e-10
3.63844e-10
3.61863e-10
3.59853e-10
3.57815e-10
3.55749e-10
3.53656e-10
3.51537e-10
3.49393e-10
3.47224e-10
3.45032e-10
3.42816e-10
3.40579e-10
3.3832e-10
3.3604e-10
3.33741e-10
3.31422e-10
3.29085e-10
3.2673e-10
3.24359e-10
3.21971e-10
3.19567e-10
3.17149e-10
3.14716e-10
3.1227e-10
3.09812e-10
3.07341e-10
3.04859e-10
3.02366e-10
2.99863e-10
2.97351e-10
2.9483e-10
2.92301e-10
2.89764e-10
2.87221e-10
2.84672e-10
2.82117e-10
2.79557e-10
2.76992e-10
2.74424e-10
2.71853e-10
2.69279e-10
2.66703e-10
2.64126e-10
2.61548e-10
2.5897e-10
2.56392e-10
2.53814e-10
2.51239e-10
2.48664e-10
2.46093e-10
2.43524e-10
2.40958e-10
2.38397e-10
2.3584e-10
2.33287e-10
2.3074e-10
2.28199e-10
2.25664e-10
2.23136e-10
2.20614e-10
2.18101e-10
2.15595e-10
2.13098e-10
2.10609e-10
2.0813e-10
2.0566e-10
2.032e-10
2.0075e-10
1.98311e-10
1.95883e-10
1.93467e-10
1.91062e-10
1.88669e-10
1.86288e-10
1.83921e-10
1.81566e-10
1.79224e-10
1.76896e-10
1.74582e-10
1.72281e-10
1.69996e-10
1.67724e-10
1.65468e-10
1.63226e-10
1.61e-10
1.5879e-10
1.56595e-10
1.54416e-10
1.52253e-10
1.50107e-10
1.47977e-10
1.45863e-10
1.43767e-10
1.41687e-10
1.39625e-10
1.3758e-10
1.35552e-10
1.33542e-10
1.31549e-10
1.29575e-10
1.27618e-10
1.25679e-10
1.23758e-10
1.21855e-10
1.19971e-10
1.18105e-10
1.16257e-10
1.14427e-10
1.12616e-10
1.10824e-10
1.0905e-10
1.07295e-10
1.05558e-10
1.0384e-10
1.0214e-10
1.00459e-10
9.87972e-11
9.71537e-11
9.55288e-11
9.39226e-11
9.2335e-11
9.0766e-11
8.92155e-11
8.76836e-11
8.61702e-11
8.46753e-11
8.31987e-11
8.17405e-11
8.03006e-11
7.8879e-11
7.74755e-11
7.60902e-11
7.47229e-11
7.33735e-11
7.20421e-11
7.07284e-11
6.94325e-11
6.81542e-11
6.68934e-11
6.56501e-11
6.44241e-11
6.32153e-11
6.20237e-11
6.08492e-11
5.96915e-11
5.85506e-11
5.74265e-11
5.63189e-11
5.52277e-11
5.41529e-11
5.30943e-11
5.20518e-11
5.10252e-11
5.00144e-11
4.90193e-11
4.80398e-11
4.70757e-11
4.61269e-11
4.51932e-11
4.42746e-11
4.33708e-11
4.24817e-11
4.16072e-11
4.07471e-11
3.99014e-11
3.90698e-11
3.82522e-11
3.74484e-11
3.66584e-11
3.58819e-11
3.51188e-11
3.4369e-11
3.36323e-11
3.29085e-11
3.21976e-11
3.14993e-11
3.08136e-11
3.01402e-11
2.9479e-11
2.88299e-11
2.81927e-11
2.75673e-11
2.69535e-11
2.63511e-11
2.57601e-11
2.51802e-11
2.46114e-11
2.40535e-11
2.35062e-11
2.29696e-11
2.24434e-11
2.19275e-11
2.14217e-11
2.09259e-11
2.04401e-11
1.99639e-11
1.94973e-11
1.90402e-11
1.85923e-11
1.81537e-11
1.7724e-11
1.73033e-11
1.68913e-11
1.64879e-11
1.60931e-11
1.57066e-11
1.53283e-11
1.49581e-11
1.4596e-11
1.42416e-11
1.3895e-11
1.3556e-11
1.32245e-11
1.29003e-11
1.25834e-11
1.22736e-11
1.19708e-11
1.16749e-11
1.13858e-11
1.11034e-11
1.08275e-11
1.0558e-11
1.02949e-11
1.0038e-11
9.7872e-12
9.54246e-12
9.30363e-12
9.07061e-12
8.84332e-12
8.62165e-12
8.40551e-12
8.1948e-12
7.98943e-12
7.78931e-12
7.59434e-12
7.40445e-12
7.21954e-12
7.03953e-12
6.86434e-12
6.69388e-12
6.52808e-12
6.36685e-12
6.21012e-12
6.05782e-12
5.90987e-12
5.76619e-12
5.62672e-12
5.4914e-12
5.36014e-12
5.23289e-12
5.10958e-12
4.99016e-12
4.87455e-12
4.7627e-12
4.65455e-12
4.55005e-12
4.44914e-12
4.35177e-12
4.25788e-12
4.16743e-12
4.08038e-12
3.99666e-12
3.91624e-12
3.83908e-12
3.76513e-12
3.69435e-12
3.6267e-12
3.56215e-12
3.50066e-12
3.4422e-12
3.38673e-12
3.33423e-12
3.28466e-12
3.238e-12
3.19421e-12
3.15328e-12
3.11519e-12
3.0799e-12
3.04741e-12
3.01769e-12
2.99072e-12
2.9665e-12
2.945e-12
2.92621e-12
2.91013e-12
2.89674e-12
2.88604e-12
2.87802e-12
2.87268e-12
2.87001e-12
6.89647e-12
2.06676e-11
3.43765e-11
4.79873e-11
6.14681e-11
7.47905e-11
8.79292e-11
1.00862e-10
1.13569e-10
1.26033e-10
1.38238e-10
1.50172e-10
1.61824e-10
1.73185e-10
1.84247e-10
1.95006e-10
2.05457e-10
2.15597e-10
2.25425e-10
2.34941e-10
2.44147e-10
2.53043e-10
2.61632e-10
2.69918e-10
2.77906e-10
2.85599e-10
2.93002e-10
3.00122e-10
3.06964e-10
3.13534e-10
3.19838e-10
3.25883e-10
3.31675e-10
3.37221e-10
3.42527e-10
3.47601e-10
3.52448e-10
3.57076e-10
3.6149e-10
3.65696e-10
3.69702e-10
3.73513e-10
3.77135e-10
3.80574e-10
3.83836e-10
3.86925e-10
3.89848e-10
3.92609e-10
3.95213e-10
3.97666e-10
3.99971e-10
4.02134e-10
4.04158e-10
4.06048e-10
4.07808e-10
4.09441e-10
4.10952e-10
4.12344e-10
4.13621e-10
4.14785e-10
4.1584e-10
4.16789e-10
4.17634e-10
4.1838e-10
4.19028e-10
4.19581e-10
4.20042e-10
4.20413e-10
4.20696e-10
4.20894e-10
4.21009e-10
4.21042e-10
4.20997e-10
4.20874e-10
4.20676e-10
4.20404e-10
4.20061e-10
4.19648e-10
4.19166e-10
4.18618e-10
4.18004e-10
4.17327e-10
4.16587e-10
4.15786e-10
4.14926e-10
4.14008e-10
4.13032e-10
4.12001e-10
4.10916e-10
4.09778e-10
4.08588e-10
4.07346e-10
4.06056e-10
4.04716e-10
4.03329e-10
4.01896e-10
4.00418e-10
3.98895e-10
3.97329e-10
3.9572e-10
3.94071e-10
3.92381e-10
3.90651e-10
3.88883e-10
3.87078e-10
3.85236e-10
3.83359e-10
3.81447e-10
3.79501e-10
3.77522e-10
3.75511e-10
3.73468e-10
3.71396e-10
3.69294e-10
3.67163e-10
3.65004e-10
3.62819e-10
3.60607e-10
3.5837e-10
3.56108e-10
3.53823e-10
3.51514e-10
3.49184e-10
3.46832e-10
3.44459e-10
3.42067e-10
3.39656e-10
3.37226e-10
3.34779e-10
3.32314e-10
3.29834e-10
3.27339e-10
3.24829e-10
3.22304e-10
3.19767e-10
3.17218e-10
3.14656e-10
3.12083e-10
3.095e-10
3.06908e-10
3.04306e-10
3.01696e-10
2.99078e-10
2.96453e-10
2.93822e-10
2.91185e-10
2.88543e-10
2.85897e-10
2.83246e-10
2.80592e-10
2.77936e-10
2.75278e-10
2.72618e-10
2.69957e-10
2.67296e-10
2.64635e-10
2.61975e-10
2.59316e-10
2.5666e-10
2.54005e-10
2.51354e-10
2.48706e-10
2.46062e-10
2.43423e-10
2.40788e-10
2.3816e-10
2.35537e-10
2.3292e-10
2.30311e-10
2.27708e-10
2.25114e-10
2.22528e-10
2.1995e-10
2.17381e-10
2.14822e-10
2.12273e-10
2.09734e-10
2.07206e-10
2.04688e-10
2.02182e-10
1.99688e-10
1.97206e-10
1.94736e-10
1.92279e-10
1.89835e-10
1.87404e-10
1.84987e-10
1.82584e-10
1.80196e-10
1.77821e-10
1.75462e-10
1.73118e-10
1.70789e-10
1.68475e-10
1.66178e-10
1.63896e-10
1.61631e-10
1.59382e-10
1.57149e-10
1.54934e-10
1.52735e-10
1.50554e-10
1.4839e-10
1.46244e-10
1.44115e-10
1.42004e-10
1.39911e-10
1.37836e-10
1.3578e-10
1.33741e-10
1.31722e-10
1.2972e-10
1.27738e-10
1.25774e-10
1.23829e-10
1.21903e-10
1.19995e-10
1.18107e-10
1.16238e-10
1.14388e-10
1.12557e-10
1.10745e-10
1.08952e-10
1.07179e-10
1.05425e-10
1.0369e-10
1.01974e-10
1.00278e-10
9.86009e-11
9.6943e-11
9.53043e-11
9.36849e-11
9.20845e-11
9.05034e-11
8.89413e-11
8.73983e-11
8.58742e-11
8.43691e-11
8.28829e-11
8.14156e-11
7.9967e-11
7.85371e-11
7.71258e-11
7.57331e-11
7.43588e-11
7.30029e-11
7.16653e-11
7.03459e-11
6.90446e-11
6.77613e-11
6.64959e-11
6.52482e-11
6.40183e-11
6.2806e-11
6.16111e-11
6.04335e-11
5.92732e-11
5.813e-11
5.70037e-11
5.58944e-11
5.48017e-11
5.37257e-11
5.26661e-11
5.16228e-11
5.05957e-11
4.95847e-11
4.85896e-11
4.76103e-11
4.66466e-11
4.56984e-11
4.47655e-11
4.38478e-11
4.29452e-11
4.20575e-11
4.11845e-11
4.03262e-11
3.94823e-11
3.86527e-11
3.78372e-11
3.70358e-11
3.62481e-11
3.54742e-11
3.47138e-11
3.39668e-11
3.3233e-11
3.25123e-11
3.18045e-11
3.11094e-11
3.0427e-11
2.9757e-11
2.90993e-11
2.84538e-11
2.78203e-11
2.71985e-11
2.65885e-11
2.599e-11
2.54029e-11
2.4827e-11
2.42621e-11
2.37082e-11
2.31651e-11
2.26326e-11
2.21106e-11
2.15989e-11
2.10974e-11
2.06059e-11
2.01243e-11
1.96525e-11
1.91902e-11
1.87374e-11
1.8294e-11
1.78597e-11
1.74345e-11
1.70181e-11
1.66106e-11
1.62117e-11
1.58212e-11
1.54392e-11
1.50653e-11
1.46996e-11
1.43419e-11
1.3992e-11
1.36498e-11
1.33152e-11
1.29881e-11
1.26683e-11
1.23558e-11
1.20504e-11
1.1752e-11
1.14604e-11
1.11756e-11
1.08975e-11
1.06259e-11
1.03608e-11
1.01019e-11
9.84932e-12
9.60281e-12
9.36231e-12
9.12771e-12
8.89891e-12
8.67582e-12
8.45833e-12
8.24636e-12
8.0398e-12
7.83856e-12
7.64256e-12
7.45171e-12
7.26591e-12
7.08508e-12
6.90915e-12
6.73801e-12
6.5716e-12
6.40983e-12
6.25263e-12
6.09992e-12
5.95162e-12
5.80767e-12
5.66799e-12
5.53251e-12
5.40117e-12
5.2739e-12
5.15063e-12
5.0313e-12
4.91586e-12
4.80423e-12
4.69637e-12
4.59222e-12
4.49171e-12
4.39481e-12
4.30145e-12
4.21159e-12
4.12519e-12
4.04218e-12
3.96254e-12
3.88621e-12
3.81315e-12
3.74333e-12
3.6767e-12
3.61324e-12
3.5529e-12
3.49564e-12
3.44145e-12
3.39029e-12
3.34212e-12
3.29693e-12
3.25469e-12
3.21537e-12
3.17895e-12
3.14541e-12
3.11473e-12
3.0869e-12
3.06189e-12
3.0397e-12
3.02031e-12
3.00372e-12
2.9899e-12
2.97885e-12
2.97058e-12
2.96506e-12
2.9623e-12
6.96503e-12
2.08763e-11
3.47324e-11
4.84997e-11
6.21472e-11
7.5647e-11
8.89739e-11
1.02105e-10
1.1502e-10
1.27701e-10
1.40132e-10
1.523e-10
1.64193e-10
1.758e-10
1.87115e-10
1.9813e-10
2.0884e-10
2.19242e-10
2.29334e-10
2.39116e-10
2.48586e-10
2.57746e-10
2.66598e-10
2.75145e-10
2.83391e-10
2.91339e-10
2.98993e-10
3.0636e-10
3.13444e-10
3.20251e-10
3.26788e-10
3.33059e-10
3.39072e-10
3.44832e-10
3.50347e-10
3.55623e-10
3.60666e-10
3.65482e-10
3.70079e-10
3.74462e-10
3.78637e-10
3.82611e-10
3.8639e-10
3.89979e-10
3.93385e-10
3.96612e-10
3.99666e-10
4.02553e-10
4.05277e-10
4.07843e-10
4.10256e-10
4.12522e-10
4.14643e-10
4.16625e-10
4.18472e-10
4.20187e-10
4.21775e-10
4.23239e-10
4.24582e-10
4.25809e-10
4.26923e-10
4.27926e-10
4.28822e-10
4.29613e-10
4.30304e-10
4.30895e-10
4.31391e-10
4.31793e-10
4.32104e-10
4.32326e-10
4.32462e-10
4.32513e-10
4.32482e-10
4.32372e-10
4.32183e-10
4.31917e-10
4.31578e-10
4.31165e-10
4.30682e-10
4.30129e-10
4.29509e-10
4.28823e-10
4.28072e-10
4.27257e-10
4.26382e-10
4.25446e-10
4.24451e-10
4.23398e-10
4.2229e-10
4.21126e-10
4.19908e-10
4.18638e-10
4.17317e-10
4.15945e-10
4.14524e-10
4.13056e-10
4.1154e-10
4.09979e-10
4.08373e-10
4.06723e-10
4.05031e-10
4.03297e-10
4.01522e-10
3.99708e-10
3.97854e-10
3.95964e-10
3.94036e-10
3.92073e-10
3.90075e-10
3.88042e-10
3.85977e-10
3.83879e-10
3.8175e-10
3.79591e-10
3.77402e-10
3.75185e-10
3.72939e-10
3.70667e-10
3.68369e-10
3.66045e-10
3.63697e-10
3.61325e-10
3.5893e-10
3.56513e-10
3.54075e-10
3.51617e-10
3.49139e-10
3.46642e-10
3.44127e-10
3.41594e-10
3.39045e-10
3.3648e-10
3.33901e-10
3.31306e-10
3.28699e-10
3.26078e-10
3.23445e-10
3.20801e-10
3.18146e-10
3.15482e-10
3.12807e-10
3.10125e-10
3.07434e-10
3.04736e-10
3.02032e-10
2.99321e-10
2.96605e-10
2.93885e-10
2.91161e-10
2.88433e-10
2.85702e-10
2.8297e-10
2.80236e-10
2.77501e-10
2.74765e-10
2.7203e-10
2.69296e-10
2.66563e-10
2.63832e-10
2.61104e-10
2.58378e-10
2.55657e-10
2.52939e-10
2.50226e-10
2.47518e-10
2.44816e-10
2.42119e-10
2.3943e-10
2.36747e-10
2.34072e-10
2.31405e-10
2.28747e-10
2.26097e-10
2.23457e-10
2.20826e-10
2.18206e-10
2.15596e-10
2.12997e-10
2.10409e-10
2.07833e-10
2.05269e-10
2.02718e-10
2.00179e-10
1.97653e-10
1.95141e-10
1.92642e-10
1.90158e-10
1.87688e-10
1.85232e-10
1.82792e-10
1.80366e-10
1.77957e-10
1.75562e-10
1.73184e-10
1.70822e-10
1.68477e-10
1.66148e-10
1.63836e-10
1.61542e-10
1.59264e-10
1.57004e-10
1.54762e-10
1.52538e-10
1.50331e-10
1.48143e-10
1.45973e-10
1.43822e-10
1.41689e-10
1.39575e-10
1.3748e-10
1.35403e-10
1.33346e-10
1.31308e-10
1.29289e-10
1.2729e-10
1.2531e-10
1.23349e-10
1.21408e-10
1.19487e-10
1.17585e-10
1.15703e-10
1.1384e-10
1.11998e-10
1.10175e-10
1.08372e-10
1.06588e-10
1.04825e-10
1.03081e-10
1.01357e-10
9.96527e-11
9.79682e-11
9.63035e-11
9.46584e-11
9.30331e-11
9.14273e-11
8.98412e-11
8.82745e-11
8.67274e-11
8.51996e-11
8.36913e-11
8.22022e-11
8.07323e-11
7.92816e-11
7.78499e-11
7.64372e-11
7.50434e-11
7.36684e-11
7.23122e-11
7.09745e-11
6.96553e-11
6.83545e-11
6.7072e-11
6.58077e-11
6.45615e-11
6.33332e-11
6.21227e-11
6.093e-11
5.97548e-11
5.85971e-11
5.74567e-11
5.63335e-11
5.52274e-11
5.41381e-11
5.30657e-11
5.20099e-11
5.09707e-11
4.99477e-11
4.8941e-11
4.79504e-11
4.69757e-11
4.60168e-11
4.50734e-11
4.41456e-11
4.32331e-11
4.23357e-11
4.14534e-11
4.05859e-11
3.97331e-11
3.88948e-11
3.8071e-11
3.72613e-11
3.64658e-11
3.56841e-11
3.49162e-11
3.41619e-11
3.34211e-11
3.26935e-11
3.1979e-11
3.12775e-11
3.05888e-11
2.99127e-11
2.92491e-11
2.85979e-11
2.79588e-11
2.73317e-11
2.67165e-11
2.61129e-11
2.55209e-11
2.49403e-11
2.43709e-11
2.38126e-11
2.32652e-11
2.27286e-11
2.22026e-11
2.16871e-11
2.11819e-11
2.06868e-11
2.02018e-11
1.97266e-11
1.92612e-11
1.88053e-11
1.83589e-11
1.79218e-11
1.74938e-11
1.70749e-11
1.66648e-11
1.62635e-11
1.58707e-11
1.54864e-11
1.51105e-11
1.47427e-11
1.4383e-11
1.40313e-11
1.36874e-11
1.33511e-11
1.30224e-11
1.27012e-11
1.23872e-11
1.20804e-11
1.17808e-11
1.1488e-11
1.12021e-11
1.09229e-11
1.06504e-11
1.03843e-11
1.01246e-11
9.87123e-12
9.624e-12
9.38284e-12
9.14765e-12
8.91832e-12
8.69475e-12
8.47685e-12
8.26452e-12
8.05766e-12
7.85619e-12
7.66e-12
7.469e-12
7.28312e-12
7.10227e-12
6.92635e-12
6.75528e-12
6.58899e-12
6.4274e-12
6.27042e-12
6.11798e-12
5.97e-12
5.82642e-12
5.68716e-12
5.55214e-12
5.42131e-12
5.2946e-12
5.17194e-12
5.05326e-12
4.93852e-12
4.82764e-12
4.72057e-12
4.61726e-12
4.51765e-12
4.42168e-12
4.32931e-12
4.24049e-12
4.15517e-12
4.07329e-12
3.99483e-12
3.91973e-12
3.84796e-12
3.77947e-12
3.71423e-12
3.6522e-12
3.59335e-12
3.53765e-12
3.48505e-12
3.43554e-12
3.38909e-12
3.34566e-12
3.30524e-12
3.2678e-12
3.23333e-12
3.20179e-12
3.17318e-12
3.14748e-12
3.12467e-12
3.10474e-12
3.08767e-12
3.07347e-12
3.06212e-12
3.05361e-12
3.04794e-12
3.0451e-12
7.02902e-12
2.107e-11
3.50607e-11
4.89691e-11
6.27657e-11
7.6423e-11
8.99159e-11
1.03222e-10
1.1632e-10
1.29191e-10
1.41821e-10
1.54193e-10
1.66296e-10
1.7812e-10
1.89655e-10
2.00894e-10
2.11831e-10
2.22463e-10
2.32787e-10
2.428e-10
2.52502e-10
2.61894e-10
2.70976e-10
2.79752e-10
2.88224e-10
2.96396e-10
3.04271e-10
3.11855e-10
3.19152e-10
3.26168e-10
3.32908e-10
3.39379e-10
3.45586e-10
3.51535e-10
3.57234e-10
3.62688e-10
3.67903e-10
3.72886e-10
3.77644e-10
3.82182e-10
3.86507e-10
3.90626e-10
3.94543e-10
3.98265e-10
4.01797e-10
4.05146e-10
4.08316e-10
4.11314e-10
4.14144e-10
4.16811e-10
4.1932e-10
4.21676e-10
4.23884e-10
4.25947e-10
4.2787e-10
4.29658e-10
4.31313e-10
4.32841e-10
4.34245e-10
4.35527e-10
4.36693e-10
4.37744e-10
4.38684e-10
4.39517e-10
4.40245e-10
4.4087e-10
4.41397e-10
4.41826e-10
4.42162e-10
4.42406e-10
4.4256e-10
4.42628e-10
4.4261e-10
4.4251e-10
4.42329e-10
4.4207e-10
4.41733e-10
4.41322e-10
4.40837e-10
4.40281e-10
4.39655e-10
4.38961e-10
4.382e-10
4.37374e-10
4.36485e-10
4.35534e-10
4.34522e-10
4.3345e-10
4.32321e-10
4.31135e-10
4.29893e-10
4.28598e-10
4.27249e-10
4.25849e-10
4.24399e-10
4.22899e-10
4.2135e-10
4.19755e-10
4.18114e-10
4.16428e-10
4.14698e-10
4.12925e-10
4.1111e-10
4.09255e-10
4.0736e-10
4.05426e-10
4.03454e-10
4.01446e-10
3.99402e-10
3.97322e-10
3.95209e-10
3.93063e-10
3.90884e-10
3.88674e-10
3.86434e-10
3.84165e-10
3.81867e-10
3.79541e-10
3.77189e-10
3.7481e-10
3.72406e-10
3.69978e-10
3.67527e-10
3.65053e-10
3.62557e-10
3.6004e-10
3.57503e-10
3.54947e-10
3.52372e-10
3.4978e-10
3.4717e-10
3.44544e-10
3.41903e-10
3.39247e-10
3.36577e-10
3.33894e-10
3.31199e-10
3.28491e-10
3.25773e-10
3.23045e-10
3.20307e-10
3.1756e-10
3.14805e-10
3.12042e-10
3.09273e-10
3.06498e-10
3.03717e-10
3.00932e-10
2.98142e-10
2.95349e-10
2.92553e-10
2.89755e-10
2.86956e-10
2.84155e-10
2.81354e-10
2.78554e-10
2.75754e-10
2.72956e-10
2.70159e-10
2.67365e-10
2.64575e-10
2.61788e-10
2.59005e-10
2.56227e-10
2.53454e-10
2.50687e-10
2.47926e-10
2.45172e-10
2.42425e-10
2.39686e-10
2.36955e-10
2.34233e-10
2.3152e-10
2.28816e-10
2.26123e-10
2.23439e-10
2.20767e-10
2.18105e-10
2.15456e-10
2.12818e-10
2.10192e-10
2.0758e-10
2.0498e-10
2.02394e-10
1.99821e-10
1.97263e-10
1.94719e-10
1.92189e-10
1.89675e-10
1.87176e-10
1.84692e-10
1.82225e-10
1.79773e-10
1.77338e-10
1.7492e-10
1.72518e-10
1.70133e-10
1.67766e-10
1.65416e-10
1.63084e-10
1.6077e-10
1.58474e-10
1.56196e-10
1.53937e-10
1.51696e-10
1.49474e-10
1.47271e-10
1.45088e-10
1.42923e-10
1.40777e-10
1.38651e-10
1.36545e-10
1.34458e-10
1.3239e-10
1.30343e-10
1.28316e-10
1.26308e-10
1.2432e-10
1.22353e-10
1.20405e-10
1.18478e-10
1.16571e-10
1.14684e-10
1.12817e-10
1.10971e-10
1.09145e-10
1.07339e-10
1.05553e-10
1.03788e-10
1.02043e-10
1.00318e-10
9.86134e-11
9.69289e-11
9.52645e-11
9.36203e-11
9.19961e-11
9.03919e-11
8.88076e-11
8.72432e-11
8.56987e-11
8.41739e-11
8.26687e-11
8.11832e-11
7.97172e-11
7.82706e-11
7.68434e-11
7.54354e-11
7.40466e-11
7.26769e-11
7.1326e-11
6.99941e-11
6.86808e-11
6.73862e-11
6.611e-11
6.48523e-11
6.36128e-11
6.23914e-11
6.11881e-11
6.00026e-11
5.88348e-11
5.76847e-11
5.6552e-11
5.54367e-11
5.43385e-11
5.32574e-11
5.21932e-11
5.11458e-11
5.01149e-11
4.91005e-11
4.81025e-11
4.71205e-11
4.61546e-11
4.52045e-11
4.42701e-11
4.33512e-11
4.24477e-11
4.15594e-11
4.06861e-11
3.98278e-11
3.89841e-11
3.81551e-11
3.73404e-11
3.654e-11
3.57537e-11
3.49813e-11
3.42227e-11
3.34777e-11
3.2746e-11
3.20277e-11
3.13225e-11
3.06302e-11
2.99507e-11
2.92838e-11
2.86294e-11
2.79873e-11
2.73573e-11
2.67393e-11
2.61331e-11
2.55385e-11
2.49555e-11
2.43838e-11
2.38233e-11
2.32738e-11
2.27352e-11
2.22073e-11
2.16899e-11
2.1183e-11
2.06863e-11
2.01998e-11
1.97232e-11
1.92564e-11
1.87993e-11
1.83517e-11
1.79134e-11
1.74844e-11
1.70645e-11
1.66535e-11
1.62514e-11
1.58579e-11
1.54729e-11
1.50963e-11
1.4728e-11
1.43679e-11
1.40157e-11
1.36714e-11
1.33348e-11
1.30058e-11
1.26843e-11
1.23702e-11
1.20633e-11
1.17636e-11
1.14708e-11
1.11849e-11
1.09058e-11
1.06334e-11
1.03675e-11
1.0108e-11
9.85484e-12
9.6079e-12
9.36706e-12
9.13223e-12
8.90331e-12
8.68018e-12
8.46275e-12
8.25093e-12
8.04462e-12
7.84373e-12
7.64816e-12
7.45782e-12
7.27262e-12
7.09248e-12
6.91732e-12
6.74704e-12
6.58157e-12
6.42082e-12
6.26472e-12
6.1132e-12
5.96617e-12
5.82357e-12
5.68532e-12
5.55135e-12
5.42159e-12
5.29599e-12
5.17447e-12
5.05697e-12
4.94344e-12
4.8338e-12
4.72801e-12
4.62601e-12
4.52774e-12
4.43316e-12
4.3422e-12
4.25483e-12
4.171e-12
4.09065e-12
4.01375e-12
3.94026e-12
3.87013e-12
3.80332e-12
3.73981e-12
3.67954e-12
3.6225e-12
3.56864e-12
3.51795e-12
3.47038e-12
3.42591e-12
3.38452e-12
3.34619e-12
3.31088e-12
3.27859e-12
3.24929e-12
3.22297e-12
3.19962e-12
3.17921e-12
3.16173e-12
3.14719e-12
3.13556e-12
3.12685e-12
3.12105e-12
3.11814e-12
7.08649e-12
2.12436e-11
3.53536e-11
4.93864e-11
6.33132e-11
7.71073e-11
9.07439e-11
1.042e-10
1.17456e-10
1.30491e-10
1.43291e-10
1.55839e-10
1.68123e-10
1.80131e-10
1.91855e-10
2.03286e-10
2.14419e-10
2.25248e-10
2.35769e-10
2.45981e-10
2.55883e-10
2.65473e-10
2.74754e-10
2.83726e-10
2.92393e-10
3.00757e-10
3.08822e-10
3.16592e-10
3.24073e-10
3.31268e-10
3.38184e-10
3.44826e-10
3.51201e-10
3.57313e-10
3.6317e-10
3.68777e-10
3.74141e-10
3.79268e-10
3.84165e-10
3.88838e-10
3.93292e-10
3.97535e-10
4.01571e-10
4.05408e-10
4.09051e-10
4.12505e-10
4.15776e-10
4.18869e-10
4.21791e-10
4.24545e-10
4.27137e-10
4.29571e-10
4.31853e-10
4.33987e-10
4.35977e-10
4.37827e-10
4.39542e-10
4.41125e-10
4.4258e-10
4.43911e-10
4.45121e-10
4.46214e-10
4.47193e-10
4.48061e-10
4.48821e-10
4.49477e-10
4.5003e-10
4.50484e-10
4.50841e-10
4.51104e-10
4.51274e-10
4.51356e-10
4.5135e-10
4.51259e-10
4.51086e-10
4.50831e-10
4.50497e-10
4.50087e-10
4.49601e-10
4.49042e-10
4.48411e-10
4.47711e-10
4.46942e-10
4.46106e-10
4.45205e-10
4.4424e-10
4.43213e-10
4.42125e-10
4.40978e-10
4.39773e-10
4.38511e-10
4.37194e-10
4.35822e-10
4.34397e-10
4.32921e-10
4.31394e-10
4.29818e-10
4.28193e-10
4.26522e-10
4.24804e-10
4.23042e-10
4.21236e-10
4.19387e-10
4.17496e-10
4.15564e-10
4.13593e-10
4.11584e-10
4.09536e-10
4.07452e-10
4.05332e-10
4.03178e-10
4.00989e-10
3.98768e-10
3.96515e-10
3.94231e-10
3.91916e-10
3.89573e-10
3.87201e-10
3.84802e-10
3.82376e-10
3.79924e-10
3.77448e-10
3.74948e-10
3.72424e-10
3.69879e-10
3.67312e-10
3.64724e-10
3.62116e-10
3.5949e-10
3.56845e-10
3.54183e-10
3.51505e-10
3.4881e-10
3.46101e-10
3.43378e-10
3.40641e-10
3.37891e-10
3.35129e-10
3.32356e-10
3.29573e-10
3.2678e-10
3.23978e-10
3.21167e-10
3.18349e-10
3.15524e-10
3.12693e-10
3.09856e-10
3.07014e-10
3.04168e-10
3.01319e-10
2.98467e-10
2.95612e-10
2.92756e-10
2.89899e-10
2.87042e-10
2.84185e-10
2.81328e-10
2.78474e-10
2.75621e-10
2.72771e-10
2.69923e-10
2.6708e-10
2.64241e-10
2.61407e-10
2.58578e-10
2.55755e-10
2.52939e-10
2.50129e-10
2.47327e-10
2.44532e-10
2.41746e-10
2.38969e-10
2.36201e-10
2.33442e-10
2.30694e-10
2.27957e-10
2.2523e-10
2.22515e-10
2.19812e-10
2.17121e-10
2.14442e-10
2.11777e-10
2.09124e-10
2.06486e-10
2.03861e-10
2.01251e-10
1.98656e-10
1.96075e-10
1.9351e-10
1.9096e-10
1.88427e-10
1.85909e-10
1.83408e-10
1.80924e-10
1.78456e-10
1.76006e-10
1.73573e-10
1.71158e-10
1.68761e-10
1.66382e-10
1.64021e-10
1.61678e-10
1.59355e-10
1.5705e-10
1.54764e-10
1.52497e-10
1.50249e-10
1.48021e-10
1.45813e-10
1.43624e-10
1.41455e-10
1.39305e-10
1.37176e-10
1.35067e-10
1.32978e-10
1.3091e-10
1.28862e-10
1.26834e-10
1.24827e-10
1.2284e-10
1.20874e-10
1.18928e-10
1.17003e-10
1.15098e-10
1.13215e-10
1.11352e-10
1.09509e-10
1.07688e-10
1.05887e-10
1.04106e-10
1.02346e-10
1.00607e-10
9.88887e-11
9.71907e-11
9.55132e-11
9.38562e-11
9.22195e-11
9.06032e-11
8.90072e-11
8.74314e-11
8.58758e-11
8.43402e-11
8.28247e-11
8.1329e-11
7.98532e-11
7.83971e-11
7.69607e-11
7.55438e-11
7.41463e-11
7.27682e-11
7.14093e-11
7.00695e-11
6.87487e-11
6.74467e-11
6.61636e-11
6.4899e-11
6.36529e-11
6.24253e-11
6.12158e-11
6.00244e-11
5.88511e-11
5.76955e-11
5.65576e-11
5.54372e-11
5.43343e-11
5.32485e-11
5.21799e-11
5.11282e-11
5.00933e-11
4.90751e-11
4.80733e-11
4.70878e-11
4.61185e-11
4.51652e-11
4.42277e-11
4.33059e-11
4.23997e-11
4.15088e-11
4.0633e-11
3.97724e-11
3.89265e-11
3.80954e-11
3.72788e-11
3.64766e-11
3.56886e-11
3.49147e-11
3.41545e-11
3.34081e-11
3.26753e-11
3.19558e-11
3.12495e-11
3.05563e-11
2.98759e-11
2.92083e-11
2.85532e-11
2.79104e-11
2.72799e-11
2.66615e-11
2.60549e-11
2.54601e-11
2.48768e-11
2.4305e-11
2.37444e-11
2.31948e-11
2.26563e-11
2.21285e-11
2.16113e-11
2.11046e-11
2.06082e-11
2.0122e-11
1.96457e-11
1.91794e-11
1.87227e-11
1.82756e-11
1.7838e-11
1.74095e-11
1.69903e-11
1.658e-11
1.61785e-11
1.57858e-11
1.54016e-11
1.50258e-11
1.46584e-11
1.42991e-11
1.39478e-11
1.36044e-11
1.32688e-11
1.29408e-11
1.26203e-11
1.23072e-11
1.20014e-11
1.17027e-11
1.14111e-11
1.11263e-11
1.08484e-11
1.05771e-11
1.03124e-11
1.00541e-11
9.80216e-12
9.55646e-12
9.31688e-12
9.08332e-12
8.85569e-12
8.63387e-12
8.41776e-12
8.20728e-12
8.00232e-12
7.8028e-12
7.60861e-12
7.41967e-12
7.23589e-12
7.05718e-12
6.88346e-12
6.71464e-12
6.55065e-12
6.39139e-12
6.2368e-12
6.0868e-12
5.94132e-12
5.80027e-12
5.66359e-12
5.53122e-12
5.40307e-12
5.2791e-12
5.15922e-12
5.04339e-12
4.93154e-12
4.82361e-12
4.71954e-12
4.61929e-12
4.52279e-12
4.43e-12
4.34086e-12
4.25533e-12
4.17336e-12
4.09491e-12
4.01993e-12
3.94838e-12
3.88022e-12
3.81542e-12
3.75394e-12
3.69574e-12
3.6408e-12
3.58908e-12
3.54055e-12
3.49518e-12
3.45295e-12
3.41384e-12
3.37783e-12
3.34488e-12
3.31499e-12
3.28814e-12
3.26431e-12
3.24349e-12
3.22566e-12
3.21082e-12
3.19896e-12
3.19007e-12
3.18415e-12
3.18119e-12
7.13606e-12
2.13932e-11
3.56055e-11
4.9744e-11
6.37812e-11
7.76907e-11
9.14481e-11
1.05031e-10
1.18418e-10
1.3159e-10
1.44532e-10
1.57226e-10
1.69661e-10
1.81824e-10
1.93705e-10
2.05297e-10
2.16592e-10
2.27585e-10
2.38271e-10
2.48649e-10
2.58717e-10
2.68473e-10
2.77919e-10
2.87056e-10
2.95885e-10
3.0441e-10
3.12633e-10
3.20559e-10
3.28193e-10
3.35539e-10
3.42602e-10
3.49388e-10
3.55902e-10
3.62151e-10
3.6814e-10
3.73876e-10
3.79365e-10
3.84613e-10
3.89626e-10
3.94411e-10
3.98974e-10
4.03321e-10
4.07457e-10
4.1139e-10
4.15125e-10
4.18668e-10
4.22023e-10
4.25197e-10
4.28195e-10
4.31023e-10
4.33684e-10
4.36185e-10
4.38529e-10
4.40722e-10
4.42768e-10
4.44671e-10
4.46435e-10
4.48065e-10
4.49564e-10
4.50935e-10
4.52183e-10
4.53311e-10
4.54323e-10
4.55221e-10
4.56008e-10
4.56689e-10
4.57265e-10
4.57739e-10
4.58114e-10
4.58392e-10
4.58577e-10
4.58671e-10
4.58675e-10
4.58592e-10
4.58424e-10
4.58174e-10
4.57843e-10
4.57433e-10
4.56947e-10
4.56385e-10
4.5575e-10
4.55044e-10
4.54268e-10
4.53424e-10
4.52513e-10
4.51538e-10
4.50498e-10
4.49397e-10
4.48235e-10
4.47014e-10
4.45734e-10
4.44399e-10
4.43008e-10
4.41562e-10
4.40065e-10
4.38515e-10
4.36915e-10
4.35266e-10
4.3357e-10
4.31826e-10
4.30036e-10
4.28202e-10
4.26324e-10
4.24404e-10
4.22442e-10
4.2044e-10
4.18398e-10
4.16318e-10
4.142e-10
4.12047e-10
4.09857e-10
4.07634e-10
4.05377e-10
4.03087e-10
4.00766e-10
3.98414e-10
3.96032e-10
3.93622e-10
3.91183e-10
3.88718e-10
3.86226e-10
3.83709e-10
3.81168e-10
3.78603e-10
3.76016e-10
3.73407e-10
3.70776e-10
3.68126e-10
3.65456e-10
3.62768e-10
3.60062e-10
3.5734e-10
3.54601e-10
3.51847e-10
3.49078e-10
3.46296e-10
3.43501e-10
3.40694e-10
3.37875e-10
3.35045e-10
3.32206e-10
3.29357e-10
3.265e-10
3.23636e-10
3.20764e-10
3.17886e-10
3.15002e-10
3.12113e-10
3.0922e-10
3.06324e-10
3.03424e-10
3.00522e-10
2.97619e-10
2.94714e-10
2.9181e-10
2.88905e-10
2.86001e-10
2.83099e-10
2.80199e-10
2.77301e-10
2.74407e-10
2.71517e-10
2.68631e-10
2.65749e-10
2.62873e-10
2.60004e-10
2.5714e-10
2.54284e-10
2.51435e-10
2.48594e-10
2.45762e-10
2.42939e-10
2.40125e-10
2.3732e-10
2.34527e-10
2.31744e-10
2.28972e-10
2.26212e-10
2.23463e-10
2.20728e-10
2.18005e-10
2.15295e-10
2.12599e-10
2.09916e-10
2.07248e-10
2.04595e-10
2.01956e-10
1.99333e-10
1.96725e-10
1.94133e-10
1.91557e-10
1.88998e-10
1.86455e-10
1.83929e-10
1.81421e-10
1.7893e-10
1.76457e-10
1.74002e-10
1.71565e-10
1.69146e-10
1.66746e-10
1.64364e-10
1.62002e-10
1.59659e-10
1.57335e-10
1.5503e-10
1.52745e-10
1.5048e-10
1.48235e-10
1.4601e-10
1.43805e-10
1.4162e-10
1.39455e-10
1.37311e-10
1.35188e-10
1.33085e-10
1.31003e-10
1.28941e-10
1.269e-10
1.24881e-10
1.22882e-10
1.20904e-10
1.18947e-10
1.17011e-10
1.15096e-10
1.13202e-10
1.11329e-10
1.09477e-10
1.07646e-10
1.05836e-10
1.04047e-10
1.02279e-10
1.00532e-10
9.88054e-11
9.71e-11
9.54155e-11
9.37516e-11
9.21085e-11
9.0486e-11
8.8884e-11
8.73025e-11
8.57414e-11
8.42007e-11
8.26802e-11
8.11799e-11
7.96996e-11
7.82393e-11
7.67989e-11
7.53782e-11
7.39771e-11
7.25957e-11
7.12336e-11
6.98908e-11
6.85673e-11
6.72628e-11
6.59772e-11
6.47105e-11
6.34624e-11
6.22328e-11
6.10217e-11
5.98288e-11
5.8654e-11
5.74972e-11
5.63583e-11
5.5237e-11
5.41332e-11
5.30468e-11
5.19777e-11
5.09256e-11
4.98904e-11
4.88719e-11
4.78701e-11
4.68847e-11
4.59155e-11
4.49625e-11
4.40254e-11
4.31041e-11
4.21984e-11
4.13081e-11
4.04331e-11
3.95733e-11
3.87283e-11
3.78982e-11
3.70826e-11
3.62815e-11
3.54947e-11
3.4722e-11
3.39632e-11
3.32181e-11
3.24867e-11
3.17687e-11
3.10639e-11
3.03723e-11
2.96935e-11
2.90275e-11
2.83741e-11
2.77331e-11
2.71044e-11
2.64878e-11
2.58831e-11
2.52901e-11
2.47088e-11
2.41388e-11
2.35802e-11
2.30327e-11
2.24961e-11
2.19703e-11
2.14552e-11
2.09506e-11
2.04563e-11
1.99721e-11
1.9498e-11
1.90338e-11
1.85793e-11
1.81343e-11
1.76988e-11
1.72725e-11
1.68554e-11
1.64473e-11
1.6048e-11
1.56575e-11
1.52755e-11
1.49019e-11
1.45366e-11
1.41795e-11
1.38304e-11
1.34892e-11
1.31558e-11
1.283e-11
1.25117e-11
1.22008e-11
1.18972e-11
1.16007e-11
1.13112e-11
1.10286e-11
1.07528e-11
1.04837e-11
1.02211e-11
9.96501e-12
9.71523e-12
9.47167e-12
9.23423e-12
9.00281e-12
8.7773e-12
8.55761e-12
8.34363e-12
8.13527e-12
7.93243e-12
7.73501e-12
7.54293e-12
7.3561e-12
7.17442e-12
6.99782e-12
6.82619e-12
6.65947e-12
6.49758e-12
6.34042e-12
6.18793e-12
6.04002e-12
5.89663e-12
5.75769e-12
5.62311e-12
5.49284e-12
5.3668e-12
5.24493e-12
5.12718e-12
5.01347e-12
4.90375e-12
4.79795e-12
4.69603e-12
4.59793e-12
4.5036e-12
4.41298e-12
4.32603e-12
4.2427e-12
4.16294e-12
4.08671e-12
4.01398e-12
3.94469e-12
3.87881e-12
3.81631e-12
3.75714e-12
3.70129e-12
3.6487e-12
3.59937e-12
3.55325e-12
3.51032e-12
3.47056e-12
3.43394e-12
3.40045e-12
3.37007e-12
3.34277e-12
3.31854e-12
3.29737e-12
3.27925e-12
3.26417e-12
3.25211e-12
3.24307e-12
3.23705e-12
3.23404e-12
7.17674e-12
2.15158e-11
3.58117e-11
5.00364e-11
6.4163e-11
7.81658e-11
9.20205e-11
1.05705e-10
1.19198e-10
1.3248e-10
1.45535e-10
1.58347e-10
1.70902e-10
1.83188e-10
1.95196e-10
2.06916e-10
2.18341e-10
2.29465e-10
2.40284e-10
2.50795e-10
2.60996e-10
2.70885e-10
2.80463e-10
2.89731e-10
2.98691e-10
3.07344e-10
3.15695e-10
3.23746e-10
3.31502e-10
3.38969e-10
3.4615e-10
3.53051e-10
3.59678e-10
3.66036e-10
3.72132e-10
3.77971e-10
3.8356e-10
3.88905e-10
3.94012e-10
3.98887e-10
4.03537e-10
4.07968e-10
4.12185e-10
4.16196e-10
4.20005e-10
4.23618e-10
4.27042e-10
4.30281e-10
4.33341e-10
4.36227e-10
4.38945e-10
4.41498e-10
4.43893e-10
4.46134e-10
4.48225e-10
4.5017e-10
4.51974e-10
4.53641e-10
4.55175e-10
4.5658e-10
4.57858e-10
4.59015e-10
4.60052e-10
4.60974e-10
4.61784e-10
4.62484e-10