/*--------------------------------*- C++ -*----------------------------------*\
  =========                 |
  \\      /  F ield         | OpenFOAM: The Open Source CFD Toolbox
   \\    /   O peration     | Website:  https://openfoam.org
    \\  /    A nd           | Version:  10
     \\/     M anipulation  |
\*---------------------------------------------------------------------------*/
FoamFile
{
    format      ascii;
    class       volScalarField;
    location    "0.34";
    object      beta;
}
// * * * * * * * * * * * * * * * * * * * * * * * * * * * * * * * * * * * * * //

dimensions      [0 0 0 0 0 0 0];

internalField   uniform 0;

boundaryField
{
    frontAndBack
    {
        type            empty;
    }
    inlet
    {
        type            calculated;
        value           uniform 0;
    }
    outlet
    {
        type            calculated;
        value           uniform 0;
    }
    substrate
    {
        type            calculated;
        value           nonuniform List<scalar> 
400
(
0.00265327
0.00287576
0.00308654
0.00329103
0.00349176
0.00369001
0.00388637
0.00408108
0.00427417
0.00446553
0.00465499
0.00484232
0.00502726
0.00520955
0.00538892
0.00556512
0.00573791
0.00590708
0.00607243
0.00623378
0.00639098
0.00654391
0.00669248
0.0068366
0.00697622
0.00711132
0.00724187
0.00736788
0.00748938
0.0076064
0.007719
0.00782724
0.00793119
0.00803094
0.00812658
0.00821821
0.00830593
0.00838984
0.00847007
0.00854672
0.00861992
0.00868977
0.00875639
0.00881991
0.00888043
0.00893808
0.00899296
0.00904518
0.00909487
0.00914211
0.00918702
0.00922971
0.00927025
0.00930876
0.00934532
0.00938003
0.00941297
0.00944422
0.00947386
0.00950197
0.00952862
0.00955389
0.00957784
0.00960054
0.00962204
0.00964242
0.00966172
0.00968
0.00969731
0.0097137
0.00972922
0.00974391
0.00975781
0.00977097
0.00978343
0.00979522
0.00980637
0.00981693
0.00982691
0.00983636
0.0098453
0.00985375
0.00986174
0.00986931
0.00987646
0.00988322
0.00988962
0.00989567
0.00990139
0.00990679
0.00991191
0.00991674
0.00992131
0.00992563
0.00992972
0.00993358
0.00993723
0.00994068
0.00994395
0.00994703
0.00994995
0.0099527
0.00995531
0.00995777
0.00996009
0.00996229
0.00996437
0.00996634
0.00996819
0.00996995
0.00997161
0.00997317
0.00997465
0.00997605
0.00997738
0.00997863
0.00997981
0.00998092
0.00998198
0.00998297
0.00998392
0.00998481
0.00998565
0.00998644
0.00998719
0.0099879
0.00998857
0.0099892
0.0099898
0.00999037
0.0099909
0.00999141
0.00999188
0.00999233
0.00999276
0.00999316
0.00999354
0.0099939
0.00999424
0.00999456
0.00999486
0.00999515
0.00999542
0.00999567
0.00999591
0.00999614
0.00999636
0.00999656
0.00999675
0.00999693
0.0099971
0.00999727
0.00999742
0.00999756
0.0099977
0.00999783
0.00999795
0.00999806
0.00999817
0.00999827
0.00999837
0.00999846
0.00999855
0.00999863
0.00999871
0.00999878
0.00999885
0.00999891
0.00999897
0.00999903
0.00999909
0.00999914
0.00999919
0.00999923
0.00999928
0.00999932
0.00999936
0.00999939
0.00999943
0.00999946
0.00999949
0.00999952
0.00999955
0.00999957
0.0099996
0.00999962
0.00999964
0.00999966
0.00999968
0.0099997
0.00999972
0.00999973
0.00999975
0.00999976
0.00999978
0.00999979
0.0099998
0.00999981
0.00999982
0.00999983
0.00999984
0.00999985
0.00999986
0.00999987
0.00999988
0.00999988
0.00999989
0.0099999
0.0099999
0.00999991
0.00999991
0.00999992
0.00999992
0.00999993
0.00999993
0.00999994
0.00999994
0.00999994
0.00999995
0.00999995
0.00999995
0.00999996
0.00999996
0.00999996
0.00999996
0.00999996
0.00999997
0.00999997
0.00999997
0.00999997
0.00999997
0.00999998
0.00999998
0.00999998
0.00999998
0.00999998
0.00999998
0.00999998
0.00999998
0.00999999
0.00999999
0.00999999
0.00999999
0.00999999
0.00999999
0.00999999
0.00999999
0.00999999
0.00999999
0.00999999
0.00999999
0.00999999
0.00999999
0.00999999
0.00999999
0.00999999
0.00999999
0.01
0.01
0.01
0.01
0.01
0.01
0.01
0.01
0.01
0.01
0.01
0.01
0.01
0.01
0.01
0.01
0.01
0.01
0.01
0.01
0.01
0.01
0.01
0.01
0.01
0.01
0.01
0.01
0.01
0.01
0.01
0.01
0.01
0.01
0.01
0.01
0.01
0.01
0.01
0.01
0.01
0.01
0.01
0.01
0.01
0.01
0.01
0.01
0.01
0.01
0.01
0.01
0.01
0.01
0.01
0.01
0.01
0.01
0.01
0.01
0.01
0.01
0.01
0.01
0.01
0.01
0.01
0.01
0.01
0.01
0.01
0.01
0.01
0.01
0.01
0.01
0.01
0.01
0.01
0.01
0.01
0.01
0.01
0.01
0.01
0.01
0.01
0.01
0.01
0.01
0.01
0.01
0.01
0.01
0.01
0.01
0.01
0.01
0.01
0.01
0.01
0.01
0.01
0.01
0.01
0.01
0.01
0.01
0.01
0.01
0.01
0.01
0.01
0.01
0.01
0.01
0.01
0.01
0.01
0.01
0.01
0.01
0.01
0.01
0.01
0.01
0.01
0.01
0.01
0.01
0.01
0.01
0.01
0.01
0.01
0.01
0.01
0.01
0.01
0.01
0.01
0.01
0.01
)
;
    }
    Wall
    {
        type            calculated;
        value           nonuniform List<scalar> 
400
(
0.00265328
0.00287576
0.00308654
0.00329102
0.00349176
0.00369001
0.00388637
0.00408108
0.00427417
0.00446553
0.00465499
0.00484232
0.00502726
0.00520954
0.00538891
0.00556511
0.0057379
0.00590706
0.0060724
0.00623375
0.00639095
0.00654388
0.00669244
0.00683656
0.00697618
0.00711127
0.00724182
0.00736783
0.00748933
0.00760635
0.00771895
0.00782719
0.00793114
0.00803089
0.00812653
0.00821816
0.00830588
0.00838979
0.00847002
0.00854667
0.00861987
0.00868972
0.00875634
0.00881986
0.00888039
0.00893803
0.00899291
0.00904514
0.00909483
0.00914207
0.00918699
0.00922967
0.00927022
0.00930873
0.00934529
0.00938
0.00941294
0.00944419
0.00947383
0.00950194
0.0095286
0.00955387
0.00957782
0.00960052
0.00962202
0.0096424
0.0096617
0.00967998
0.00969729
0.00971368
0.0097292
0.00974389
0.0097578
0.00977096
0.00978342
0.00979521
0.00980636
0.00981692
0.0098269
0.00983635
0.00984529
0.00985374
0.00986174
0.0098693
0.00987645
0.00988321
0.00988961
0.00989566
0.00990138
0.00990679
0.0099119
0.00991674
0.00992131
0.00992563
0.00992972
0.00993358
0.00993723
0.00994068
0.00994394
0.00994703
0.00994994
0.0099527
0.0099553
0.00995777
0.00996009
0.00996229
0.00996437
0.00996634
0.00996819
0.00996995
0.0099716
0.00997317
0.00997465
0.00997605
0.00997737
0.00997862
0.00997981
0.00998092
0.00998198
0.00998297
0.00998391
0.0099848
0.00998565
0.00998644
0.00998719
0.0099879
0.00998857
0.0099892
0.0099898
0.00999037
0.0099909
0.00999141
0.00999188
0.00999233
0.00999276
0.00999316
0.00999354
0.0099939
0.00999424
0.00999456
0.00999486
0.00999515
0.00999542
0.00999567
0.00999591
0.00999614
0.00999636
0.00999656
0.00999675
0.00999693
0.0099971
0.00999727
0.00999742
0.00999756
0.0099977
0.00999783
0.00999795
0.00999806
0.00999817
0.00999827
0.00999837
0.00999846
0.00999855
0.00999863
0.00999871
0.00999878
0.00999885
0.00999891
0.00999897
0.00999903
0.00999909
0.00999914
0.00999919
0.00999923
0.00999928
0.00999932
0.00999936
0.00999939
0.00999943
0.00999946
0.00999949
0.00999952
0.00999955
0.00999957
0.0099996
0.00999962
0.00999964
0.00999966
0.00999968
0.0099997
0.00999972
0.00999973
0.00999975
0.00999976
0.00999978
0.00999979
0.0099998
0.00999981
0.00999982
0.00999983
0.00999984
0.00999985
0.00999986
0.00999987
0.00999988
0.00999988
0.00999989
0.0099999
0.0099999
0.00999991
0.00999991
0.00999992
0.00999992
0.00999993
0.00999993
0.00999994
0.00999994
0.00999994
0.00999995
0.00999995
0.00999995
0.00999996
0.00999996
0.00999996
0.00999996
0.00999996
0.00999997
0.00999997
0.00999997
0.00999997
0.00999997
0.00999998
0.00999998
0.00999998
0.00999998
0.00999998
0.00999998
0.00999998
0.00999998
0.00999999
0.00999999
0.00999999
0.00999999
0.00999999
0.00999999
0.00999999
0.00999999
0.00999999
0.00999999
0.00999999
0.00999999
0.00999999
0.00999999
0.00999999
0.00999999
0.00999999
0.00999999
0.01
0.01
0.01
0.01
0.01
0.01
0.01
0.01
0.01
0.01
0.01
0.01
0.01
0.01
0.01
0.01
0.01
0.01
0.01
0.01
0.01
0.01
0.01
0.01
0.01
0.01
0.01
0.01
0.01
0.01
0.01
0.01
0.01
0.01
0.01
0.01
0.01
0.01
0.01
0.01
0.01
0.01
0.01
0.01
0.01
0.01
0.01
0.01
0.01
0.01
0.01
0.01
0.01
0.01
0.01
0.01
0.01
0.01
0.01
0.01
0.01
0.01
0.01
0.01
0.01
0.01
0.01
0.01
0.01
0.01
0.01
0.01
0.01
0.01
0.01
0.01
0.01
0.01
0.01
0.01
0.01
0.01
0.01
0.01
0.01
0.01
0.01
0.01
0.01
0.01
0.01
0.01
0.01
0.01
0.01
0.01
0.01
0.01
0.01
0.01
0.01
0.01
0.01
0.01
0.01
0.01
0.01
0.01
0.01
0.01
0.01
0.01
0.01
0.01
0.01
0.01
0.01
0.01
0.01
0.01
0.01
0.01
0.01
0.01
0.01
0.01
0.01
0.01
0.01
0.01
0.01
0.01
0.01
0.01
0.01
0.01
0.01
0.01
0.01
0.01
0.01
0.01
0.01
)
;
    }
}


// ************************************************************************* //
