/*--------------------------------*- C++ -*----------------------------------*\
  =========                 |
  \\      /  F ield         | OpenFOAM: The Open Source CFD Toolbox
   \\    /   O peration     | Website:  https://openfoam.org
    \\  /    A nd           | Version:  10
     \\/     M anipulation  |
\*---------------------------------------------------------------------------*/
FoamFile
{
    format      ascii;
    class       volScalarField;
    location    "0.52";
    object      cov;
}
// * * * * * * * * * * * * * * * * * * * * * * * * * * * * * * * * * * * * * //

dimensions      [0 0 0 0 0 0 0];

internalField   uniform 0;

boundaryField
{
    frontAndBack
    {
        type            empty;
    }
    inlet
    {
        type            calculated;
        value           uniform 0;
    }
    outlet
    {
        type            calculated;
        value           uniform 0;
    }
    substrate
    {
        type            calculated;
        value           nonuniform List<scalar> 
400
(
0.734673
0.712425
0.691347
0.670899
0.650825
0.631001
0.611366
0.591896
0.572588
0.553452
0.534506
0.515774
0.497281
0.479053
0.461116
0.443497
0.426218
0.409302
0.392768
0.376634
0.360915
0.345622
0.330766
0.316355
0.302393
0.288885
0.27583
0.26323
0.251081
0.239379
0.22812
0.217296
0.206902
0.196927
0.187364
0.178201
0.16943
0.161039
0.153017
0.145352
0.138033
0.131048
0.124386
0.118035
0.111983
0.106218
0.100731
0.0955081
0.09054
0.0858156
0.0813245
0.0770566
0.073002
0.0691512
0.065495
0.0620244
0.0587308
0.0556059
0.0526418
0.0498307
0.0471652
0.0446384
0.0422434
0.0399737
0.037823
0.0357856
0.0338556
0.0320276
0.0302965
0.0286573
0.0271054
0.0256361
0.0242454
0.022929
0.0216832
0.0205042
0.0193886
0.018333
0.0173343
0.0163895
0.0154956
0.0146501
0.0138504
0.0130939
0.0123785
0.0117019
0.011062
0.0104569
0.00988472
0.00934365
0.00883205
0.00834833
0.00789097
0.00745856
0.00704974
0.00666325
0.00629786
0.00595244
0.0056259
0.00531722
0.00502543
0.0047496
0.00448887
0.00424242
0.00400947
0.00378928
0.00358116
0.00338445
0.00319852
0.00302279
0.00285669
0.00269971
0.00255134
0.00241112
0.00227859
0.00215334
0.00203496
0.00192308
0.00181735
0.00171743
0.00162299
0.00153374
0.0014494
0.00136969
0.00129436
0.00122317
0.00115589
0.00109231
0.00103223
0.00097545
0.000921791
0.000871083
0.000823162
0.000777877
0.000735081
0.000694639
0.000656422
0.000620306
0.000586176
0.000553924
0.000523445
0.000494644
0.000467426
0.000441706
0.0004174
0.000394432
0.000372727
0.000352216
0.000332834
0.000314518
0.00029721
0.000280854
0.000265398
0.000250793
0.000236991
0.000223948
0.000211623
0.000199977
0.000188971
0.000178571
0.000168743
0.000159456
0.000150679
0.000142386
0.00013455
0.000127144
0.000120146
0.000113533
0.000107284
0.000101379
9.57992e-05
9.05262e-05
8.55434e-05
8.08349e-05
7.63854e-05
7.21808e-05
6.82077e-05
6.44532e-05
6.09053e-05
5.75527e-05
5.43846e-05
5.13908e-05
4.85619e-05
4.58886e-05
4.33625e-05
4.09754e-05
3.87196e-05
3.65881e-05
3.45738e-05
3.26704e-05
3.08718e-05
2.91722e-05
2.75661e-05
2.60484e-05
2.46143e-05
2.32591e-05
2.19785e-05
2.07684e-05
1.96249e-05
1.85443e-05
1.75232e-05
1.65583e-05
1.56466e-05
1.4785e-05
1.39708e-05
1.32015e-05
1.24745e-05
1.17876e-05
1.11384e-05
1.0525e-05
9.94534e-06
9.39761e-06
8.88003e-06
8.39094e-06
7.92878e-06
7.49206e-06
7.07938e-06
6.68943e-06
6.32094e-06
5.97274e-06
5.64371e-06
5.3328e-06
5.03901e-06
4.76139e-06
4.49906e-06
4.25118e-06
4.01694e-06
3.7956e-06
3.58645e-06
3.38882e-06
3.20207e-06
3.0256e-06
2.85885e-06
2.70129e-06
2.5524e-06
2.41171e-06
2.27877e-06
2.15316e-06
2.03446e-06
1.9223e-06
1.81632e-06
1.71617e-06
1.62154e-06
1.53213e-06
1.44764e-06
1.3678e-06
1.29237e-06
1.22109e-06
1.15373e-06
1.09009e-06
1.02996e-06
9.73134e-07
9.19443e-07
8.68711e-07
8.20774e-07
7.7548e-07
7.32682e-07
6.92243e-07
6.54033e-07
6.17928e-07
5.83815e-07
5.51581e-07
5.21125e-07
4.92348e-07
4.65158e-07
4.39467e-07
4.15192e-07
3.92256e-07
3.70586e-07
3.5011e-07
3.30763e-07
3.12484e-07
2.95213e-07
2.78895e-07
2.63477e-07
2.4891e-07
2.35147e-07
2.22143e-07
2.09857e-07
1.98249e-07
1.87281e-07
1.76919e-07
1.6713e-07
1.5788e-07
1.49141e-07
1.40885e-07
1.33085e-07
1.25716e-07
1.18753e-07
1.12176e-07
1.05961e-07
1.0009e-07
9.45438e-08
8.93038e-08
8.43534e-08
7.96767e-08
7.52585e-08
7.10846e-08
6.71414e-08
6.34164e-08
5.98974e-08
5.65731e-08
5.34327e-08
5.0466e-08
4.76636e-08
4.50162e-08
4.25154e-08
4.0153e-08
3.79215e-08
3.58136e-08
3.38224e-08
3.19415e-08
3.01648e-08
2.84866e-08
2.69014e-08
2.54041e-08
2.39898e-08
2.2654e-08
2.13922e-08
2.02005e-08
1.90748e-08
1.80117e-08
1.70075e-08
1.60592e-08
1.51635e-08
1.43175e-08
1.35186e-08
1.2764e-08
1.20514e-08
1.13785e-08
1.07429e-08
1.01427e-08
9.57596e-09
9.04074e-09
8.53532e-09
8.05806e-09
7.60739e-09
7.18185e-09
6.78004e-09
6.40065e-09
6.04243e-09
5.70422e-09
5.3849e-09
5.08344e-09
4.79883e-09
4.53015e-09
4.27652e-09
4.0371e-09
3.81111e-09
3.5978e-09
3.39647e-09
3.20647e-09
3.02715e-09
2.85795e-09
2.69829e-09
2.54765e-09
2.40553e-09
2.27147e-09
2.14502e-09
2.02576e-09
1.91331e-09
1.80728e-09
1.70732e-09
1.61312e-09
1.52435e-09
1.44071e-09
1.36194e-09
1.28777e-09
1.21796e-09
1.15226e-09
1.09047e-09
1.03238e-09
9.77798e-10
9.26536e-10
8.78426e-10
8.33308e-10
7.91032e-10
7.51457e-10
7.1445e-10
6.79889e-10
6.47656e-10
6.17645e-10
5.89756e-10
5.63894e-10
5.39974e-10
5.17914e-10
4.97642e-10
4.79089e-10
4.62194e-10
4.46899e-10
4.33152e-10
4.20909e-10
4.10128e-10
4.00772e-10
3.9281e-10
3.86216e-10
3.80967e-10
3.77046e-10
3.74439e-10
3.73137e-10
)
;
    }
    Wall
    {
        type            calculated;
        value           nonuniform List<scalar> 
400
(
0.734673
0.712424
0.691347
0.670899
0.650826
0.631001
0.611366
0.591895
0.572587
0.553451
0.534506
0.515774
0.497281
0.479053
0.461117
0.443498
0.42622
0.409304
0.392771
0.376637
0.360918
0.345625
0.33077
0.316359
0.302397
0.288889
0.275835
0.263234
0.251085
0.239384
0.228124
0.217301
0.206907
0.196932
0.187369
0.178207
0.169435
0.161044
0.153021
0.145357
0.138038
0.131053
0.124391
0.118039
0.111987
0.106223
0.100735
0.0955123
0.090544
0.0858195
0.0813283
0.0770603
0.0730056
0.0691547
0.0654983
0.0620276
0.0587338
0.0556088
0.0526446
0.0498334
0.0471678
0.0446409
0.0422457
0.0399759
0.0378252
0.0357876
0.0338575
0.0320294
0.0302983
0.028659
0.027107
0.0256377
0.0242468
0.0229304
0.0216845
0.0205054
0.0193898
0.0183341
0.0173353
0.0163904
0.0154965
0.014651
0.0138512
0.0130947
0.0123792
0.0117026
0.0110626
0.0104575
0.00988527
0.00934417
0.00883254
0.00834878
0.00789139
0.00745895
0.00705011
0.00666359
0.00629818
0.00595274
0.00562619
0.00531749
0.00502567
0.00474983
0.00448909
0.00424262
0.00400966
0.00378946
0.00358132
0.0033846
0.00319866
0.00302292
0.00285681
0.00269982
0.00255145
0.00241121
0.00227868
0.00215342
0.00203503
0.00192315
0.00181742
0.00171749
0.00162305
0.00153379
0.00144945
0.00136973
0.0012944
0.00122321
0.00115593
0.00109235
0.00103226
0.000975477
0.000921816
0.000871105
0.000823182
0.000777895
0.000735098
0.000694655
0.000656436
0.000620319
0.000586188
0.000553935
0.000523456
0.000494653
0.000467434
0.000441713
0.000417407
0.000394438
0.000372733
0.000352222
0.000332839
0.000314523
0.000297214
0.000280858
0.000265401
0.000250796
0.000236993
0.000223951
0.000211626
0.000199979
0.000188973
0.000178572
0.000168744
0.000159457
0.000150681
0.000142387
0.000134551
0.000127145
0.000120147
0.000113534
0.000107285
0.00010138
9.57998e-05
9.05267e-05
8.55439e-05
8.08353e-05
7.63858e-05
7.21812e-05
6.8208e-05
6.44534e-05
6.09055e-05
5.75529e-05
5.43848e-05
5.1391e-05
4.8562e-05
4.58887e-05
4.33626e-05
4.09755e-05
3.87197e-05
3.65881e-05
3.45739e-05
3.26705e-05
3.08719e-05
2.91722e-05
2.75662e-05
2.60485e-05
2.46143e-05
2.32591e-05
2.19785e-05
2.07684e-05
1.96249e-05
1.85443e-05
1.75232e-05
1.65583e-05
1.56466e-05
1.4785e-05
1.39708e-05
1.32015e-05
1.24745e-05
1.17876e-05
1.11384e-05
1.0525e-05
9.94534e-06
9.39761e-06
8.88003e-06
8.39094e-06
7.92878e-06
7.49206e-06
7.07938e-06
6.68943e-06
6.32094e-06
5.97274e-06
5.64371e-06
5.3328e-06
5.03901e-06
4.76139e-06
4.49906e-06
4.25117e-06
4.01694e-06
3.7956e-06
3.58645e-06
3.38882e-06
3.20207e-06
3.0256e-06
2.85885e-06
2.70129e-06
2.5524e-06
2.41171e-06
2.27877e-06
2.15316e-06
2.03446e-06
1.9223e-06
1.81632e-06
1.71617e-06
1.62154e-06
1.53213e-06
1.44764e-06
1.3678e-06
1.29237e-06
1.22109e-06
1.15373e-06
1.09009e-06
1.02996e-06
9.73134e-07
9.19443e-07
8.68711e-07
8.20774e-07
7.7548e-07
7.32682e-07
6.92243e-07
6.54032e-07
6.17928e-07
5.83815e-07
5.51581e-07
5.21125e-07
4.92348e-07
4.65158e-07
4.39467e-07
4.15192e-07
3.92256e-07
3.70586e-07
3.5011e-07
3.30763e-07
3.12484e-07
2.95213e-07
2.78895e-07
2.63477e-07
2.4891e-07
2.35147e-07
2.22143e-07
2.09857e-07
1.98249e-07
1.87281e-07
1.76919e-07
1.6713e-07
1.5788e-07
1.49141e-07
1.40885e-07
1.33085e-07
1.25716e-07
1.18753e-07
1.12176e-07
1.05961e-07
1.0009e-07
9.45438e-08
8.93038e-08
8.43534e-08
7.96767e-08
7.52585e-08
7.10846e-08
6.71415e-08
6.34164e-08
5.98974e-08
5.65731e-08
5.34327e-08
5.04661e-08
4.76636e-08
4.50162e-08
4.25154e-08
4.01531e-08
3.79215e-08
3.58136e-08
3.38224e-08
3.19415e-08
3.01648e-08
2.84866e-08
2.69014e-08
2.54041e-08
2.39898e-08
2.2654e-08
2.13922e-08
2.02005e-08
1.90748e-08
1.80117e-08
1.70076e-08
1.60592e-08
1.51635e-08
1.43175e-08
1.35186e-08
1.2764e-08
1.20514e-08
1.13785e-08
1.07429e-08
1.01428e-08
9.57597e-09
9.04075e-09
8.53533e-09
8.05807e-09
7.6074e-09
7.18186e-09
6.78005e-09
6.40066e-09
6.04244e-09
5.70423e-09
5.38491e-09
5.08344e-09
4.79884e-09
4.53016e-09
4.27652e-09
4.03711e-09
3.81111e-09
3.5978e-09
3.39648e-09
3.20647e-09
3.02716e-09
2.85795e-09
2.69829e-09
2.54765e-09
2.40553e-09
2.27147e-09
2.14502e-09
2.02577e-09
1.91331e-09
1.80728e-09
1.70733e-09
1.61312e-09
1.52435e-09
1.44072e-09
1.36195e-09
1.28778e-09
1.21796e-09
1.15227e-09
1.09048e-09
1.03239e-09
9.778e-10
9.26538e-10
8.78428e-10
8.3331e-10
7.91034e-10
7.51459e-10
7.14452e-10
6.7989e-10
6.47658e-10
6.17647e-10
5.89757e-10
5.63896e-10
5.39975e-10
5.17916e-10
4.97644e-10
4.79091e-10
4.62195e-10
4.469e-10
4.33154e-10
4.2091e-10
4.10129e-10
4.00773e-10
3.92812e-10
3.86217e-10
3.80968e-10
3.77047e-10
3.7444e-10
3.73138e-10
)
;
    }
}


// ************************************************************************* //
