/*--------------------------------*- C++ -*----------------------------------*\
  =========                 |
  \\      /  F ield         | OpenFOAM: The Open Source CFD Toolbox
   \\    /   O peration     | Website:  https://openfoam.org
    \\  /    A nd           | Version:  10
     \\/     M anipulation  |
\*---------------------------------------------------------------------------*/
FoamFile
{
    format      ascii;
    class       volScalarField;
    location    "0.5";
    object      growth;
}
// * * * * * * * * * * * * * * * * * * * * * * * * * * * * * * * * * * * * * //

dimensions      [0 0 0 0 0 0 0];

internalField   uniform 0;

boundaryField
{
    frontAndBack
    {
        type            empty;
    }
    inlet
    {
        type            calculated;
        value           uniform 0;
    }
    outlet
    {
        type            calculated;
        value           uniform 0;
    }
    substrate
    {
        type            calculated;
        value           nonuniform List<scalar> 
400
(
0.734673
0.712425
0.691347
0.670899
0.650825
0.631001
0.611366
0.591896
0.572587
0.553452
0.534506
0.515774
0.497281
0.479053
0.461116
0.443497
0.426218
0.409302
0.392768
0.376634
0.360915
0.345622
0.330766
0.316355
0.302393
0.288885
0.27583
0.26323
0.251081
0.239379
0.22812
0.217296
0.206902
0.196927
0.187364
0.178201
0.16943
0.161039
0.153016
0.145352
0.138033
0.131048
0.124386
0.118035
0.111983
0.106218
0.100731
0.095508
0.0905399
0.0858155
0.0813245
0.0770565
0.073002
0.0691512
0.0654949
0.0620243
0.0587307
0.0556058
0.0526417
0.0498306
0.0471652
0.0446383
0.0422433
0.0399736
0.037823
0.0357855
0.0338555
0.0320275
0.0302964
0.0286573
0.0271053
0.0256361
0.0242453
0.022929
0.0216832
0.0205042
0.0193886
0.018333
0.0173343
0.0163894
0.0154956
0.0146501
0.0138503
0.0130939
0.0123784
0.0117018
0.011062
0.0104569
0.00988466
0.0093436
0.008832
0.00834827
0.00789091
0.0074585
0.00704969
0.00666319
0.00629781
0.00595239
0.00562585
0.00531717
0.00502538
0.00474955
0.00448882
0.00424237
0.00400942
0.00378923
0.00358111
0.0033844
0.00319847
0.00302274
0.00285665
0.00269967
0.0025513
0.00241107
0.00227854
0.00215329
0.00203491
0.00192304
0.00181731
0.00171738
0.00162295
0.0015337
0.00144936
0.00136965
0.00129432
0.00122313
0.00115585
0.00109227
0.00103219
0.000975411
0.000921753
0.000871045
0.000823125
0.000777839
0.000735045
0.000694603
0.000656386
0.00062027
0.000586141
0.000553889
0.000523412
0.00049461
0.000467393
0.000441673
0.000417368
0.0003944
0.000372696
0.000352186
0.000332804
0.000314489
0.000297181
0.000280825
0.00026537
0.000250765
0.000236963
0.000223921
0.000211597
0.00019995
0.000188945
0.000178545
0.000168718
0.000159431
0.000150655
0.000142363
0.000134526
0.000127121
0.000120124
0.000113511
0.000107263
0.000101358
9.57783e-05
9.05057e-05
8.55232e-05
8.0815e-05
7.63659e-05
7.21617e-05
6.81889e-05
6.44347e-05
6.08872e-05
5.75349e-05
5.43672e-05
5.13738e-05
4.85451e-05
4.58722e-05
4.33464e-05
4.09596e-05
3.87042e-05
3.65729e-05
3.4559e-05
3.26559e-05
3.08576e-05
2.91583e-05
2.75525e-05
2.60351e-05
2.46012e-05
2.32463e-05
2.1966e-05
2.07561e-05
1.96129e-05
1.85326e-05
1.75117e-05
1.65471e-05
1.56356e-05
1.47742e-05
1.39603e-05
1.31912e-05
1.24645e-05
1.17777e-05
1.11288e-05
1.05156e-05
9.93618e-06
9.38866e-06
8.87128e-06
8.3824e-06
7.92044e-06
7.48392e-06
7.07143e-06
6.68167e-06
6.31337e-06
5.96535e-06
5.6365e-06
5.32577e-06
5.03215e-06
4.7547e-06
4.49254e-06
4.24481e-06
4.01073e-06
3.78955e-06
3.58055e-06
3.38307e-06
3.19647e-06
3.02014e-06
2.85354e-06
2.69611e-06
2.54736e-06
2.4068e-06
2.27399e-06
2.1485e-06
2.02993e-06
1.91789e-06
1.81202e-06
1.71199e-06
1.61748e-06
1.52817e-06
1.44379e-06
1.36406e-06
1.28873e-06
1.21755e-06
1.15029e-06
1.08675e-06
1.02671e-06
9.69975e-07
9.16373e-07
8.65728e-07
8.17877e-07
7.72665e-07
7.29948e-07
6.89588e-07
6.51454e-07
6.15425e-07
5.81385e-07
5.49223e-07
5.18836e-07
4.90127e-07
4.63002e-07
4.37376e-07
4.13164e-07
3.90289e-07
3.68677e-07
3.48259e-07
3.28969e-07
3.10745e-07
2.93527e-07
2.77261e-07
2.61894e-07
2.47376e-07
2.3366e-07
2.20703e-07
2.08462e-07
1.96898e-07
1.85973e-07
1.75653e-07
1.65903e-07
1.56693e-07
1.47992e-07
1.39773e-07
1.32009e-07
1.24675e-07
1.17746e-07
1.11201e-07
1.05019e-07
9.9179e-08
9.36626e-08
8.84518e-08
8.35298e-08
7.88806e-08
7.4489e-08
7.0341e-08
6.6423e-08
6.27223e-08
5.92269e-08
5.59254e-08
5.28072e-08
4.9862e-08
4.70803e-08
4.44531e-08
4.19718e-08
3.96284e-08
3.74152e-08
3.53249e-08
3.33509e-08
3.14866e-08
2.97261e-08
2.80634e-08
2.64933e-08
2.50105e-08
2.36104e-08
2.22881e-08
2.10396e-08
1.98605e-08
1.87472e-08
1.7696e-08
1.67034e-08
1.57661e-08
1.48812e-08
1.40456e-08
1.32567e-08
1.25118e-08
1.18086e-08
1.11447e-08
1.05179e-08
9.92609e-09
9.36744e-09
8.84006e-09
8.34221e-09
7.87225e-09
7.42862e-09
7.00987e-09
6.6146e-09
6.24152e-09
5.88939e-09
5.55704e-09
5.24338e-09
4.94735e-09
4.66799e-09
4.40436e-09
4.15559e-09
3.92085e-09
3.69936e-09
3.49039e-09
3.29323e-09
3.10724e-09
2.93179e-09
2.76629e-09
2.61019e-09
2.46298e-09
2.32415e-09
2.19325e-09
2.06984e-09
1.95349e-09
1.84383e-09
1.74048e-09
1.6431e-09
1.55135e-09
1.46494e-09
1.38356e-09
1.30695e-09
1.23485e-09
1.16701e-09
1.1032e-09
1.04321e-09
9.86835e-10
9.33885e-10
8.8418e-10
8.37551e-10
7.93841e-10
7.529e-10
7.14591e-10
6.78781e-10
6.45351e-10
6.14185e-10
5.85178e-10
5.58231e-10
5.33251e-10
5.10154e-10
4.88861e-10
4.69299e-10
4.51401e-10
4.35106e-10
4.20358e-10
4.07107e-10
3.95307e-10
3.84917e-10
3.75903e-10
3.68234e-10
3.61883e-10
3.56827e-10
3.53051e-10
3.50541e-10
3.49288e-10
)
;
    }
    Wall
    {
        type            calculated;
        value           nonuniform List<scalar> 
400
(
0.734673
0.712424
0.691347
0.670899
0.650826
0.631001
0.611366
0.591895
0.572587
0.553451
0.534506
0.515774
0.497281
0.479053
0.461117
0.443498
0.42622
0.409304
0.392771
0.376637
0.360918
0.345625
0.33077
0.316359
0.302397
0.288889
0.275835
0.263234
0.251085
0.239384
0.228124
0.217301
0.206907
0.196932
0.187369
0.178206
0.169435
0.161044
0.153021
0.145357
0.138038
0.131053
0.124391
0.118039
0.111987
0.106223
0.100735
0.0955122
0.090544
0.0858195
0.0813283
0.0770602
0.0730055
0.0691546
0.0654982
0.0620275
0.0587338
0.0556088
0.0526445
0.0498333
0.0471678
0.0446408
0.0422457
0.0399758
0.0378251
0.0357875
0.0338574
0.0320294
0.0302982
0.0286589
0.0271069
0.0256376
0.0242468
0.0229303
0.0216844
0.0205054
0.0193897
0.018334
0.0173353
0.0163904
0.0154965
0.0146509
0.0138511
0.0130946
0.0123792
0.0117025
0.0110626
0.0104574
0.00988521
0.00934411
0.00883248
0.00834872
0.00789134
0.0074589
0.00705006
0.00666354
0.00629813
0.00595269
0.00562613
0.00531743
0.00502562
0.00474978
0.00448904
0.00424257
0.00400961
0.00378941
0.00358127
0.00338455
0.00319861
0.00302287
0.00285677
0.00269978
0.0025514
0.00241117
0.00227863
0.00215337
0.00203499
0.00192311
0.00181737
0.00171744
0.001623
0.00153375
0.0014494
0.00136969
0.00129436
0.00122317
0.00115589
0.00109231
0.00103222
0.000975438
0.000921777
0.000871067
0.000823145
0.000777858
0.000735062
0.000694619
0.0006564
0.000620284
0.000586153
0.000553901
0.000523422
0.000494619
0.000467402
0.000441681
0.000417375
0.000394407
0.000372702
0.000352191
0.000332809
0.000314493
0.000297185
0.000280829
0.000265373
0.000250768
0.000236966
0.000223924
0.000211599
0.000199952
0.000188947
0.000178547
0.000168719
0.000159432
0.000150657
0.000142364
0.000134527
0.000127122
0.000120124
0.000113512
0.000107263
0.000101359
9.57788e-05
9.05061e-05
8.55237e-05
8.08154e-05
7.63663e-05
7.2162e-05
6.81892e-05
6.4435e-05
6.08874e-05
5.75351e-05
5.43674e-05
5.13739e-05
4.85453e-05
4.58723e-05
4.33465e-05
4.09597e-05
3.87043e-05
3.6573e-05
3.45591e-05
3.2656e-05
3.08576e-05
2.91583e-05
2.75525e-05
2.60351e-05
2.46012e-05
2.32463e-05
2.1966e-05
2.07561e-05
1.96129e-05
1.85326e-05
1.75117e-05
1.65471e-05
1.56356e-05
1.47742e-05
1.39603e-05
1.31912e-05
1.24645e-05
1.17777e-05
1.11288e-05
1.05156e-05
9.93618e-06
9.38866e-06
8.87128e-06
8.3824e-06
7.92044e-06
7.48392e-06
7.07143e-06
6.68167e-06
6.31337e-06
5.96535e-06
5.6365e-06
5.32577e-06
5.03215e-06
4.7547e-06
4.49254e-06
4.24481e-06
4.01073e-06
3.78955e-06
3.58055e-06
3.38307e-06
3.19647e-06
3.02014e-06
2.85354e-06
2.69611e-06
2.54736e-06
2.4068e-06
2.27399e-06
2.1485e-06
2.02993e-06
1.91789e-06
1.81202e-06
1.71199e-06
1.61748e-06
1.52817e-06
1.44379e-06
1.36406e-06
1.28873e-06
1.21755e-06
1.15029e-06
1.08675e-06
1.02671e-06
9.69975e-07
9.16373e-07
8.65728e-07
8.17877e-07
7.72665e-07
7.29948e-07
6.89588e-07
6.51454e-07
6.15425e-07
5.81385e-07
5.49223e-07
5.18836e-07
4.90127e-07
4.63002e-07
4.37376e-07
4.13164e-07
3.90289e-07
3.68677e-07
3.4826e-07
3.28969e-07
3.10745e-07
2.93527e-07
2.77261e-07
2.61894e-07
2.47376e-07
2.3366e-07
2.20703e-07
2.08462e-07
1.96898e-07
1.85973e-07
1.75653e-07
1.65903e-07
1.56693e-07
1.47992e-07
1.39773e-07
1.32009e-07
1.24675e-07
1.17746e-07
1.11201e-07
1.05019e-07
9.91791e-08
9.36627e-08
8.84519e-08
8.35298e-08
7.88806e-08
7.44891e-08
7.03411e-08
6.6423e-08
6.27223e-08
5.92269e-08
5.59255e-08
5.28072e-08
4.9862e-08
4.70804e-08
4.44532e-08
4.19719e-08
3.96284e-08
3.74152e-08
3.5325e-08
3.33509e-08
3.14867e-08
2.97261e-08
2.80634e-08
2.64933e-08
2.50106e-08
2.36104e-08
2.22882e-08
2.10396e-08
1.98606e-08
1.87473e-08
1.7696e-08
1.67034e-08
1.57661e-08
1.48812e-08
1.40456e-08
1.32567e-08
1.25119e-08
1.18086e-08
1.11447e-08
1.05179e-08
9.92611e-09
9.36746e-09
8.84008e-09
8.34222e-09
7.87226e-09
7.42863e-09
7.00988e-09
6.61462e-09
6.24153e-09
5.8894e-09
5.55705e-09
5.24339e-09
4.94736e-09
4.668e-09
4.40437e-09
4.1556e-09
3.92086e-09
3.69937e-09
3.4904e-09
3.29324e-09
3.10725e-09
2.93179e-09
2.7663e-09
2.6102e-09
2.46299e-09
2.32416e-09
2.19326e-09
2.06984e-09
1.9535e-09
1.84383e-09
1.74049e-09
1.6431e-09
1.55136e-09
1.46494e-09
1.38357e-09
1.30696e-09
1.23485e-09
1.16701e-09
1.1032e-09
1.04321e-09
9.86838e-10
9.33888e-10
8.84183e-10
8.37554e-10
7.93844e-10
7.52903e-10
7.14593e-10
6.78784e-10
6.45353e-10
6.14187e-10
5.8518e-10
5.58233e-10
5.33253e-10
5.10156e-10
4.88863e-10
4.69301e-10
4.51403e-10
4.35108e-10
4.2036e-10
4.07108e-10
3.95308e-10
3.84919e-10
3.75905e-10
3.68236e-10
3.61884e-10
3.56829e-10
3.53053e-10
3.50542e-10
3.49288e-10
)
;
    }
}


// ************************************************************************* //
