/*--------------------------------*- C++ -*----------------------------------*\
  =========                 |
  \\      /  F ield         | OpenFOAM: The Open Source CFD Toolbox
   \\    /   O peration     | Website:  https://openfoam.org
    \\  /    A nd           | Version:  10
     \\/     M anipulation  |
\*---------------------------------------------------------------------------*/
FoamFile
{
    format      ascii;
    class       volScalarField;
    location    "0.5";
    object      N1;
}
// * * * * * * * * * * * * * * * * * * * * * * * * * * * * * * * * * * * * * //

dimensions      [0 0 0 0 0 0 0];

internalField   nonuniform List<scalar> 
8000
(
5.86838e-09
1.75807e-08
2.92283e-08
4.07782e-08
5.22019e-08
6.34742e-08
7.4573e-08
8.54788e-08
9.61744e-08
1.06645e-07
1.16877e-07
1.2686e-07
1.36585e-07
1.46044e-07
1.55232e-07
1.64144e-07
1.72776e-07
1.81128e-07
1.89198e-07
1.96987e-07
2.04495e-07
2.11726e-07
2.18681e-07
2.25363e-07
2.31778e-07
2.37928e-07
2.43819e-07
2.49455e-07
2.54842e-07
2.59985e-07
2.6489e-07
2.69562e-07
2.74007e-07
2.78231e-07
2.8224e-07
2.8604e-07
2.89635e-07
2.93032e-07
2.96237e-07
2.99255e-07
3.0209e-07
3.04749e-07
3.07237e-07
3.09558e-07
3.11718e-07
3.13721e-07
3.15571e-07
3.17274e-07
3.18833e-07
3.20253e-07
3.21538e-07
3.22691e-07
3.23718e-07
3.2462e-07
3.25402e-07
3.26067e-07
3.26619e-07
3.27061e-07
3.27396e-07
3.27626e-07
3.27756e-07
3.27787e-07
3.27722e-07
3.27565e-07
3.27317e-07
3.26982e-07
3.26561e-07
3.26057e-07
3.25473e-07
3.24809e-07
3.2407e-07
3.23256e-07
3.2237e-07
3.21414e-07
3.2039e-07
3.19299e-07
3.18144e-07
3.16927e-07
3.15648e-07
3.14311e-07
3.12916e-07
3.11465e-07
3.0996e-07
3.08403e-07
3.06795e-07
3.05138e-07
3.03433e-07
3.01682e-07
2.99886e-07
2.98046e-07
2.96165e-07
2.94244e-07
2.92283e-07
2.90285e-07
2.8825e-07
2.86181e-07
2.84078e-07
2.81942e-07
2.79776e-07
2.7758e-07
2.75355e-07
2.73103e-07
2.70825e-07
2.68522e-07
2.66196e-07
2.63847e-07
2.61476e-07
2.59086e-07
2.56677e-07
2.5425e-07
2.51806e-07
2.49346e-07
2.46872e-07
2.44384e-07
2.41884e-07
2.39373e-07
2.36851e-07
2.34319e-07
2.31779e-07
2.29232e-07
2.26678e-07
2.24119e-07
2.21555e-07
2.18988e-07
2.16418e-07
2.13845e-07
2.11272e-07
2.08699e-07
2.06126e-07
2.03555e-07
2.00986e-07
1.98421e-07
1.95859e-07
1.93302e-07
1.9075e-07
1.88204e-07
1.85666e-07
1.83134e-07
1.80611e-07
1.78097e-07
1.75593e-07
1.73098e-07
1.70615e-07
1.68143e-07
1.65682e-07
1.63235e-07
1.608e-07
1.58379e-07
1.55972e-07
1.5358e-07
1.51203e-07
1.48842e-07
1.46496e-07
1.44167e-07
1.41855e-07
1.39561e-07
1.37284e-07
1.35025e-07
1.32785e-07
1.30563e-07
1.28361e-07
1.26178e-07
1.24015e-07
1.21871e-07
1.19749e-07
1.17646e-07
1.15565e-07
1.13504e-07
1.11465e-07
1.09447e-07
1.07451e-07
1.05476e-07
1.03524e-07
1.01593e-07
9.96852e-08
9.77994e-08
9.5936e-08
9.40952e-08
9.2277e-08
9.04815e-08
8.87088e-08
8.69589e-08
8.52318e-08
8.35276e-08
8.18463e-08
8.0188e-08
7.85525e-08
7.69398e-08
7.53501e-08
7.37831e-08
7.2239e-08
7.07175e-08
6.92187e-08
6.77425e-08
6.62889e-08
6.48576e-08
6.34487e-08
6.20621e-08
6.06975e-08
5.9355e-08
5.80343e-08
5.67355e-08
5.54582e-08
5.42024e-08
5.2968e-08
5.17548e-08
5.05626e-08
4.93912e-08
4.82406e-08
4.71104e-08
4.60007e-08
4.4911e-08
4.38414e-08
4.27916e-08
4.17613e-08
4.07505e-08
3.97588e-08
3.87861e-08
3.78323e-08
3.6897e-08
3.59801e-08
3.50813e-08
3.42005e-08
3.33374e-08
3.24918e-08
3.16635e-08
3.08523e-08
3.00578e-08
2.92801e-08
2.85187e-08
2.77734e-08
2.70441e-08
2.63305e-08
2.56324e-08
2.49496e-08
2.42817e-08
2.36287e-08
2.29902e-08
2.23661e-08
2.17561e-08
2.116e-08
2.05775e-08
2.00085e-08
1.94527e-08
1.89099e-08
1.83799e-08
1.78624e-08
1.73572e-08
1.68642e-08
1.6383e-08
1.59135e-08
1.54555e-08
1.50088e-08
1.45731e-08
1.41482e-08
1.37339e-08
1.33301e-08
1.29365e-08
1.25529e-08
1.21791e-08
1.18149e-08
1.14602e-08
1.11147e-08
1.07782e-08
1.04506e-08
1.01317e-08
9.82125e-09
9.51911e-09
9.22509e-09
8.93902e-09
8.66072e-09
8.39003e-09
8.12676e-09
7.87077e-09
7.62188e-09
7.37992e-09
7.14475e-09
6.9162e-09
6.69412e-09
6.47836e-09
6.26876e-09
6.06519e-09
5.86749e-09
5.67552e-09
5.48915e-09
5.30823e-09
5.13264e-09
4.96223e-09
4.79689e-09
4.63648e-09
4.48087e-09
4.32995e-09
4.1836e-09
4.04169e-09
3.90411e-09
3.77074e-09
3.64148e-09
3.51622e-09
3.39485e-09
3.27727e-09
3.16337e-09
3.05305e-09
2.94622e-09
2.84278e-09
2.74264e-09
2.6457e-09
2.55188e-09
2.46108e-09
2.37323e-09
2.28824e-09
2.20602e-09
2.1265e-09
2.04961e-09
1.97525e-09
1.90337e-09
1.83388e-09
1.76672e-09
1.70182e-09
1.63911e-09
1.57852e-09
1.52e-09
1.46347e-09
1.40889e-09
1.35618e-09
1.3053e-09
1.25618e-09
1.20877e-09
1.16302e-09
1.11888e-09
1.0763e-09
1.03522e-09
9.95609e-10
9.57407e-10
9.20575e-10
8.85069e-10
8.50845e-10
8.17864e-10
7.86084e-10
7.55467e-10
7.25975e-10
6.97572e-10
6.70222e-10
6.4389e-10
6.18543e-10
5.94148e-10
5.70675e-10
5.48092e-10
5.2637e-10
5.0548e-10
4.85395e-10
4.66087e-10
4.47531e-10
4.29702e-10
4.12575e-10
3.96127e-10
3.80334e-10
3.65176e-10
3.5063e-10
3.36677e-10
3.23296e-10
3.10468e-10
2.98176e-10
2.864e-10
2.75125e-10
2.64333e-10
2.54009e-10
2.44137e-10
2.34703e-10
2.25693e-10
2.17093e-10
2.0889e-10
2.01072e-10
1.93627e-10
1.86543e-10
1.7981e-10
1.73417e-10
1.67354e-10
1.61611e-10
1.56181e-10
1.51054e-10
1.46221e-10
1.41677e-10
1.37412e-10
1.33421e-10
1.29697e-10
1.26234e-10
1.23027e-10
1.2007e-10
1.17359e-10
1.14888e-10
1.12655e-10
1.10656e-10
1.08887e-10
1.07345e-10
1.06028e-10
1.04934e-10
1.0406e-10
1.03407e-10
1.02972e-10
1.02754e-10
5.92842e-09
1.77661e-08
2.95489e-08
4.12451e-08
5.28265e-08
6.4268e-08
7.55468e-08
8.66431e-08
9.75388e-08
1.08218e-07
1.18668e-07
1.28876e-07
1.38833e-07
1.48529e-07
1.57959e-07
1.67117e-07
1.75998e-07
1.84601e-07
1.92923e-07
2.00965e-07
2.08725e-07
2.16207e-07
2.23411e-07
2.3034e-07
2.36998e-07
2.43388e-07
2.49514e-07
2.55381e-07
2.60994e-07
2.66358e-07
2.71477e-07
2.76358e-07
2.81006e-07
2.85426e-07
2.89625e-07
2.93607e-07
2.97378e-07
3.00945e-07
3.04311e-07
3.07484e-07
3.10468e-07
3.13269e-07
3.15892e-07
3.18341e-07
3.20622e-07
3.2274e-07
3.24699e-07
3.26504e-07
3.28159e-07
3.29669e-07
3.31038e-07
3.3227e-07
3.33369e-07
3.34338e-07
3.35181e-07
3.35903e-07
3.36506e-07
3.36994e-07
3.3737e-07
3.37637e-07
3.37799e-07
3.37857e-07
3.37816e-07
3.37678e-07
3.37445e-07
3.37121e-07
3.36707e-07
3.36207e-07
3.35622e-07
3.34955e-07
3.34209e-07
3.33385e-07
3.32486e-07
3.31513e-07
3.3047e-07
3.29357e-07
3.28177e-07
3.26932e-07
3.25623e-07
3.24253e-07
3.22822e-07
3.21334e-07
3.1979e-07
3.18191e-07
3.16539e-07
3.14836e-07
3.13083e-07
3.11282e-07
3.09434e-07
3.07542e-07
3.05605e-07
3.03627e-07
3.01608e-07
2.99551e-07
2.97455e-07
2.95323e-07
2.93156e-07
2.90955e-07
2.88723e-07
2.86459e-07
2.84166e-07
2.81844e-07
2.79495e-07
2.77121e-07
2.74722e-07
2.723e-07
2.69855e-07
2.6739e-07
2.64905e-07
2.62401e-07
2.59881e-07
2.57343e-07
2.54791e-07
2.52225e-07
2.49645e-07
2.47054e-07
2.44452e-07
2.4184e-07
2.3922e-07
2.36591e-07
2.33956e-07
2.31316e-07
2.2867e-07
2.26021e-07
2.23368e-07
2.20714e-07
2.18059e-07
2.15403e-07
2.12748e-07
2.10095e-07
2.07444e-07
2.04796e-07
2.02152e-07
1.99513e-07
1.9688e-07
1.94253e-07
1.91633e-07
1.8902e-07
1.86416e-07
1.83822e-07
1.81237e-07
1.78662e-07
1.76099e-07
1.73548e-07
1.71008e-07
1.68482e-07
1.65969e-07
1.63471e-07
1.60987e-07
1.58518e-07
1.56064e-07
1.53627e-07
1.51206e-07
1.48803e-07
1.46416e-07
1.44048e-07
1.41698e-07
1.39367e-07
1.37054e-07
1.34761e-07
1.32488e-07
1.30235e-07
1.28002e-07
1.2579e-07
1.23599e-07
1.21429e-07
1.19281e-07
1.17154e-07
1.15049e-07
1.12966e-07
1.10906e-07
1.08868e-07
1.06853e-07
1.0486e-07
1.02891e-07
1.00944e-07
9.90211e-08
9.7121e-08
9.52444e-08
9.33912e-08
9.15615e-08
8.97553e-08
8.79727e-08
8.62137e-08
8.44784e-08
8.27667e-08
8.10786e-08
7.94141e-08
7.77732e-08
7.61559e-08
7.45621e-08
7.29917e-08
7.14447e-08
6.99211e-08
6.84206e-08
6.69434e-08
6.54892e-08
6.40579e-08
6.26495e-08
6.12638e-08
5.99007e-08
5.856e-08
5.72417e-08
5.59456e-08
5.46714e-08
5.34192e-08
5.21886e-08
5.09796e-08
4.9792e-08
4.86255e-08
4.748e-08
4.63554e-08
4.52513e-08
4.41677e-08
4.31043e-08
4.2061e-08
4.10374e-08
4.00335e-08
3.90489e-08
3.80836e-08
3.71372e-08
3.62095e-08
3.53004e-08
3.44095e-08
3.35367e-08
3.26818e-08
3.18444e-08
3.10245e-08
3.02217e-08
2.94358e-08
2.86666e-08
2.79138e-08
2.71773e-08
2.64567e-08
2.57519e-08
2.50626e-08
2.43886e-08
2.37296e-08
2.30854e-08
2.24558e-08
2.18405e-08
2.12393e-08
2.0652e-08
2.00783e-08
1.9518e-08
1.8971e-08
1.84368e-08
1.79154e-08
1.74065e-08
1.69099e-08
1.64253e-08
1.59526e-08
1.54915e-08
1.50417e-08
1.46032e-08
1.41756e-08
1.37588e-08
1.33525e-08
1.29566e-08
1.25708e-08
1.21949e-08
1.18288e-08
1.14721e-08
1.11249e-08
1.07867e-08
1.04575e-08
1.01371e-08
9.82524e-09
9.52176e-09
9.22649e-09
8.93924e-09
8.65984e-09
8.38812e-09
8.12389e-09
7.86699e-09
7.61726e-09
7.37452e-09
7.13862e-09
6.9094e-09
6.6867e-09
6.47036e-09
6.26024e-09
6.05618e-09
5.85804e-09
5.66567e-09
5.47894e-09
5.2977e-09
5.12182e-09
4.95115e-09
4.78558e-09
4.62497e-09
4.4692e-09
4.31814e-09
4.17166e-09
4.02966e-09
3.89201e-09
3.75859e-09
3.6293e-09
3.50403e-09
3.38266e-09
3.2651e-09
3.15124e-09
3.04097e-09
2.9342e-09
2.83084e-09
2.73078e-09
2.63394e-09
2.54023e-09
2.44955e-09
2.36183e-09
2.27697e-09
2.19489e-09
2.11552e-09
2.03878e-09
1.96458e-09
1.89286e-09
1.82354e-09
1.75655e-09
1.69182e-09
1.62929e-09
1.56888e-09
1.51054e-09
1.45419e-09
1.39979e-09
1.34727e-09
1.29658e-09
1.24764e-09
1.20043e-09
1.15487e-09
1.11091e-09
1.06852e-09
1.02763e-09
9.88197e-10
9.5018e-10
9.13532e-10
8.78208e-10
8.44165e-10
8.11364e-10
7.79762e-10
7.49322e-10
7.20005e-10
6.91775e-10
6.64597e-10
6.38435e-10
6.13255e-10
5.89027e-10
5.65718e-10
5.43297e-10
5.21736e-10
5.01004e-10
4.81076e-10
4.61923e-10
4.43521e-10
4.25843e-10
4.08866e-10
3.92565e-10
3.7692e-10
3.61906e-10
3.47504e-10
3.33693e-10
3.20453e-10
3.07765e-10
2.95611e-10
2.83973e-10
2.72834e-10
2.62178e-10
2.51988e-10
2.42251e-10
2.32951e-10
2.24075e-10
2.15608e-10
2.07539e-10
1.99854e-10
1.92542e-10
1.85592e-10
1.78994e-10
1.72736e-10
1.66809e-10
1.61203e-10
1.55911e-10
1.50924e-10
1.46233e-10
1.41831e-10
1.37712e-10
1.33868e-10
1.30294e-10
1.26983e-10
1.23931e-10
1.21133e-10
1.18583e-10
1.16278e-10
1.14214e-10
1.12388e-10
1.10797e-10
1.09438e-10
1.08308e-10
1.07407e-10
1.06732e-10
1.06283e-10
1.06059e-10
5.98724e-09
1.79452e-08
2.98545e-08
4.16852e-08
5.34099e-08
6.50037e-08
7.6444e-08
8.77104e-08
9.87847e-08
1.09651e-07
1.20294e-07
1.30702e-07
1.40865e-07
1.50772e-07
1.60417e-07
1.69793e-07
1.78896e-07
1.87722e-07
1.96268e-07
2.04534e-07
2.12519e-07
2.20224e-07
2.2765e-07
2.34799e-07
2.41674e-07
2.48278e-07
2.54615e-07
2.60688e-07
2.66503e-07
2.72063e-07
2.77375e-07
2.82442e-07
2.87271e-07
2.91867e-07
2.96235e-07
3.00381e-07
3.0431e-07
3.08028e-07
3.11541e-07
3.14853e-07
3.1797e-07
3.20898e-07
3.23642e-07
3.26207e-07
3.28597e-07
3.30818e-07
3.32875e-07
3.34772e-07
3.36514e-07
3.38105e-07
3.3955e-07
3.40852e-07
3.42016e-07
3.43045e-07
3.43945e-07
3.44717e-07
3.45366e-07
3.45896e-07
3.46309e-07
3.4661e-07
3.468e-07
3.46884e-07
3.46864e-07
3.46743e-07
3.46524e-07
3.4621e-07
3.45803e-07
3.45306e-07
3.44721e-07
3.44052e-07
3.43299e-07
3.42467e-07
3.41556e-07
3.40569e-07
3.39508e-07
3.38375e-07
3.37173e-07
3.35903e-07
3.34568e-07
3.33168e-07
3.31707e-07
3.30185e-07
3.28605e-07
3.26969e-07
3.25278e-07
3.23533e-07
3.21737e-07
3.19892e-07
3.17998e-07
3.16058e-07
3.14072e-07
3.12043e-07
3.09972e-07
3.07861e-07
3.0571e-07
3.03522e-07
3.01298e-07
2.99039e-07
2.96747e-07
2.94423e-07
2.92068e-07
2.89684e-07
2.87272e-07
2.84833e-07
2.8237e-07
2.79881e-07
2.77371e-07
2.74838e-07
2.72285e-07
2.69713e-07
2.67123e-07
2.64517e-07
2.61894e-07
2.59257e-07
2.56607e-07
2.53944e-07
2.5127e-07
2.48587e-07
2.45894e-07
2.43193e-07
2.40485e-07
2.37771e-07
2.35052e-07
2.32329e-07
2.29603e-07
2.26875e-07
2.24146e-07
2.21417e-07
2.18688e-07
2.15961e-07
2.13237e-07
2.10515e-07
2.07798e-07
2.05085e-07
2.02379e-07
1.99678e-07
1.96985e-07
1.943e-07
1.91624e-07
1.88957e-07
1.863e-07
1.83653e-07
1.81019e-07
1.78396e-07
1.75786e-07
1.73189e-07
1.70606e-07
1.68038e-07
1.65485e-07
1.62947e-07
1.60425e-07
1.5792e-07
1.55431e-07
1.5296e-07
1.50508e-07
1.48073e-07
1.45657e-07
1.43261e-07
1.40884e-07
1.38527e-07
1.3619e-07
1.33874e-07
1.31579e-07
1.29305e-07
1.27053e-07
1.24823e-07
1.22614e-07
1.20428e-07
1.18264e-07
1.16123e-07
1.14005e-07
1.11911e-07
1.09839e-07
1.07791e-07
1.05766e-07
1.03765e-07
1.01788e-07
9.98353e-08
9.79063e-08
9.60013e-08
9.41204e-08
9.22638e-08
9.04314e-08
8.86232e-08
8.68394e-08
8.50798e-08
8.33446e-08
8.16336e-08
7.99469e-08
7.82843e-08
7.6646e-08
7.50317e-08
7.34415e-08
7.18753e-08
7.03329e-08
6.88144e-08
6.73195e-08
6.58482e-08
6.44005e-08
6.2976e-08
6.15748e-08
6.01967e-08
5.88415e-08
5.75092e-08
5.61994e-08
5.49122e-08
5.36472e-08
5.24044e-08
5.11836e-08
4.99845e-08
4.8807e-08
4.76509e-08
4.65161e-08
4.54022e-08
4.43091e-08
4.32365e-08
4.21844e-08
4.11524e-08
4.01403e-08
3.9148e-08
3.81751e-08
3.72215e-08
3.6287e-08
3.53712e-08
3.4474e-08
3.35952e-08
3.27345e-08
3.18916e-08
3.10664e-08
3.02585e-08
2.94678e-08
2.8694e-08
2.79369e-08
2.71962e-08
2.64717e-08
2.57631e-08
2.50702e-08
2.43928e-08
2.37306e-08
2.30834e-08
2.24509e-08
2.18329e-08
2.12292e-08
2.06395e-08
2.00636e-08
1.95012e-08
1.89521e-08
1.84162e-08
1.7893e-08
1.73825e-08
1.68844e-08
1.63984e-08
1.59244e-08
1.54621e-08
1.50113e-08
1.45718e-08
1.41433e-08
1.37257e-08
1.33187e-08
1.29221e-08
1.25357e-08
1.21594e-08
1.17928e-08
1.14358e-08
1.10882e-08
1.07498e-08
1.04204e-08
1.00999e-08
9.78789e-09
9.48437e-09
9.18909e-09
8.90188e-09
8.62256e-09
8.35095e-09
8.08687e-09
7.83016e-09
7.58064e-09
7.33814e-09
7.10252e-09
6.87359e-09
6.65121e-09
6.43521e-09
6.22545e-09
6.02177e-09
5.82403e-09
5.63208e-09
5.44577e-09
5.26497e-09
5.08954e-09
4.91934e-09
4.75424e-09
4.59411e-09
4.43883e-09
4.28826e-09
4.14229e-09
4.00079e-09
3.86364e-09
3.73074e-09
3.60197e-09
3.47721e-09
3.35636e-09
3.23931e-09
3.12597e-09
3.01622e-09
2.90996e-09
2.80711e-09
2.70756e-09
2.61123e-09
2.51802e-09
2.42784e-09
2.34061e-09
2.25624e-09
2.17465e-09
2.09576e-09
2.01949e-09
1.94576e-09
1.87451e-09
1.80564e-09
1.73911e-09
1.67482e-09
1.61273e-09
1.55276e-09
1.49484e-09
1.43892e-09
1.38493e-09
1.33281e-09
1.28252e-09
1.23398e-09
1.18714e-09
1.14196e-09
1.09838e-09
1.05635e-09
1.01582e-09
9.76738e-10
9.39065e-10
9.02754e-10
8.6776e-10
8.34041e-10
8.01557e-10
7.70266e-10
7.4013e-10
7.11111e-10
6.83172e-10
6.56279e-10
6.30396e-10
6.05491e-10
5.8153e-10
5.58482e-10
5.36318e-10
5.15008e-10
4.94522e-10
4.74834e-10
4.55917e-10
4.37745e-10
4.20294e-10
4.03538e-10
3.87455e-10
3.72022e-10
3.57217e-10
3.4302e-10
3.2941e-10
3.16367e-10
3.03873e-10
2.9191e-10
2.80459e-10
2.69506e-10
2.59032e-10
2.49022e-10
2.39462e-10
2.30338e-10
2.21634e-10
2.13339e-10
2.0544e-10
1.97924e-10
1.9078e-10
1.83997e-10
1.77564e-10
1.71471e-10
1.65709e-10
1.60269e-10
1.55142e-10
1.5032e-10
1.45795e-10
1.41561e-10
1.3761e-10
1.33936e-10
1.30533e-10
1.27395e-10
1.24518e-10
1.21897e-10
1.19528e-10
1.17407e-10
1.15529e-10
1.13894e-10
1.12496e-10
1.11335e-10
1.10409e-10
1.09715e-10
1.09254e-10
1.09023e-10
6.04232e-09
1.81119e-08
3.01369e-08
4.2089e-08
5.39418e-08
6.56709e-08
7.72538e-08
8.86701e-08
9.99013e-08
1.10931e-07
1.21744e-07
1.32327e-07
1.4267e-07
1.52762e-07
1.62595e-07
1.72162e-07
1.81459e-07
1.9048e-07
1.99223e-07
2.07686e-07
2.15868e-07
2.23769e-07
2.31389e-07
2.38731e-07
2.45797e-07
2.52588e-07
2.59109e-07
2.65364e-07
2.71356e-07
2.7709e-07
2.8257e-07
2.87802e-07
2.9279e-07
2.97541e-07
3.02058e-07
3.06348e-07
3.10417e-07
3.14268e-07
3.17909e-07
3.21345e-07
3.2458e-07
3.2762e-07
3.30471e-07
3.33137e-07
3.35624e-07
3.37937e-07
3.4008e-07
3.42059e-07
3.43877e-07
3.4554e-07
3.47051e-07
3.48416e-07
3.49638e-07
3.50721e-07
3.5167e-07
3.52488e-07
3.53178e-07
3.53745e-07
3.54191e-07
3.54521e-07
3.54737e-07
3.54843e-07
3.54842e-07
3.54737e-07
3.5453e-07
3.54225e-07
3.53824e-07
3.53331e-07
3.52746e-07
3.52074e-07
3.51317e-07
3.50476e-07
3.49555e-07
3.48556e-07
3.4748e-07
3.4633e-07
3.45108e-07
3.43817e-07
3.42457e-07
3.41032e-07
3.39543e-07
3.37992e-07
3.36381e-07
3.34712e-07
3.32986e-07
3.31206e-07
3.29372e-07
3.27487e-07
3.25553e-07
3.2357e-07
3.21541e-07
3.19468e-07
3.17351e-07
3.15192e-07
3.12993e-07
3.10756e-07
3.08481e-07
3.06171e-07
3.03827e-07
3.01449e-07
2.9904e-07
2.96601e-07
2.94133e-07
2.91638e-07
2.89117e-07
2.86571e-07
2.84001e-07
2.81409e-07
2.78797e-07
2.76164e-07
2.73514e-07
2.70845e-07
2.68161e-07
2.65462e-07
2.62749e-07
2.60023e-07
2.57286e-07
2.54539e-07
2.51782e-07
2.49017e-07
2.46245e-07
2.43466e-07
2.40683e-07
2.37895e-07
2.35104e-07
2.32311e-07
2.29517e-07
2.26723e-07
2.23929e-07
2.21137e-07
2.18347e-07
2.15561e-07
2.12779e-07
2.10001e-07
2.0723e-07
2.04465e-07
2.01708e-07
1.98958e-07
1.96218e-07
1.93487e-07
1.90766e-07
1.88057e-07
1.85359e-07
1.82674e-07
1.80001e-07
1.77342e-07
1.74698e-07
1.72068e-07
1.69453e-07
1.66854e-07
1.64272e-07
1.61707e-07
1.59159e-07
1.56629e-07
1.54117e-07
1.51625e-07
1.49151e-07
1.46697e-07
1.44263e-07
1.4185e-07
1.39457e-07
1.37085e-07
1.34735e-07
1.32407e-07
1.30101e-07
1.27817e-07
1.25555e-07
1.23317e-07
1.21101e-07
1.18909e-07
1.1674e-07
1.14595e-07
1.12474e-07
1.10376e-07
1.08303e-07
1.06255e-07
1.0423e-07
1.0223e-07
1.00255e-07
9.83041e-08
9.63781e-08
9.4477e-08
9.26006e-08
9.07491e-08
8.89225e-08
8.71207e-08
8.53439e-08
8.35918e-08
8.18646e-08
8.01622e-08
7.84846e-08
7.68316e-08
7.52032e-08
7.35994e-08
7.20201e-08
7.04651e-08
6.89344e-08
6.74278e-08
6.59453e-08
6.44867e-08
6.30519e-08
6.16407e-08
6.02531e-08
5.88887e-08
5.75476e-08
5.62295e-08
5.49342e-08
5.36615e-08
5.24114e-08
5.11836e-08
4.99778e-08
4.8794e-08
4.76319e-08
4.64913e-08
4.5372e-08
4.42737e-08
4.31963e-08
4.21396e-08
4.11032e-08
4.00871e-08
3.90909e-08
3.81144e-08
3.71574e-08
3.62197e-08
3.5301e-08
3.44011e-08
3.35197e-08
3.26566e-08
3.18116e-08
3.09844e-08
3.01747e-08
2.93823e-08
2.86071e-08
2.78486e-08
2.71067e-08
2.63811e-08
2.56716e-08
2.4978e-08
2.42999e-08
2.36371e-08
2.29895e-08
2.23567e-08
2.17384e-08
2.11346e-08
2.05449e-08
1.9969e-08
1.94068e-08
1.88579e-08
1.83223e-08
1.77995e-08
1.72894e-08
1.67918e-08
1.63064e-08
1.5833e-08
1.53714e-08
1.49214e-08
1.44826e-08
1.4055e-08
1.36382e-08
1.32321e-08
1.28364e-08
1.2451e-08
1.20757e-08
1.17101e-08
1.13542e-08
1.10077e-08
1.06704e-08
1.03421e-08
1.00227e-08
9.71188e-09
9.40952e-09
9.11543e-09
8.8294e-09
8.55127e-09
8.28086e-09
8.01799e-09
7.76248e-09
7.51417e-09
7.27289e-09
7.03847e-09
6.81076e-09
6.58958e-09
6.37479e-09
6.16622e-09
5.96374e-09
5.76718e-09
5.5764e-09
5.39127e-09
5.21163e-09
5.03735e-09
4.86829e-09
4.70432e-09
4.54531e-09
4.39113e-09
4.24165e-09
4.09676e-09
3.95633e-09
3.82023e-09
3.68837e-09
3.56062e-09
3.43687e-09
3.31702e-09
3.20095e-09
3.08857e-09
2.97977e-09
2.87445e-09
2.77251e-09
2.67387e-09
2.57842e-09
2.48608e-09
2.39675e-09
2.31036e-09
2.22681e-09
2.14603e-09
2.06793e-09
1.99244e-09
1.91947e-09
1.84896e-09
1.78082e-09
1.715e-09
1.65142e-09
1.59e-09
1.5307e-09
1.47343e-09
1.41815e-09
1.36479e-09
1.31328e-09
1.26358e-09
1.21562e-09
1.16936e-09
1.12473e-09
1.08169e-09
1.04018e-09
1.00017e-09
9.61591e-10
9.24409e-10
8.88575e-10
8.54048e-10
8.20784e-10
7.88742e-10
7.57883e-10
7.28168e-10
6.9956e-10
6.72021e-10
6.45518e-10
6.20015e-10
5.95479e-10
5.71879e-10
5.49183e-10
5.27361e-10
5.06385e-10
4.86224e-10
4.66854e-10
4.48246e-10
4.30375e-10
4.13218e-10
3.96749e-10
3.80945e-10
3.65786e-10
3.51248e-10
3.37311e-10
3.23956e-10
3.11162e-10
2.98912e-10
2.87187e-10
2.7597e-10
2.65245e-10
2.54996e-10
2.45206e-10
2.35863e-10
2.26951e-10
2.18457e-10
2.10368e-10
2.02672e-10
1.95356e-10
1.8841e-10
1.81823e-10
1.75584e-10
1.69684e-10
1.64113e-10
1.58863e-10
1.53926e-10
1.49293e-10
1.44957e-10
1.40911e-10
1.37148e-10
1.33664e-10
1.30451e-10
1.27505e-10
1.24821e-10
1.22395e-10
1.20223e-10
1.18301e-10
1.16626e-10
1.15195e-10
1.14006e-10
1.13057e-10
1.12347e-10
1.11874e-10
1.11638e-10
6.09179e-09
1.82613e-08
3.0389e-08
4.24479e-08
5.44126e-08
6.62593e-08
7.79656e-08
8.95112e-08
1.00877e-07
1.12048e-07
1.23006e-07
1.3374e-07
1.44237e-07
1.54487e-07
1.64482e-07
1.74213e-07
1.83676e-07
1.92864e-07
2.01776e-07
2.10408e-07
2.18758e-07
2.26827e-07
2.34615e-07
2.42123e-07
2.49352e-07
2.56305e-07
2.62985e-07
2.69395e-07
2.7554e-07
2.81423e-07
2.87048e-07
2.92422e-07
2.97548e-07
3.02431e-07
3.07078e-07
3.11492e-07
3.1568e-07
3.19648e-07
3.23399e-07
3.26941e-07
3.30278e-07
3.33415e-07
3.36358e-07
3.39113e-07
3.41683e-07
3.44075e-07
3.46293e-07
3.48342e-07
3.50227e-07
3.51952e-07
3.53521e-07
3.5494e-07
3.56212e-07
3.57342e-07
3.58333e-07
3.5919e-07
3.59916e-07
3.60515e-07
3.6099e-07
3.61346e-07
3.61585e-07
3.6171e-07
3.61725e-07
3.61634e-07
3.61438e-07
3.61141e-07
3.60746e-07
3.60255e-07
3.59671e-07
3.58997e-07
3.58235e-07
3.57388e-07
3.56458e-07
3.55448e-07
3.54359e-07
3.53195e-07
3.51956e-07
3.50646e-07
3.49267e-07
3.47819e-07
3.46307e-07
3.4473e-07
3.43093e-07
3.41395e-07
3.39639e-07
3.37827e-07
3.35961e-07
3.34043e-07
3.32073e-07
3.30054e-07
3.27988e-07
3.25876e-07
3.23719e-07
3.2152e-07
3.1928e-07
3.17e-07
3.14682e-07
3.12327e-07
3.09937e-07
3.07514e-07
3.05058e-07
3.02571e-07
3.00055e-07
2.97511e-07
2.94941e-07
2.92345e-07
2.89724e-07
2.87082e-07
2.84417e-07
2.81733e-07
2.79029e-07
2.76308e-07
2.73571e-07
2.70818e-07
2.68051e-07
2.65271e-07
2.62479e-07
2.59677e-07
2.56865e-07
2.54044e-07
2.51217e-07
2.48382e-07
2.45543e-07
2.427e-07
2.39853e-07
2.37004e-07
2.34154e-07
2.31303e-07
2.28453e-07
2.25605e-07
2.22759e-07
2.19916e-07
2.17078e-07
2.14245e-07
2.11418e-07
2.08597e-07
2.05784e-07
2.02979e-07
2.00184e-07
1.97398e-07
1.94622e-07
1.91858e-07
1.89106e-07
1.86366e-07
1.8364e-07
1.80927e-07
1.78229e-07
1.75546e-07
1.72879e-07
1.70228e-07
1.67593e-07
1.64976e-07
1.62377e-07
1.59796e-07
1.57233e-07
1.5469e-07
1.52167e-07
1.49663e-07
1.4718e-07
1.44718e-07
1.42277e-07
1.39857e-07
1.3746e-07
1.35084e-07
1.32731e-07
1.30401e-07
1.28094e-07
1.2581e-07
1.2355e-07
1.21313e-07
1.19101e-07
1.16912e-07
1.14748e-07
1.12608e-07
1.10493e-07
1.08403e-07
1.06338e-07
1.04297e-07
1.02282e-07
1.00292e-07
9.8327e-08
9.63874e-08
9.44731e-08
9.25842e-08
9.07206e-08
8.88825e-08
8.70696e-08
8.52822e-08
8.35201e-08
8.17832e-08
8.00716e-08
7.83852e-08
7.6724e-08
7.50877e-08
7.34764e-08
7.189e-08
7.03284e-08
6.87913e-08
6.72789e-08
6.57908e-08
6.43269e-08
6.28872e-08
6.14715e-08
6.00796e-08
5.87113e-08
5.73665e-08
5.6045e-08
5.47467e-08
5.34713e-08
5.22186e-08
5.09885e-08
4.97807e-08
4.85951e-08
4.74314e-08
4.62895e-08
4.5169e-08
4.40698e-08
4.29917e-08
4.19344e-08
4.08977e-08
3.98814e-08
3.88852e-08
3.79088e-08
3.69522e-08
3.60149e-08
3.50968e-08
3.41976e-08
3.3317e-08
3.24549e-08
3.16109e-08
3.07849e-08
2.99765e-08
2.91855e-08
2.84117e-08
2.76548e-08
2.69146e-08
2.61907e-08
2.54831e-08
2.47913e-08
2.41151e-08
2.34544e-08
2.28087e-08
2.2178e-08
2.1562e-08
2.09603e-08
2.03728e-08
1.97992e-08
1.92393e-08
1.86928e-08
1.81594e-08
1.76391e-08
1.71314e-08
1.66362e-08
1.61532e-08
1.56823e-08
1.52231e-08
1.47755e-08
1.43392e-08
1.3914e-08
1.34997e-08
1.3096e-08
1.27028e-08
1.23199e-08
1.19469e-08
1.15838e-08
1.12303e-08
1.08862e-08
1.05513e-08
1.02254e-08
9.90827e-09
9.5998e-09
9.29975e-09
9.00794e-09
8.72419e-09
8.44831e-09
8.18012e-09
7.91945e-09
7.66612e-09
7.41996e-09
7.1808e-09
6.94848e-09
6.72283e-09
6.50369e-09
6.29091e-09
6.08433e-09
5.8838e-09
5.68917e-09
5.50029e-09
5.31701e-09
5.13921e-09
4.96673e-09
4.79945e-09
4.63722e-09
4.47992e-09
4.32742e-09
4.1796e-09
4.03633e-09
3.89748e-09
3.76295e-09
3.63262e-09
3.50637e-09
3.38409e-09
3.26568e-09
3.15102e-09
3.04002e-09
2.93257e-09
2.82858e-09
2.72794e-09
2.63056e-09
2.53635e-09
2.44522e-09
2.35708e-09
2.27184e-09
2.18943e-09
2.10975e-09
2.03273e-09
1.95828e-09
1.88634e-09
1.81683e-09
1.74968e-09
1.68481e-09
1.62215e-09
1.56165e-09
1.50323e-09
1.44683e-09
1.39238e-09
1.33984e-09
1.28913e-09
1.2402e-09
1.193e-09
1.14747e-09
1.10356e-09
1.06122e-09
1.02039e-09
9.81035e-10
9.43101e-10
9.06543e-10
8.71317e-10
8.37381e-10
8.04691e-10
7.73208e-10
7.42893e-10
7.13705e-10
6.8561e-10
6.58571e-10
6.32552e-10
6.0752e-10
5.83443e-10
5.60288e-10
5.38025e-10
5.16624e-10
4.96056e-10
4.76294e-10
4.5731e-10
4.39078e-10
4.21573e-10
4.04771e-10
3.88648e-10
3.73182e-10
3.5835e-10
3.44132e-10
3.30506e-10
3.17454e-10
3.04956e-10
2.92994e-10
2.8155e-10
2.70608e-10
2.60152e-10
2.50165e-10
2.40632e-10
2.3154e-10
2.22874e-10
2.14622e-10
2.0677e-10
1.99306e-10
1.9222e-10
1.85499e-10
1.79135e-10
1.73115e-10
1.67432e-10
1.62076e-10
1.57038e-10
1.52311e-10
1.47888e-10
1.4376e-10
1.39921e-10
1.36366e-10
1.33089e-10
1.30083e-10
1.27345e-10
1.2487e-10
1.22654e-10
1.20693e-10
1.18984e-10
1.17524e-10
1.16311e-10
1.15343e-10
1.14619e-10
1.14136e-10
1.13895e-10
6.13444e-09
1.839e-08
3.06056e-08
4.27555e-08
5.48151e-08
6.67609e-08
7.85709e-08
9.02249e-08
1.01704e-07
1.12992e-07
1.24072e-07
1.34931e-07
1.45557e-07
1.55939e-07
1.66068e-07
1.75936e-07
1.85537e-07
1.94866e-07
2.03918e-07
2.1269e-07
2.21182e-07
2.29391e-07
2.37318e-07
2.44964e-07
2.5233e-07
2.59418e-07
2.6623e-07
2.72771e-07
2.79043e-07
2.85051e-07
2.90798e-07
2.9629e-07
3.01531e-07
3.06526e-07
3.1128e-07
3.15799e-07
3.20088e-07
3.24151e-07
3.27996e-07
3.31627e-07
3.35049e-07
3.38268e-07
3.41289e-07
3.44117e-07
3.46758e-07
3.49216e-07
3.51497e-07
3.53605e-07
3.55545e-07
3.57322e-07
3.58941e-07
3.60405e-07
3.61719e-07
3.62888e-07
3.63915e-07
3.64805e-07
3.65561e-07
3.66187e-07
3.66687e-07
3.67064e-07
3.67322e-07
3.67464e-07
3.67493e-07
3.67413e-07
3.67226e-07
3.66936e-07
3.66545e-07
3.66057e-07
3.65474e-07
3.64798e-07
3.64033e-07
3.6318e-07
3.62243e-07
3.61224e-07
3.60125e-07
3.58948e-07
3.57695e-07
3.5637e-07
3.54973e-07
3.53508e-07
3.51975e-07
3.50378e-07
3.48717e-07
3.46996e-07
3.45215e-07
3.43378e-07
3.41484e-07
3.39537e-07
3.37538e-07
3.35489e-07
3.33391e-07
3.31247e-07
3.29057e-07
3.26824e-07
3.24549e-07
3.22233e-07
3.19879e-07
3.17487e-07
3.15059e-07
3.12597e-07
3.10102e-07
3.07576e-07
3.0502e-07
3.02435e-07
2.99822e-07
2.97184e-07
2.94522e-07
2.91836e-07
2.89129e-07
2.864e-07
2.83653e-07
2.80887e-07
2.78105e-07
2.75307e-07
2.72495e-07
2.69669e-07
2.66832e-07
2.63983e-07
2.61125e-07
2.58258e-07
2.55384e-07
2.52503e-07
2.49617e-07
2.46727e-07
2.43833e-07
2.40937e-07
2.3804e-07
2.35142e-07
2.32245e-07
2.2935e-07
2.26457e-07
2.23567e-07
2.20682e-07
2.17802e-07
2.14928e-07
2.12061e-07
2.09201e-07
2.0635e-07
2.03508e-07
2.00676e-07
1.97854e-07
1.95045e-07
1.92247e-07
1.89462e-07
1.8669e-07
1.83932e-07
1.8119e-07
1.78462e-07
1.7575e-07
1.73055e-07
1.70377e-07
1.67717e-07
1.65074e-07
1.6245e-07
1.59845e-07
1.5726e-07
1.54694e-07
1.52149e-07
1.49625e-07
1.47122e-07
1.4464e-07
1.42181e-07
1.39743e-07
1.37328e-07
1.34936e-07
1.32567e-07
1.30222e-07
1.279e-07
1.25602e-07
1.23329e-07
1.21079e-07
1.18855e-07
1.16654e-07
1.14479e-07
1.12329e-07
1.10204e-07
1.08104e-07
1.0603e-07
1.03981e-07
1.01958e-07
9.99607e-08
9.79889e-08
9.60428e-08
9.41225e-08
9.22279e-08
9.03592e-08
8.85163e-08
8.66991e-08
8.49078e-08
8.31421e-08
8.1402e-08
7.96876e-08
7.79987e-08
7.63353e-08
7.46973e-08
7.30845e-08
7.14969e-08
6.99343e-08
6.83967e-08
6.68839e-08
6.53957e-08
6.39321e-08
6.24929e-08
6.10778e-08
5.96868e-08
5.83197e-08
5.69762e-08
5.56563e-08
5.43597e-08
5.30862e-08
5.18357e-08
5.06078e-08
4.94025e-08
4.82195e-08
4.70586e-08
4.59195e-08
4.48021e-08
4.3706e-08
4.26312e-08
4.15772e-08
4.0544e-08
3.95312e-08
3.85387e-08
3.75661e-08
3.66133e-08
3.56799e-08
3.47658e-08
3.38706e-08
3.29941e-08
3.21362e-08
3.12964e-08
3.04746e-08
2.96705e-08
2.88838e-08
2.81143e-08
2.73618e-08
2.66259e-08
2.59065e-08
2.52032e-08
2.45158e-08
2.38441e-08
2.31877e-08
2.25465e-08
2.19202e-08
2.13086e-08
2.07113e-08
2.01282e-08
1.95589e-08
1.90033e-08
1.84612e-08
1.79321e-08
1.7416e-08
1.69126e-08
1.64216e-08
1.59428e-08
1.5476e-08
1.5021e-08
1.45774e-08
1.41452e-08
1.3724e-08
1.33136e-08
1.29139e-08
1.25246e-08
1.21454e-08
1.17763e-08
1.14169e-08
1.1067e-08
1.07266e-08
1.03953e-08
1.00729e-08
9.7593e-09
9.45427e-09
9.15761e-09
8.86914e-09
8.58868e-09
8.31604e-09
8.05103e-09
7.79349e-09
7.54324e-09
7.30011e-09
7.06393e-09
6.83453e-09
6.61175e-09
6.39543e-09
6.18542e-09
5.98156e-09
5.78369e-09
5.59167e-09
5.40535e-09
5.22459e-09
5.04925e-09
4.87919e-09
4.71427e-09
4.55435e-09
4.39932e-09
4.24904e-09
4.10339e-09
3.96224e-09
3.82547e-09
3.69298e-09
3.56463e-09
3.44032e-09
3.31994e-09
3.20338e-09
3.09053e-09
2.98129e-09
2.87557e-09
2.77326e-09
2.67426e-09
2.57849e-09
2.48585e-09
2.39624e-09
2.30959e-09
2.2258e-09
2.1448e-09
2.0665e-09
1.99082e-09
1.91769e-09
1.84702e-09
1.77875e-09
1.7128e-09
1.64911e-09
1.5876e-09
1.5282e-09
1.47087e-09
1.41552e-09
1.3621e-09
1.31055e-09
1.26081e-09
1.21282e-09
1.16654e-09
1.1219e-09
1.07885e-09
1.03734e-09
9.97334e-10
9.5877e-10
9.21605e-10
8.85794e-10
8.51293e-10
8.18061e-10
7.86055e-10
7.55235e-10
7.25563e-10
6.97001e-10
6.69512e-10
6.43061e-10
6.17614e-10
5.93136e-10
5.69597e-10
5.46964e-10
5.25207e-10
5.04298e-10
4.84207e-10
4.64907e-10
4.46373e-10
4.28577e-10
4.11496e-10
3.95106e-10
3.79382e-10
3.64304e-10
3.49849e-10
3.35997e-10
3.22728e-10
3.10023e-10
2.97862e-10
2.86228e-10
2.75104e-10
2.64474e-10
2.54321e-10
2.4463e-10
2.35387e-10
2.26577e-10
2.18187e-10
2.10205e-10
2.02618e-10
1.95413e-10
1.88581e-10
1.82111e-10
1.75991e-10
1.70214e-10
1.64768e-10
1.59647e-10
1.54842e-10
1.50345e-10
1.46148e-10
1.42246e-10
1.38632e-10
1.353e-10
1.32245e-10
1.29461e-10
1.26945e-10
1.24692e-10
1.22698e-10
1.20961e-10
1.19476e-10
1.18243e-10
1.17259e-10
1.16523e-10
1.16033e-10
1.15788e-10
6.16944e-09
1.84954e-08
3.0783e-08
4.3007e-08
5.51435e-08
6.71693e-08
7.9063e-08
9.08041e-08
1.02374e-07
1.13756e-07
1.24933e-07
1.35893e-07
1.46622e-07
1.5711e-07
1.67346e-07
1.77324e-07
1.87036e-07
1.96476e-07
2.0564e-07
2.14526e-07
2.2313e-07
2.31452e-07
2.3949e-07
2.47247e-07
2.54722e-07
2.61918e-07
2.68837e-07
2.75482e-07
2.81857e-07
2.87964e-07
2.93809e-07
2.99396e-07
3.04729e-07
3.09814e-07
3.14655e-07
3.19257e-07
3.23627e-07
3.27768e-07
3.31688e-07
3.3539e-07
3.38881e-07
3.42165e-07
3.45248e-07
3.48136e-07
3.50833e-07
3.53345e-07
3.55676e-07
3.57832e-07
3.59817e-07
3.61636e-07
3.63294e-07
3.64795e-07
3.66144e-07
3.67344e-07
3.684e-07
3.69316e-07
3.70096e-07
3.70744e-07
3.71264e-07
3.71658e-07
3.71932e-07
3.72087e-07
3.72127e-07
3.72056e-07
3.71877e-07
3.71593e-07