/*--------------------------------*- C++ -*----------------------------------*\
  =========                 |
  \\      /  F ield         | OpenFOAM: The Open Source CFD Toolbox
   \\    /   O peration     | Website:  https://openfoam.org
    \\  /    A nd           | Version:  10
     \\/     M anipulation  |
\*---------------------------------------------------------------------------*/
FoamFile
{
    format      ascii;
    class       surfaceScalarField;
    location    "5";
    object      phi;
}
// * * * * * * * * * * * * * * * * * * * * * * * * * * * * * * * * * * * * * //

dimensions      [1 0 -1 0 0 0 0];

internalField   nonuniform List<scalar> 
10325
(
0.00840003
1.03919e-10
0.00840004
4.31015e-10
0.00840001
2.01771e-09
0.00840003
4.19322e-09
0.00839988
1.55434e-08
0.00840034
3.07471e-08
0.00839851
9.78183e-08
0.00840287
2.02153e-07
0.00839195
5.65633e-07
0.00840908
1.31761e-06
0.00838131
3.44683e-06
0.00839525
9.67473e-06
0.008346
3.03518e-05
0.0082442
0.000112313
0.00766968
0.000571901
0.00700403
0.000665713
0.0063738
0.00063009
0.00572389
0.000649861
0.00504224
0.000681507
0.00432042
0.000721842
0.00354926
0.000771098
0.00272926
0.000819972
0.00186525
0.000864213
0.00095663
0.000908554
0.000956536
0.00840003
2.5844e-10
0.00840003
8.43205e-10
0.00840003
4.55472e-09
0.0084
8.53717e-09
0.00839999
3.26372e-08
0.00840004
5.45096e-08
0.00839928
2.20013e-07
0.00840087
3.06021e-07
0.00839554
1.42307e-06
0.0084026
1.9889e-06
0.00838894
8.20391e-06
0.00838673
1.79872e-05
0.00834972
6.30885e-05
0.00824128
0.000224221
0.00768168
0.00113003
0.00700132
0.00134637
0.00637885
0.00125245
0.00573814
0.00129051
0.00506088
0.00135862
0.00433146
0.00145129
0.00355094
0.00155155
0.00272223
0.00164865
0.00184632
0.00174033
0.000931025
0.00182377
0.00188747
0.00840003
2.97709e-10
0.00840004
1.36533e-09
0.00839998
6.25693e-09
0.00840015
1.28816e-08
0.00839976
4.54755e-08
0.00840061
8.73492e-08
0.00839866
2.7671e-07
0.00840206
5.84567e-07
0.00839444
1.63084e-06
0.00840587
3.87464e-06
0.00838185
1.04965e-05
0.0083999
2.86153e-05
0.00834699
9.07211e-05
0.00825599
0.000327996
0.00775759
0.00162547
0.00706591
0.00203768
0.00644154
0.00187683
0.00580558
0.00192642
0.005132
0.0020321
0.00440116
0.00218201
0.00361426
0.00233856
0.00277445
0.00248836
0.00188355
0.00263144
0.000948477
0.00275886
0.0028358
0.00840003
2.50888e-10
0.00840002
2.10393e-09
0.00840004
6.13119e-09
0.00839998
2.08085e-08
0.00840015
4.52788e-08
0.00839944
1.42626e-07
0.00840135
2.75634e-07
0.008396
9.06476e-07
0.00840782
1.71164e-06
0.00838317
5.61345e-06
0.0084155
1.2198e-05
0.00837028
3.75974e-05
0.00837771
0.00011259
0.00828064
0.000408629
0.00791248
0.00199686
0.00721538
0.00273501
0.00657755
0.00251482
0.00593885
0.00256507
0.00526791
0.00270296
0.00453534
0.00291467
0.00374242
0.00313124
0.00289049
0.00334031
0.00197355
0.00354864
0.00100013
0.00373212
0.00383569
0.00840003
2.61081e-10
0.00840001
2.5228e-09
0.00840009
6.31572e-09
0.00839989
2.44583e-08
0.00840034
4.99511e-08
0.00839933
1.57803e-07
0.00840166
3.31928e-07
0.00839634
9.58497e-07
0.00840701
2.14313e-06
0.00838631
5.87445e-06
0.00841586
1.45379e-05
0.00837118
4.14237e-05
0.00839452
0.000126444
0.00833316
0.000450196
0.00818329
0.00214997
0.00748133
0.00343768
0.0068057
0.00319052
0.0061527
0.00321801
0.00547663
0.00337873
0.00474446
0.00364694
0.00394268
0.00393306
0.00307024
0.00421271
0.00211973
0.00449922
0.00108633
0.00476555
0.00492196
0.00840003
4.7129e-10
0.00840003
1.80062e-09
0.00840002
9.20819e-09
0.00840003
1.77557e-08
0.00839997
6.71374e-08
0.00840018
1.20914e-07
0.00839931
4.21243e-07
0.00840159
7.72766e-07
0.00839592
2.54954e-06
0.00840652
5.13521e-06
0.00839196
1.55162e-05
0.00840762
3.88747e-05
0.00840153
0.000122854
0.00843606
0.000421734
0.00866342
0.00191989
0.00794672
0.00415481
0.00716986
0.00396719
0.00648004
0.00390779
0.00578713
0.00407153
0.00504797
0.00438605
0.00423262
0.00474838
0.00333256
0.00511275
0.00233408
0.00549787
0.00121921
0.00588018
0.00614105
0.00840003
2.64449e-10
0.00840002
2.27703e-09
0.00840006
6.21084e-09
0.00839996
2.23289e-08
0.00840025
4.62595e-08
0.00839944
1.48713e-07
0.00840168
2.87389e-07
0.00839639
9.23013e-07
0.00840981
1.78358e-06
0.00838378
5.56106e-06
0.00842964
1.2119e-05
0.00837955
3.56175e-05
0.00844911
0.000100922
0.00850106
0.000342507
0.00895133
0.00147739
0.00839782
0.00470685
0.00754871
0.00481627
0.0068467
0.00460975
0.00616577
0.00475221
0.00543077
0.00512128
0.00460685
0.00557217
0.00368417
0.00603508
0.00263712
0.00654509
0.00142189
0.00709556
0.00756295
0.00840003
3.82222e-10
0.00840002
1.81808e-09
0.00840006
7.50666e-09
0.00839997
1.76782e-08
0.00840015
5.56801e-08
0.00839983
1.12414e-07
0.00840023
3.61668e-07
0.00839975
6.62055e-07
0.00840004
2.22834e-06
0.00839937
4.18774e-06
0.00840386
1.31619e-05
0.00839707
3.09115e-05
0.00841724
9.51098e-05
0.00844305
0.000309566
0.00861207
0.0013084
0.00831994
0.00499911
0.00764732
0.0054888
0.0070992
0.00515778
0.00648218
0.00536906
0.00580892
0.0057944
0.00502334
0.00635778
0.00411277
0.00694556
0.00304573
0.00761256
0.00173755
0.00840374
0.00930036
0.00840003
2.30265e-10
0.00840003
2.27845e-09
0.00840003
5.68657e-09
0.00840002
2.20038e-08
0.00840006
4.27396e-08
0.00839983
1.42648e-07
0.00840057
2.74327e-07
0.00839812
8.67193e-07
0.00840424
1.73168e-06
0.00839132
5.16483e-06
0.00841249
1.14934e-05
0.00838798
3.28763e-05
0.00841038
9.11435e-05
0.00840565
0.000302625
0.00850187
0.0012173
0.00819899
0.00530066
0.00791863
0.00576916
0.00733271
0.00574362
0.00673507
0.0059666
0.00615358
0.00637584
0.00546162
0.0070496
0.00463821
0.00776887
0.00364417
0.00860656
0.00225983
0.00978755
0.0115598
0.00840003
3.42657e-10
0.00840004
1.85495e-09
0.0084
7.30689e-09
0.0084001
1.83845e-08
0.00839983
5.37137e-08
0.00840056
1.26557e-07
0.00839879
3.24006e-07
0.00840321
8.13233e-07
0.00839331
1.90872e-06
0.00841445
5.12338e-06
0.00837685
1.2019e-05
0.00842755
3.32097e-05
0.00837262
9.23388e-05
0.00841514
0.000301009
0.00845116
0.00116076
0.0083064
0.00544927
0.00789742
0.00617847
0.00747199
0.00616914
0.00702441
0.00641403
0.00651922
0.00688083
0.00597689
0.00759165
0.00533518
0.00841034
0.00444427
0.00949744
0.00313682
0.0110952
0.0146962
0.00840003
3.44306e-10
0.00840002
2.01445e-09
0.00840005
7.11179e-09
0.00839998
1.9638e-08
0.00840015
5.30583e-08
0.0083998
1.27951e-07
0.00840034
3.48171e-07
0.00839954
7.59769e-07
0.00839982
2.21559e-06
0.00839916
4.64047e-06
0.00840018
1.36878e-05
0.00839415
3.2241e-05
0.0084032
9.59308e-05
0.00839492
0.000299143
0.00843983
0.00111987
0.00849696
0.00539061
0.00807513
0.00660015
0.0076519
0.00659226
0.00731002
0.00675581
0.0069357
0.00725512
0.00657258
0.00795475
0.00614201
0.00884079
0.0057277
0.00991134
0.00569312
0.0111286
0.011511
0.00887798
0.00840003
2.93286e-10
0.00840004
2.16772e-09
0.00840001
6.68063e-09
0.00840008
2.11052e-08
0.00839994
4.95617e-08
0.00840024
1.41055e-07
0.00839965
3.08877e-07
0.0084005
8.91305e-07
0.00839892
1.8916e-06
0.00840125
5.52916e-06
0.00839625
1.21972e-05
0.00840557
3.48393e-05
0.00839191
9.20743e-05
0.00841384
0.000293282
0.00847415
0.00105234
0.00890415
0.00496099
0.00844729
0.00705729
0.00797497
0.0070646
0.00762658
0.00710425
0.00734053
0.00754078
0.00708157
0.00821333
0.00688251
0.00903927
0.00684736
0.00994615
0.00729449
0.0106823
0.0104878
0.00831438
0.00840003
3.27991e-10
0.00840003
1.79624e-09
0.00840003
6.84097e-09
0.00840004
1.7546e-08
0.00839999
5.10042e-08
0.00840017
1.17191e-07
0.00839958
3.26993e-07
0.00840144
7.23795e-07
0.00839674
2.03329e-06
0.00840932
4.48336e-06
0.00838479
1.27059e-05
0.0084287
3.00956e-05
0.00838822
8.6645e-05
0.00846392
0.000257326
0.00858899
0.000903638
0.00964298
0.0039127
0.00906903
0.00763122
0.00847112
0.00766279
0.00807995
0.00749472
0.00781334
0.00780775
0.00763914
0.00838758
0.00760698
0.00907225
0.00783138
0.00972031
0.00837614
0.0101365
0.00986367
0.00899874
0.00840003
2.60588e-10
0.00840004
1.53785e-09
0.00840002
5.67639e-09
0.00840007
1.50268e-08
0.00839996
4.17883e-08
0.00840026
1.00688e-07
0.00839974
2.58238e-07
0.00840098
6.31452e-07
0.00839928
1.53506e-06
0.00840341
3.93198e-06
0.00839994
9.30403e-06
0.00841802
2.46243e-05
0.00842091
6.31646e-05
0.00851641
0.000184891
0.00880272
0.000604618
0.0102607
0.00245685
0.00976451
0.00812744
0.0092965
0.00813075
0.00869196
0.00809981
0.00836968
0.00812917
0.00824204
0.00851515
0.00828907
0.00902318
0.00854066
0.00947014
0.00901696
0.00965861
0.0093655
0.00951371
0.00840003
2.21624e-10
0.00840003
1.37383e-09
0.00840005
4.73906e-09
0.0084
1.33751e-08
0.00840013
3.51253e-08
0.00839984
8.70014e-08
0.00840065
2.21254e-07
0.008399
5.27394e-07
0.00840343
1.35457e-06
0.00839493
3.16445e-06
0.00841514
8.27592e-06
0.00838702
1.98069e-05
0.00844221
5.32963e-05
0.0084298
0.000147905
0.00859627
0.000477141
0.00919161
0.00184086
0.00990173
0.00742157
0.00957432
0.00845832
0.00914998
0.00852413
0.00887513
0.00840341
0.00877715
0.0086134
0.0088503
0.00894981
0.00908159
0.00923674
0.0094644
0.0092765
0.00895432
0.00987372
0.00840003
1.77717e-10
0.00840003
1.20021e-09
0.00840003
3.9706e-09
0.00840003
1.1762e-08
0.00840006
2.95966e-08
0.00839996
7.83848e-08
0.0084003
1.85263e-07
0.00839941
4.84982e-07
0.00840222
1.12228e-06
0.00839588
2.97836e-06
0.00841239
6.90302e-06
0.00838512
1.84755e-05
0.00843525
4.57966e-05
0.00840583
0.00012996
0.00852101
0.000402092
0.0088667
0.00147182
0.00987787
0.00641551
0.00975119
0.00858532
0.00952406
0.00875061
0.00929026
0.00863805
0.00921746
0.00868471
0.00929887
0.0088703
0.00950469
0.00902675
0.00980594
0.00897768
0.00863592
0.0101221
0.00840003
1.57184e-10
0.00840003
1.07403e-09
0.00840004
3.41923e-09
0.00840001
1.04049e-08
0.0084001
2.56439e-08
0.00839991
6.78363e-08
0.0084004
1.64952e-07
0.00839944
4.12806e-07
0.008402
1.03473e-06
0.00839705
2.47992e-06
0.00840911
6.47375e-06
0.00839059
1.54774e-05
0.00842847
4.14164e-05
0.00840554
0.000110363
0.00850995
0.000336673
0.00878605
0.00117408
0.0103583
0.0048471
0.0102024
0.00874159
0.00995874
0.00899427
0.00968976
0.0089074
0.0096143
0.00875843
0.00967779
0.00880893
0.00984365
0.00885728
0.010077
0.0087446
0.00840089
0.0103136
0.00840003
1.24357e-10
0.00840003
8.15081e-10
0.00840002
2.74585e-09
0.00840005
8.02042e-09
0.0084
2.0263e-08
0.00840014
5.35761e-08
0.00839993
1.24966e-07
0.0084005
3.31014e-07
0.00839987
7.4834e-07
0.00840166
2.02097e-06
0.00840115
4.50776e-06
0.0084085
1.22758e-05
0.00841293
2.86343e-05
0.00845912
7.88773e-05
0.00855917
0.000219784
0.00902408
0.000718087
0.0110866
0.00278389
0.0109093
0.00891801
0.0106604
0.00924297
0.0102991
0.00926871
0.0100752
0.00898023
0.0100533
0.00883467
0.010152
0.00875387
0.0103146
0.0085832
0.00823532
0.0104803
0.00840003
1.13042e-10
0.00840003
6.01849e-10
0.00840003
2.36415e-09
0.00840003
5.89348e-09
0.00840003
1.73112e-08
0.00840006
3.9072e-08
0.0084
1.08176e-07
0.00840035
2.39879e-07
0.00839955
6.4896e-07
0.00840269
1.46124e-06
0.00839677
3.87303e-06
0.00841515
8.99592e-06
0.008392
2.35965e-05
0.00845314
5.88364e-05
0.00846172
0.000166481
0.00870124
0.000516741
0.00952323
0.00193924
0.0109697
0.00747615
0.0109088
0.00930395
0.0106971
0.00948026
0.0104625
0.00921367
0.0103927
0.00890735
0.0104336
0.00870837
0.010534
0.00848398
0.00813045
0.0106393
0.00840003
8.01801e-11
0.00840003
5.23944e-10
0.00840003
1.75436e-09
0.00840003
5.11717e-09
0.00840005
1.30317e-08
0.0084
3.37566e-08
0.00840019
8.18986e-08
0.00839978
2.07028e-07
0.00840113
5.01053e-07
0.00839848
1.25104e-06
0.0084064
3.04933e-06
0.00839237
7.64807e-06
0.00842773
1.90261e-05
0.00838812
4.91678e-05
0.0084821
0.000132826
0.00854181
0.000403118
0.00908975
0.00142035
0.0110027
0.00555582
0.0111431
0.00916305
0.0110555
0.00956753
0.0108269
0.00944218
0.0107065
0.00902945
0.0106928
0.00871921
0.0107407
0.00843631
0.00807417
0.0107959
0.00840003
6.09411e-11
0.00840003
3.99854e-10
0.00840003
1.3226e-09
0.00840003
3.8858e-09
0.00840005
9.87581e-09
0.0084
2.52532e-08
0.00840017
6.24703e-08
0.00839988
1.52671e-07
0.00840083
3.80541e-07
0.00839932
9.1089e-07
0.00840455
2.30972e-06
0.00839696
5.45924e-06
0.0084216
1.40584e-05
0.00840357
3.41504e-05
0.00848998
9.13651e-05
0.00858975
0.000257403
0.00920132
0.00083666
0.0116236
0.00312606
0.0117083
0.00907759
0.0116153
0.00966042
0.0113605
0.00969708
0.0110842
0.00930591
0.0109773
0.00882577
0.0109613
0.00845254
0.00806482
0.0109673
0.00840003
4.29886e-11
0.00840003
3.045e-10
0.00840003
9.70422e-10
0.00840003
2.98575e-09
0.00840003
7.19368e-09
0.00840004
1.97008e-08
0.00840007
4.47402e-08
0.00840003
1.19844e-07
0.00840039
2.70471e-07
0.00839974
7.14619e-07
0.00840284
1.63092e-06
0.00839777
4.24336e-06
0.00841656
9.9801e-06
0.00839671
2.57404e-05
0.00846667
6.44841e-05
0.00849487
0.000179284
0.00882589
0.000550486
0.00991057
0.00201433
0.0117335
0.00726041
0.0118355
0.00955874
0.0116842
0.00984862
0.0114015
0.00958832
0.0112749
0.00895361
0.0111956
0.00853056
0.00810053
0.0111578
0.00840003
3.82781e-11
0.00840003
2.09634e-10
0.00840003
8.07023e-10
0.00840003
2.05271e-09
0.00840003
5.92212e-09
0.00840005
1.36462e-08
0.0084
3.68161e-08
0.00840021
8.39644e-08
0.00839984
2.19874e-07
0.00840111
5.11163e-07
0.008399
1.30627e-06
0.00840604
3.12524e-06
0.00839544
7.81248e-06
0.00842698
1.94188e-05
0.00840124
4.92329e-05
0.00850148
0.000131693
0.00861263
0.00038938
0.0093153
0.00134
0.0117095
0.00485885
0.0119952
0.00927273
0.0120655
0.0097781
0.011913
0.00974059
0.0115823
0.0092857
0.011449
0.00866161
0.00818797
0.0113607
0.00840003
2.4442e-11
0.00840003
1.60304e-10
0.00840003
5.38854e-10
0.00840003
1.56187e-09
0.00840004
3.98463e-09
0.00840003
1.02581e-08
0.00840007
2.47512e-08
0.0084
6.25083e-08
0.00840035
1.48517e-07
0.00839976
3.73952e-07
0.00840205
8.83608e-07
0.0083987
2.23304e-06
0.00841129
5.30164e-06
0.00839669
1.34391e-05
0.00845002
3.28002e-05
0.00844311
8.5923e-05
0.00864987
0.000236837
0.00920829
0.000746682
0.0114164
0.00266187
0.0124216
0.00826405
0.012414
0.00978546
0.0122299
0.00992466
0.0118864
0.00962905
0.0117249
0.00882205
0.0083297
0.0115832
0.00840003
1.80106e-11
0.00840003
1.14874e-10
0.00840003
3.88473e-10
0.00840003
1.12334e-09
0.00840004
2.87733e-09
0.00840003
7.32245e-09
0.00840007
1.80397e-08
0.0084
4.40993e-08
0.00840024
1.09446e-07
0.00839993
2.61924e-07
0.00840112
6.58556e-07
0.00839973
1.55596e-06
0.00840543
3.95899e-06
0.00840055
9.37917e-06
0.00842567
2.4138e-05
0.00842516
5.96594e-05
0.0085351
0.000162744
0.00876291
0.000484464
0.00973747
0.00170742
0.012183
0.00581301
0.0125162
0.00945176
0.0125868
0.00985377
0.0124403
0.00977534
0.0120494
0.00921315
0.00855053
0.0118279
0.00840003
1.19677e-11
0.00840003
7.99377e-11
0.00840003
2.64596e-10
0.00840003
7.79025e-10
0.00840003
1.95831e-09
0.00840003
5.07959e-09
0.00840004
1.2187e-08
0.00840004
3.06539e-08
0.00840014
7.3176e-08
0.00839999
1.81589e-07
0.0084009
4.35997e-07
0.00839956
1.07019e-06
0.00840567
2.60158e-06
0.00839793
6.34349e-06
0.0084303
1.5676e-05
0.00840812
3.89196e-05
0.00853044
0.00010084
0.00867074
0.000281834
0.00951637
0.000900223
0.0122316
0.00308712
0.0129348
0.00874714
0.012955
0.00983342
0.0127384
0.00999196
0.0123943
0.00955666
0.0088074
0.0121376
0.00840003
8.1486e-12
0.00840003
5.49141e-11
0.00840003
1.81844e-10
0.00840003
5.36113e-10
0.00840003
1.34129e-09
0.00840003
3.52415e-09
0.00840003
8.26073e-09
0.00840005
2.14219e-08
0.00840007
4.91737e-08
0.00840008
1.27418e-07
0.00840041
2.92425e-07
0.00840005
7.51779e-07
0.00840289
1.74335e-06
0.00839949
4.44213e-06
0.00841764
1.05334e-05
0.00840349
2.67165e-05
0.00848042
6.66317e-05
0.00852907
0.000180305
0.00893994
0.000539547
0.0101128
0.00188353
0.0126814
0.0061845
0.0129827
0.00953216
0.013155
0.00981981
0.012884
0.00982747
0.00917597
0.0125143
0.00840003
5.77763e-12
0.00840003
3.57045e-11
0.00840003
1.25753e-10
0.00840003
3.47308e-10
0.00840003
9.28231e-10
0.00840003
2.26635e-09
0.00840003
5.76415e-09
0.00840006
1.3697e-08
0.00840002
3.43857e-08
0.00840021
8.12468e-08
0.00839997
2.03141e-07
0.00840101
4.82474e-07
0.00839993
1.19556e-06
0.00840523
2.8681e-06
0.00840068
7.08193e-06
0.00842578
1.73012e-05
0.00842184
4.33478e-05
0.00853025
0.000111646
0.00871194
0.000314204
0.00961355
0.00101043
0.0124135
0.00337441
0.0132773
0.00866923
0.013361
0.00973593
0.0132148
0.00997341
0.0095537
0.0128362
0.00840003
4.05851e-12
0.00840003
2.32984e-11
0.00840003
8.61972e-11
0.00840003
2.28501e-10
0.00840003
6.30504e-10
0.00840003
1.50487e-09
0.00840003
3.88019e-09
0.00840005
9.10481e-09
0.00840003
2.29821e-08
0.00840013
5.42918e-08
0.00840006
1.34764e-07
0.00840045
3.23225e-07
0.00840054
7.88102e-07
0.00840154
1.92474e-06
0.00840456
4.63232e-06
0.00840729
1.15333e-05
0.00842872
2.79882e-05
0.00846051
7.19929e-05
0.00859007
0.000190129
0.00902233
0.000573904
0.010452
0.0019459
0.0130146
0.00610829
0.013329
0.00942099
0.0135636
0.00973851
0.00976444
0.0133527
0.00840003
2.38467e-12
0.00840003
1.62602e-11
0.00840003
5.32682e-11
0.00840003
1.57751e-10
0.00840003
3.93643e-10
0.00840003
1.02195e-09
0.00840003
2.43595e-09
0.00840003
6.13351e-09
0.00840005
1.4517e-08
0.00840004
3.60928e-08
0.00840016
8.57913e-08
0.00840005
2.11303e-07
0.008401
5.06465e-07
0.0083999
1.2349e-06
0.00840617
2.99367e-06
0.00839992
7.2706e-06
0.00843324
1.78717e-05
0.00841939
4.42494e-05
0.00855411
0.000113965
0.0087497
0.000317482
0.00972075
0.00101224
0.0125567
0.00326281
0.0135907
0.00838535
0.0136582
0.00967089
0.00978811
0.0136344
0.00840003
1.60282e-12
0.00840003
1.02023e-11
0.00840003
3.52548e-11
0.00840003
9.9663e-11
0.00840003
2.59037e-10
0.00840003
6.55149e-10
0.00840003
1.58036e-09
0.00840004
3.96754e-09
0.00840004
9.29645e-09
0.00840005
2.36165e-08
0.00840008
5.44347e-08
0.00840012
1.38913e-07
0.00840046
3.19943e-07
0.0084003
8.16346e-07
0.00840309
1.8867e-06
0.0084009
4.78981e-06
0.00841956
1.12894e-05
0.00840935
2.86156e-05
0.00849704
7.06267e-05
0.00856657
0.000189394
0.00908106
0.000557231
0.0104381
0.00186786
0.0132036
0.00562722
0.0136912
0.00918353
0.00961444
0.0138649
0.00840003
1.0225e-12
0.00840003
6.3614e-12
0.00840003
2.22716e-11
0.00840003
6.20528e-11
0.00840003
1.63448e-10
0.00840003
4.03664e-10
0.00840003
1.00599e-09
0.00840003
2.41545e-09
0.00840003
5.94031e-09
0.00840006
1.41841e-08
0.00840003
3.47073e-08
0.00840021
8.3001e-08
0.00840004
2.0208e-07
0.00840107
4.84753e-07
0.00840026
1.17583e-06
0.00840583
2.8367e-06
0.00840245
6.86567e-06
0.00843032
1.67719e-05
0.00843051
4.12832e-05
0.0085595
0.00010525
0.00877756
0.000287613
0.00978465
0.000895532
0.0126146
0.00278533
0.0139057
0.00789362
0.00956375
0.0139566
0.00840003
6.68784e-13
0.00840003
3.91985e-12
0.00840003
1.43135e-11
0.00840003
3.8228e-11
0.00840003
1.04425e-10
0.00840003
2.48887e-10
0.00840003
6.41247e-10
0.00840003
1.49066e-09
0.00840003
3.77551e-09
0.00840005
8.7891e-09
0.00840003
2.19133e-08
0.00840013
5.18325e-08
0.00840004
1.26639e-07
0.00840064
3.0506e-07
0.00840015
7.33062e-07
0.00840341
1.7949e-06
0.00840129
4.26261e-06
0.00841724
1.06101e-05
0.00841452
2.53394e-05
0.00848673
6.48216e-05
0.00856126
0.000166365
0.00901797
0.000487567
0.0101749
0.00159694
0.0132455
0.00483046
0.00879955
0.0140104
0.00840003
3.84538e-13
0.00840003
2.51943e-12
0.00840003
8.40862e-12
0.00840003
2.45318e-11
0.00840003
6.19742e-11
0.00840003
1.57636e-10
0.00840003
3.82863e-10
0.00840003
9.32641e-10
0.00840003
2.27524e-09
0.00840003
5.40417e-09
0.00840005
1.33533e-08
0.00840005
3.12445e-08
0.00840013
7.80267e-08
0.00840024
1.80765e-07
0.0084004
4.53542e-07
0.00840163
1.05155e-06
0.00840145
2.62823e-06
0.00841091
6.15584e-06
0.0084088
1.53582e-05
0.00846004
3.69803e-05
0.00849713
9.4645e-05
0.00877151
0.000251806
0.0095738
0.00076626
0.0120179
0.00239809
0.00683981
0.0139732
0.00840003
2.3061e-13
0.00840003
1.53651e-12
0.00840003
5.13192e-12
0.00840003
1.49979e-11
0.00840003
3.76012e-11
0.00840003
9.76654e-11
0.00840003
2.28481e-10
0.00840003
5.83633e-10
0.00840003
1.33921e-09
0.00840003
3.41356e-09
0.00840004
7.81011e-09
0.00840003
1.97273e-08
0.00840013
4.57089e-08
0.00840005
1.13689e-07
0.00840059
2.67363e-07
0.00840021
6.53899e-07
0.00840308
1.56942e-06
0.00840163
3.77256e-06
0.00841581
9.24176e-06
0.00841466
2.21341e-05
0.00848158
5.597e-05
0.0085488
0.000141666
0.00895976
0.000401835
0.0100468
0.00127976
0.00382874
0.0130667
0.00840003
1.5162e-13
0.00840003
8.88769e-13
0.00840003
3.23604e-12
0.00840003
8.67268e-12
0.00840003
2.36153e-11
0.00840003
5.61444e-11
0.00840003
1.44697e-10
0.00840003
3.33766e-10
0.00840003
8.49634e-10
0.00840003
1.9509e-09
0.00840003
4.9158e-09
0.00840005
1.14087e-08
0.00840004
2.8341e-08
0.00840017
6.66445e-08
0.00840008
1.62942e-07
0.0084008
3.90457e-07
0.00840048
9.38048e-07
0.00840406
2.28197e-06
0.00840356
5.42763e-06
0.00842037
1.3475e-05
0.00842907
3.2153e-05
0.00851337
8.22836e-05
0.00867055
0.000213422
0.00933921
0.000632174
0.00198427
0.0111801
0.00840003
8.14895e-14
0.00840003
5.56719e-13
0.00840003
1.81941e-12
0.00840003
5.41324e-12
0.00840003
1.33371e-11
0.00840003
3.48586e-11
0.00840003
8.15447e-11
0.00840003
2.06145e-10
0.00840003
4.79135e-10
0.00840003
1.18966e-09
0.00840004
2.79728e-09
0.00840003
6.82161e-09
0.00840006
1.6268e-08
0.00840005
3.89933e-08
0.00840022
9.46861e-08
0.00840019
2.22655e-07
0.00840093
5.48433e-07
0.00840139
1.27594e-06
0.00840406
3.17131e-06
0.00840997
7.35355e-06
0.00842261
1.84602e-05
0.00846162
4.37692e-05
0.00856532
0.000113228
0.00888938
0.000301386
0.000926811
0.00995316
0.00840003
5.20303e-14
0.00840003
3.11918e-13
0.00840003
1.11664e-12
0.00840003
3.04286e-12
0.00840003
8.13882e-12
0.00840003
1.97426e-11
0.00840003
4.94021e-11
0.00840003
1.17228e-10
0.00840003
2.87603e-10
0.00840003
6.82579e-10
0.00840003
1.65576e-09
0.00840004
3.9532e-09
0.00840004
9.49216e-09
0.00840006
2.28922e-08
0.00840011
5.43361e-08
0.00840013
1.3229e-07
0.00840059
3.11837e-07
0.00840041
7.60933e-07
0.00840375
1.7994e-06
0.00840171
4.37654e-06
0.00842225
1.04362e-05
0.00841387
2.56028e-05
0.00851476
6.27345e-05
0.00857642
0.000162387
0.000457519
0.00913264
0.00840003
2.9151e-14
0.00840003
1.82193e-13
0.00840003
6.38993e-13
0.00840003
1.77079e-12
0.00840003
4.67363e-12
0.00840003
1.14321e-11
0.00840003
2.83866e-11
0.00840003
6.77796e-11
0.00840003
1.6468e-10
0.00840003
3.95119e-10
0.00840003
9.43205e-10
0.00840003
2.28833e-09
0.00840004
5.40223e-09
0.00840004
1.32176e-08
0.00840009
3.08988e-08
0.00840007
7.61985e-08
0.00840041
1.77549e-07
0.0084002
4.3796e-07
0.00840235
1.01907e-06
0.00840111
2.52271e-06
0.00841303
5.89934e-06
0.00840836
1.45839e-05
0.00846761
3.49366e-05
0.00848973
8.82778e-05
0.000229794
0.00878063
0.00840003
1.5868e-14
0.00840003
1.06644e-13
0.00840003
3.5567e-13
0.00840003
1.03623e-12
0.00840003
2.59706e-12
0.00840003
6.69065e-12
0.00840003
1.56836e-11
0.00840003
3.96267e-11
0.00840003
9.09852e-11
0.00840003
2.28325e-10
0.00840003
5.24758e-10
0.00840003
1.30476e-09
0.00840004
3.01968e-09
0.00840003
7.41818e-09
0.00840007
1.74198e-08
0.00840006
4.2028e-08
0.00840022
1.00304e-07
0.00840028
2.38e-07
0.00840089
5.78142e-07
0.00840192
1.34587e-06
0.00840409
3.32493e-06
0.00841268
7.67966e-06
0.00842301
1.92319e-05
0.00847611
4.52342e-05
0.00011693
0.00857489
0.00840003
9.56876e-15
0.00840003
5.8708e-14
0.00840003
2.06041e-13
0.00840003
5.71061e-13
0.00840003
1.50342e-12
0.00840003
3.64696e-12
0.00840003
9.16546e-12
0.00840003
2.12966e-11
0.00840003
5.33548e-11
0.00840003
1.22176e-10
0.00840003
3.0588e-10
0.00840003
6.99313e-10
0.00840003
1.74209e-09
0.00840004
4.00944e-09
0.00840004
9.8784e-09
0.00840008
2.30328e-08
0.00840007
5.58102e-08
0.00840029
1.32341e-07
0.00840034
3.1499e-07
0.00840125
7.61302e-07
0.0084024
1.77694e-06
0.00840556
4.38147e-06
0.00841572
1.01148e-05
0.00843171
2.54514e-05
6.02138e-05
0.00849383
0.00840003
4.93174e-15
0.00840003
3.28287e-14
0.00840003
1.10146e-13
0.00840003
3.18805e-13
0.00840003
8.02231e-13
0.00840003
2.0509e-12
0.00840003
4.8132e-12
0.00840003
1.20782e-11
0.00840003
2.76491e-11
0.00840003
6.94239e-11
0.00840003
1.57795e-10
0.00840003
3.94097e-10
0.00840003
9.00776e-10
0.00840003
2.22931e-09
0.00840004
5.14963e-09
0.00840004
1.25501e-08
0.0084001
2.95114e-08
0.00840009
7.05982e-08
0.00840039
1.68888e-07
0.00840045
3.96405e-07
0.00840175
9.68435e-07
0.0084032
2.23118e-06
0.00840808
5.55377e-06
0.00842034
1.27267e-05
3.22631e-05
0.00844932
0.00840003
2.9062e-15
0.00840003
1.64557e-14
0.00840003
6.047e-14
0.00840003
1.60887e-13
0.00840003
4.35832e-13
0.00840003
1.02501e-12
0.00840003
2.62104e-12
0.00840003
5.94291e-12
0.00840003
1.50302e-11
0.00840003
3.37422e-11
0.00840003
8.4478e-11
0.00840003
1.91387e-10
0.00840003
4.70323e-10
0.00840003
1.08373e-09
0.00840003
2.60466e-09
0.00840005
6.1405e-09
0.00840005
1.4337e-08
0.00840011
3.46267e-08
0.00840015
7.88259e-08
0.00840039
1.9439e-07
0.00840095
4.32209e-07
0.00840167
1.08123e-06
0.00840632
2.38433e-06
0.00840827
5.98437e-06
1.33021e-05
0.00843887
0.00840003
1.20851e-15
0.00840003
8.84164e-15
0.00840003
2.83928e-14
0.00840003
8.42486e-14
0.00840003
2.07219e-13
0.00840003
5.29969e-13
0.00840003
1.23992e-12
0.00840003
3.02506e-12
0.00840003
7.06017e-12
0.00840003
1.68042e-11
0.00840003
3.9516e-11
0.00840003
9.23304e-11
0.00840003
2.19923e-10
0.00840003
5.03461e-10
0.00840003
1.21332e-09
0.00840003
2.73324e-09
0.00840005
6.64544e-09
0.00840006
1.47658e-08
0.00840009
3.59484e-08
0.00840027
7.9673e-08
0.00840025
1.91392e-07
0.00840167
4.28094e-07
0.00840081
1.00501e-06
0.00841023
2.28794e-06
5.24309e-06
0.00840496
0.00840003
6.24446e-16
0.00840003
4.11628e-15
0.00840003
1.37524e-14
0.00840003
3.97843e-14
0.00840003
9.83147e-14
0.00840003
2.52551e-13
0.00840003
5.75544e-13
0.00840003
1.44036e-12
0.00840003
3.19723e-12
0.00840003
7.90047e-12
0.00840003
1.76248e-11
0.00840003
4.21839e-11
0.00840003
9.66055e-11
0.00840003
2.22994e-10
0.00840003
5.23853e-10
0.00840003
1.16553e-09
0.00840004
2.82736e-09
0.00840003
6.0123e-09
0.0084001
1.49891e-08
0.00840006
3.06563e-08
0.00840028
7.85217e-08
0.00840044
1.55222e-07
0.00840075
3.99818e-07
0.00840328
7.81387e-07
1.98769e-06
0.00840263
0.00840003
2.85389e-16
0.00840003
1.80755e-15
0.00840003
6.31992e-15
0.00840003
1.87595e-14
0.00840003
4.45477e-14
0.00840003
1.16587e-13
0.00840003
2.53531e-13
0.00840003
6.6664e-13
0.00840003
1.3547e-12
0.00840003
3.64338e-12
0.00840003
7.08545e-12
0.00840003
1.97017e-11
0.00840003
3.70326e-11
0.00840003
1.02681e-10
0.00840003
1.98896e-10
0.00840003
5.16691e-10
0.00840004
1.08374e-09
0.00840002
2.52147e-09
0.00840009
5.95725e-09
0.00839995
1.19585e-08
0.00840038
3.23905e-08
0.00839964
5.50399e-08
0.0084018
1.73991e-07
0.00839806
2.459e-07
8.96785e-07
0.00840746
0.00840003
3.33555e-16
0.00840003
6.36562e-16
0.00840003
3.70518e-15
0.00840003
5.91047e-15
0.00840003
2.59045e-14
0.00840003
3.54596e-14
0.00840003
1.50551e-13
0.00840003
1.86973e-13
0.00840003
8.09398e-13
0.00840003
1.01681e-12
0.00840003
4.12078e-12
0.00840003
5.82292e-12
0.00840003
1.9911e-11
0.00840003
3.53716e-11
0.00840003
9.13799e-11
0.00840003
2.19307e-10
0.00840003
3.93942e-10
0.00840003
1.32939e-09
0.00840005
1.5237e-09
0.00839998
7.9983e-09
0.00840021
5.89235e-09
0.00839958
4.58941e-08
0.00840149
1.49819e-08
0.00839673
2.51697e-07
1.66373e-08
0.00840905
0.00840003
-1.01752e-16
0.00840003
3.44261e-16
0.00840003
1.10036e-15
0.00840003
3.30289e-15
0.00840003
8.3676e-15
0.00840003
2.26364e-14
0.00840003
4.9702e-14
0.00840003
1.24231e-13
0.00840003
2.83019e-13
0.00840003
6.25578e-13
0.00840003
1.597e-12
0.00840003
3.12603e-12
0.00840003
8.4252e-12
0.00840003
1.5415e-11
0.00840003
4.4347e-11
0.00840003
7.577e-11
0.00840004
2.07937e-10
0.00840002
3.73497e-10
0.00840005
1.05928e-09
0.00840001
1.87086e-09
0.00840002
4.83286e-09
0.00840013
9.23084e-09
0.00839944
2.58829e-08
0.00840142
4.79964e-08
1.24866e-07
0.0083961
0.00840003
-6.91179e-18
0.00840003
3.73752e-16
0.00840003
3.90313e-18
0.00840003
3.39244e-15
0.00840003
-1.09613e-16
0.00840003
2.0009e-14
0.00840003
-4.15439e-15
0.00840003
1.17598e-13
0.00840003
-4.30579e-14
0.00840003
6.41659e-13
0.00840003
-2.83328e-13
0.00840003
3.03785e-12
0.00840003
-5.47572e-13
0.00840003
1.22662e-11
0.00840003
9.96645e-12
0.00840003
3.19316e-11
0.00840004
1.42942e-10
0.00840002
-3.37831e-11
0.00840005
1.26445e-09
0.00839999
-1.42498e-09
0.00840005
9.66579e-09
0.00840003
-1.36671e-08
0.00839964
6.19552e-08
0.00840073
-9.2233e-08
3.48464e-07
0.00839714
0.00840003
0.00840003
0.00840003
0.00840003
0.00840003
0.00840003
0.00840003
0.00840003
0.00840003
0.00840003
0.00840003
0.00840003
0.00840003
0.00840003
0.00840003
0.00840003
0.00840003
0.00840003
0.00840004
0.00839997
0.00840018
0.00839953
0.00840132
0.00839655
0.00840814
0.00480936
0.00406281
0.00316643
0.00164145
0.00236144
0.00077198
0.00197178
0.000359843
0.00179086
0.000109487
0.0012508
0.000366489
0.000403342
0.000778349
-0.00029245
0.000683036
-0.000850664
0.000535517
-0.00128319
0.000437993
-0.00163839
0.000369412
-0.00191471
0.000296001
-0.00212778
0.000226325
-0.00227384
0.000157327
-0.00237276
0.000109071
-0.00245674
9.15936e-05
-0.00254447
9.66637e-05
-0.00264006
0.000103248
-0.00273289
9.84676e-05
-0.00281611
8.98622e-05
-0.00289336
8.14124e-05
-0.00295632
6.78597e-05
-0.00300346
5.24981e-05
-0.00305416
5.37298e-05
-0.00310438
5.34621e-05
-0.00314187
4.06245e-05
-0.00316085
2.10637e-05
-0.00315883
-1.24451e-06
-0.00312898
-3.04245e-05
-0.00305629
-7.47885e-05
-0.00293568
-0.000123058
-0.00277137
-0.000167219
-0.00256967
-0.000204495
-0.00233435
-0.000237555
-0.00208001
-0.00025622
-0.00181549
-0.000265932
-0.00154771
-0.000269023
-0.0012761
-0.000272494
-0.000999394
-0.000277282
-0.000723747
-0.00027613
-0.000450649
-0.000273469
-0.000173534
-0.000277509
0.000105066
-0.000278909
0.00036503
-0.000260348
0.000610617
-0.00024605
0.000846144
-0.000236145
0.00107225
-0.000226833
0.00128826
-0.000216886
0.00149347
-0.000206091
0.00169045
-0.000197938
0.00188418
-0.000194748
0.00207103
-0.000187849
0.00224977
-0.000179697
0.00241907
-0.000170197
0.00258004
-0.000161785
0.0027325
-0.000153198
0.00287746
-0.000145619
0.00301458
-0.000137684
0.00314474
-0.000130626
0.00326769
-0.000123281
0.0033841
-0.000116691
0.0034938
-0.00010993
0.00359743
-0.000103857
0.00369479
-9.76971e-05
0.0037865
-9.21552e-05
0.00387241
-8.65968e-05
0.00395309
-8.15882e-05
0.00402849
-7.66157e-05