/*--------------------------------*- C++ -*----------------------------------*\
  =========                 |
  \\      /  F ield         | OpenFOAM: The Open Source CFD Toolbox
   \\    /   O peration     | Website:  https://openfoam.org
    \\  /    A nd           | Version:  10
     \\/     M anipulation  |
\*---------------------------------------------------------------------------*/
FoamFile
{
    format      ascii;
    class       volScalarField;
    location    "5";
    object      T;
}
// * * * * * * * * * * * * * * * * * * * * * * * * * * * * * * * * * * * * * //

dimensions      [0 0 0 1 0 0 0];

internalField   nonuniform List<scalar> 
5250
(
1
1.00002
1.00004
1.00011
1.00025
1.00066
1.00158
1.00393
1.00985
1.02422
1.06208
1.16279
1.43775
2.09942
2.64866
2.76071
2.7427
2.73722
2.74885
2.76564
2.77805
2.78643
2.79223
2.79687
2.79936
1
1.00002
1.00004
1.00011
1.00024
1.00067
1.0015
1.004
1.00941
1.02427
1.06043
1.16067
1.4298
2.08555
2.64373
2.76042
2.7419
2.73609
2.74773
2.76448
2.77685
2.78522
2.79104
2.79565
2.79806
1
1.00001
1.00004
1.00009
1.00028
1.00055
1.00167
1.00343
1.00987
1.02216
1.06015
1.15245
1.41628
2.05197
2.63229
2.75901
2.73941
2.73277
2.74423
2.76122
2.77355
2.78167
2.78779
2.79213
2.79455
1
1.00001
1.00004
1.00009
1.00024
1.00058
1.00143
1.00359
1.00862
1.02233
1.05494
1.14583
1.39066
2.00228
2.61351
2.75617
2.73502
2.72708
2.73881
2.75503
2.76775
2.77646
2.78182
2.78665
2.78921
1
1.00001
1.00003
1.0001
1.0002
1.00059
1.00121
1.00361
1.00754
1.02143
1.04986
1.13595
1.3584
1.93484
2.58676
2.75073
2.72805
2.71855
2.73019
2.74726
2.75931
2.76807
2.77418
2.77848
2.78122
1
1.00001
1.00003
1.00009
1.00019
1.00052
1.00119
1.00307
1.00741
1.01862
1.04662
1.12148
1.32386
1.84926
2.55045
2.74035
2.71689
2.70622
2.71795
2.73529
2.74863
2.75671
2.76271
2.76707
2.76945
1
1.00001
1.00003
1.00007
1.00018
1.00046
1.00107
1.00286
1.0064
1.01758
1.04081
1.1102
1.28832
1.76303
2.50773
2.72668
2.70298
2.69172
2.7033
2.71982
2.73339
2.74201
2.74724
2.75091
2.75227
1
1.00001
1.00002
1.00007
1.00015
1.00045
1.00094
1.00264
1.00587
1.01574
1.03745
1.09947
1.26065
1.69634
2.45957
2.71146
2.69091
2.68066
2.68909
2.70304
2.71511
2.72243
2.72621
2.72729
2.72504
1
1.00001
1.00003
1.00006
1.00016
1.00036
1.00094
1.00223
1.00556
1.01389
1.03444
1.08875
1.23589
1.62865
2.39024
2.68449
2.68115
2.67378
2.67555
2.68543
2.69385
2.69847
2.69851
2.6938
2.67969
1
1.00001
1.00002
1.00005
1.00014
1.00032
1.00087
1.00188
1.00534
1.01159
1.03224
1.07716
1.2111
1.55872
2.29877
2.64818
2.67361
2.66571
2.66198
2.66692
2.6706
2.67013
2.66243
2.6409
2.5808
1
1.00001
1.00002
1.00005
1.00011
1.00032
1.00065
1.00191
1.00413
1.01129
1.02637
1.07008
1.18073
1.48953
2.1813
2.60056
2.66476
2.65568
2.64784
2.64747
2.64594
2.63791
2.61638
2.56618
2.45211
1
1.00001
1.00002
1.00004
1.00011
1.00023
1.00068
1.0014
1.004
1.00885
1.02389
1.05761
1.155
1.4111
2.03789
2.53805
2.65169
2.64263
2.63154
2.62678
2.62004
2.60393
2.56882
2.49769
2.36442
1
1.00001
1.00001
1.00004
1.00008
1.00021
1.00051
1.00126
1.00316
1.00749
1.01965
1.04732
1.12582
1.33305
1.86391
2.45793
2.62805
2.62116
2.61127
2.60317
2.59223
2.56916
2.52725
2.45132
2.33043
1
1
1.00001
1.00003
1.00008
1.00015
1.00046
1.00093
1.00271
1.00581
1.01595
1.03718
1.09924
1.25642
1.67679
2.35893
2.59082
2.59207
2.58478
2.57455
2.56214
2.53635
2.4931
2.42355
2.31579
1
1
1.00001
1.00002
1.00005
1.00015
1.00032
1.0009
1.00189
1.00543
1.01168
1.03238
1.07735
1.21005
1.55039
2.24879
2.54782
2.56769
2.5585
2.54796
2.53197
2.50788
2.46191
2.40417
2.30927
1
1
1.00001
1.00002
1.00005
1.00011
1.00028
1.00067
1.00163
1.00416
1.00975
1.02565
1.0623
1.16661
1.44083
2.0772
2.47662
2.54753
2.53914
2.52589
2.50599
2.48117
2.43875
2.38382
2.30586
1
1
1.00001
1.00002
1.00003
1.00009
1.0002
1.00057
1.00119
1.00347
1.00729
1.02052
1.04753
1.12879
1.33622
1.86787
2.38036
2.52013
2.51852
2.50548
2.48266
2.45675
2.41819
2.36799
2.29968
1
1
1
1.00001
1.00003
1.00006
1.00018
1.00036
1.00107
1.00221
1.00622
1.01389
1.03701
1.09048
1.24128
1.62545
2.25411
2.47414
2.48865
2.4788
2.4588
2.43141
2.39778
2.35281
2.29329
1
1
1
1.00001
1.00002
1.00005
1.00012
1.00031
1.00074
1.00181
1.00456
1.01076
1.02798
1.06832
1.18131
1.47565
2.10634
2.41955
2.46234
2.45349
2.43634
2.40725
2.3775
2.33736
2.28597
1
1
1
1.00001
1.00002
1.00004
1.00009
1.00024
1.00053
1.00146
1.00312
1.00884
1.01933
1.05315
1.13078
1.35366
1.88721
2.32275
2.43119
2.42981
2.41591
2.38772
2.35797
2.32205
2.27707
1
1
1
1
1.00001
1.00003
1.00006
1.00018
1.00038
1.00107
1.00221
1.00638
1.01359
1.03749
1.08957
1.2397
1.61847
2.18755
2.3827
2.40016
2.39044
2.36826
2.33865
2.30581
2.26692
1
1
1
1
1.00001
1.00002
1.00005
1.00012
1.0003
1.00071
1.00172
1.00432
1.01016
1.02641
1.06386
1.16878
1.43947
2.02031
2.32062
2.37166
2.36507
2.34693
2.32015
2.28942
2.25561
1
1
1
1
1.00001
1.00001
1.00004
1.00008
1.00022
1.00047
1.00133
1.00278
1.00798
1.01713
1.04728
1.11449
1.30812
1.77762
2.21339
2.33332
2.33861
2.32703
2.3037
2.27422
2.2426
1
1
1
1
1
1.00001
1.00002
1.00006
1.00014
1.00036
1.0008
1.00218
1.00468
1.01302
1.02901
1.07798
1.19452
1.51275
2.05537
2.27406
2.30784
2.30248
2.28449
2.25854
2.22898
1
1
1
1
1
1.00001
1.00002
1.00004
1.00009
1.00026
1.00053
1.00154
1.00314
1.009
1.01967
1.05311
1.13016
1.34672
1.84067
2.1865
2.27345
2.27742
2.26652
2.24355
2.21542
1
1
1
1
1
1
1.00001
1.00003
1.00007
1.00016
1.00038
1.00096
1.00216
1.00581
1.01278
1.03455
1.08161
1.21593
1.55398
2.04456
2.22344
2.24891
2.244
2.22639
2.20128
1
1
1
1
1
1
1.00001
1.00002
1.00005
1.0001
1.00026
1.00062
1.0015
1.00372
1.0087
1.02253
1.05359
1.14034
1.36133
1.85234
2.14918
2.21739
2.22057
2.20989
2.18833
1
1
1
1
1
1
1
1.00001
1.00003
1.00006
1.00018
1.00037
1.00106
1.00214
1.00624
1.01308
1.0361
1.0848
1.22505
1.57126
2.01632
2.17172
2.1941
2.18924
2.17277
1
1
1
1
1
1
1
1.00001
1.00002
1.00004
1.00012
1.00024
1.00067
1.00143
1.00383
1.00871
1.02233
1.05386
1.13916
1.35744
1.82466
2.09572
2.1609
2.16585
2.15711
1
1
1
1
1
1
1
1
1.00001
1.00003
1.00007
1.00016
1.00039
1.00098
1.0022
1.00586
1.01293
1.03457
1.08156
1.21389
1.54231
1.96192
2.11465
2.13964
2.13739
1
1
1
1
1
1
1
1
1.00001
1.00002
1.00004
1.0001
1.00025
1.00059
1.00143
1.00351
1.00821
1.02114
1.0498
1.1295
1.33023
1.76445
2.03466
2.10622
2.1146
1
1
1
1
1
1
1
1
1
1.00001
1.00003
1.00006
1.00016
1.00034
1.00093
1.00191
1.00544
1.01131
1.03118
1.07145
1.18806
1.47262
1.89042
2.0574
2.08741
1
1
1
1
1
1
1
1
1
1.00001
1.00002
1.00004
1.0001
1.00021
1.00057
1.00117
1.00334
1.00689
1.01916
1.0429
1.114
1.28452
1.68401
1.97494
2.05678
1
1
1
1
1
1
1
1
1
1
1.00001
1.00002
1.00005
1.00014
1.0003
1.00077
1.0018
1.00436
1.01068
1.02545
1.06385
1.15911
1.408
1.81531
1.99963
1
1
1
1
1
1
1
1
1
1
1.00001
1.00001
1.00003
1.00008
1.00017
1.00048
1.00099
1.00283
1.00575
1.01618
1.0355
1.09461
1.23246
1.57671
1.89636
1
1
1
1
1
1
1
1
1
1
1
1.00001
1.00002
1.00004
1.00012
1.00024
1.00068
1.00137
1.00392
1.00816
1.02217
1.0505
1.13142
1.33082
1.71499
1
1
1
1
1
1
1
1
1
1
1
1
1.00001
1.00003
1.00006
1.00016
1.00033
1.00091
1.00192
1.00512
1.01138
1.02922
1.06893
1.17655
1.43653
1
1
1
1
1
1
1
1
1
1
1
1
1.00001
1.00001
1.00004
1.00008
1.00021
1.00049
1.00114
1.00291
1.00643
1.01706
1.03817
1.10039
1.2464
1
1
1
1
1
1
1
1
1
1
1
1
1
1.00001
1.00002
1.00005
1.00011
1.00028
1.00062
1.00165
1.00351
1.00958
1.02056
1.05485
1.12942
1
1
1
1
1
1
1
1
1
1
1
1
1
1
1.00001
1.00003
1.00006
1.00016
1.00034
1.00091
1.00196
1.00503
1.01153
1.02855
1.06851
1
1
1
1
1
1
1
1
1
1
1
1
1
1
1.00001
1.00001
1.00004
1.00008
1.00022
1.00044
1.00122
1.0026
1.00677
1.01531
1.03868
1
1
1
1
1
1
1
1
1
1
1
1
1
1
1
1.00001
1.00002
1.00005
1.0001
1.00029
1.00059
1.00163
1.00345
1.00905
1.0203
1
1
1
1
1
1
1
1
1
1
1
1
1
1
1
1
1.00001
1.00003
1.00007
1.00015
1.00039
1.00086
1.00215
1.00504
1.01201
1
1
1
1
1
1
1
1
1
1
1
1
1
1
1
1
1.00001
1.00002
1.00004
1.00011
1.00025
1.00062
1.00151
1.00348
1.00894
1
1
1
1
1
1
1
1
1
1
1
1
1
1
1
1
1.00001
1.00002
1.00003
1.00009
1.00019
1.00054
1.00118
1.00314
1.00726
1
1
1
1
1
1
1
1
1
1
1
1
1
1
1
1
1.00001
1.00001
1.00003
1.00008
1.00018
1.00052
1.00105
1.00312
1.00648
1
1
1
1
1
1
1
1
1
1
1
1
1
1
1
1
1.00001
1.00001
1.00003
1.00007
1.00019
1.00046
1.00112
1.00285
1.00664
1
1
1
1
1
1
1
1
1
1
1
1
1
1
1
1
1
1.00001
1.00003
1.00008
1.00017
1.00048
1.00108
1.00282
1.00678
1
1
1
1
1
1
1
1
1
1
1
1
1
1
1
1
1
1.00001
1.00003
1.00008
1.00017
1.00048
1.00106
1.00285
1.00665
1
1
1
1
1
1
1
1
1
1
1
1
1
1
1
1
1.00001
1.00001
1.00003
1.00007
1.00018
1.00045
1.0011
1.00282
1.00655
2.24002
2.08679
2.09043
2.2588
2.47515
2.82939
2.89531
2.90386
2.86843
2.82817
2.82902
2.83235
2.82566
2.8094
2.80303
2.7953
2.78487
2.77725
2.7632
2.75176
2.74049
2.7264
2.71587
2.70164
2.69271
2.68834
2.6866
2.68844
2.69908
2.71635
2.73938
2.76512
2.78981
2.81371
2.8336
2.85038
2.86492
2.87498
2.88509
2.89067
2.89357
2.8949
2.89376
2.89343
2.8907
2.8883
2.88266
2.87921
2.87193
2.86754
2.85807
2.85267
2.84156
2.83574
2.82384
2.81763
2.80501
2.79852
2.78554
2.77846
2.76527
2.75778
2.7445
2.73668
2.72347
2.71544
2.70236
2.69421
2.68131
2.67311
2.66056
2.65229
2.64028
2.63191
2.62075
2.6124
2.60251
2.59425
2.58587
2.57807
2.57116
2.56466
2.55915
2.55456
2.55099
2.54881
2.54845
2.54852
2.54902
2.5504
2.55378
2.55668
2.56267
2.56578
2.57187
2.5741
2.57815
2.57951
2.58122
2.58028
2.23414
2.1424
2.12731
2.16561
2.24601
2.44306
2.69732
2.80625
2.83827
2.84065
2.84938
2.8549
2.86715
2.88295
2.88843
2.8903
2.89216
2.88719
2.86619
2.85424
2.84606
2.83078
2.82253
2.81254
2.80292
2.79937
2.79843
2.79963
2.8078
2.81947
2.83335
2.84956
2.86159
2.87317
2.8793
2.88422
2.88516
2.88329
2.87916
2.8737
2.8626
2.85591
2.84526
2.83847
2.82768
2.81994
2.80858
2.79979
2.78842
2.77967
2.76736
2.75727
2.74423
2.73434
2.72137
2.71138
2.69827
2.68833
2.67514
2.66518
2.65205
2.64198
2.62896
2.61885
2.60589
2.59595
2.58301
2.57323
2.56038
2.55077
2.53822
2.52879
2.51674
2.50739
2.49617
2.48685
2.47679
2.46763
2.45888
2.45045
2.44292
2.4359
2.42973
2.42454
2.42027
2.41722
2.41597
2.41483
2.4142
2.41465
2.41622
2.41801
2.42169
2.42359
2.42732
2.42884
2.43093
2.43194
2.43204
2.43081
2.23282
2.14975
2.08285
2.05805
2.07364
2.1563
2.35041
2.55202
2.66655
2.72601
2.75871
2.78216
2.80383
2.82337
2.8491
2.872
2.88931
2.89798
2.9027
2.89989
2.89255
2.89045
2.89453
2.89679
2.89153
2.88319
2.88146
2.88082
2.88362
2.89059
2.89396
2.89394
2.89059
2.88705
2.87895
2.86669
2.85438
2.84342
2.83198
2.82088
2.80954
2.7987
2.78753
2.77705
2.76516
2.75451
2.74177
2.73088
2.71818
2.70769
2.69472
2.68293
2.66905
2.65776
2.64451
2.63363
2.62063
2.60985
2.59715
2.58656
2.57411
2.5638
2.55142
2.54137
2.52908
2.51931
2.50727
2.49779
2.48612
2.47683
2.46561
2.45639
2.44573
2.43656
2.42666
2.41767
2.40869
2.40019
2.39223
2.38464
2.37774
2.3715
2.36591
2.36122
2.35741
2.35458
2.35339
2.35223
2.3514
2.35164
2.35253
2.35372
2.35607
2.35736
2.35952
2.3606
2.36163
2.3624
2.36229
2.3611
2.22529
2.13707
2.07256
2.01089
2.0106
2.04343
2.13289
2.30796
2.43078
2.50816
2.57604
2.63544
2.66603
2.69844
2.73969
2.76976
2.78946
2.81273
2.84052
2.858
2.86852
2.87761
2.88798
2.89484
2.89835
2.89893
2.89833
2.89896
2.89728
2.89186
2.87784
2.86167
2.84544
2.83138
2.81485
2.80296
2.78945
2.7786
2.76544
2.75484
2.74122
2.73021
2.71626
2.705
2.69116
2.6796
2.66589
2.65435
2.64124
2.63047
2.61767
2.60594
2.59204
2.58019
2.56692
2.55534
2.54237
2.53105
2.51837
2.50743
2.49499
2.48439
2.47213
2.46178
2.4498
2.43967
2.42804
2.41812
2.40692
2.39723
2.38654
2.37715
2.36708
2.35806
2.34878
2.3402
2.33182
2.32391
2.31645
2.30952
2.30316
2.29744
2.29244
2.28821
2.28475
2.28219
2.28096
2.27969
2.27876
2.27839
2.27858
2.27904
2.27941
2.27995
2.2801
2.28025
2.28003
2.28002
2.27957
2.27776
2.22172
2.13755
2.06468
2.00635
1.97497
1.97837
2.01852
2.10709
2.25721
2.34497
2.39076
2.45067
2.50335
2.54546
2.58688
2.61884
2.64816
2.69054
2.7192
2.738
2.76302
2.79119
2.80711
2.8187
2.83262
2.84161
2.84535
2.84445
2.83709
2.82243
2.80274
2.78139
2.76212
2.74456
2.72918
2.71534
2.70116
2.68861
2.67541
2.66326
2.65045
2.63853
2.62604
2.61454
2.60221
2.59104
2.5787
2.56774
2.55578
2.54586
2.53475
2.52445
2.51241
2.50177
2.49019
2.48014
2.46871
2.45894
2.44744
2.43783
2.42643
2.41699
2.40579
2.3965
2.38555
2.37629
2.36568
2.35636
2.34618
2.3368
2.32715
2.31777
2.30873
2.29956
2.29109
2.28256
2.27467
2.26708
2.26007
2.25365
2.24783
2.24285
2.23837
2.23492
2.23188
2.22982
2.22846
2.22734
2.22616
2.22549
2.22477
2.22436
2.2235
2.22292
2.22171
2.22107
2.21971
2.21944
2.21867
2.21694
2.22258
2.14645
2.07035
2.01386
1.96424
1.95111
1.96206
2.00377
2.0867
2.19948
2.26581
2.31249
2.35577
2.39035
2.43431
2.47269
2.50437
2.53909
2.56749
2.59451
2.63363
2.66041
2.67566
2.70357
2.73412
2.74254
2.75221
2.75276
2.74616
2.72767
2.7015
2.67632
2.65114
2.63283
2.61727
2.60536
2.59337
2.5838
2.57289
2.56412
2.55352
2.54489
2.53433
2.5256
2.51497
2.50619
2.49549
2.48669
2.47615
2.46815
2.45834
2.45004
2.43907
2.42983
2.41896
2.41013
2.39951
2.39089
2.38031
2.3718
2.3614
2.35281
2.34277
2.33406
2.32438
2.31564
2.30626
2.29753
2.28859
2.27994
2.27154
2.26311
2.25516
2.24716
2.23972
2.23234
2.22563
2.21908
2.21328
2.20788
2.20307
2.19908
2.19536
2.19275
2.19004
2.18852
2.18674
2.18582
2.18405
2.18302
2.18091
2.17965
2.17708
2.17549
2.17226
2.17071
2.16791
2.16711
2.16557
2.16314
2.22558
2.15239
2.08327
2.02041
1.97356
1.93405
1.93306
1.9488
1.98983
2.06481
2.14761
2.20007
2.24352
2.27525
2.30722
2.33969
2.36782
2.40396
2.43466
2.45495
2.48744
2.51799
2.54983
2.58128
2.60528
2.6235
2.65223
2.65978
2.65236
2.6285
2.59736
2.56556
2.53738
2.51601
2.50122
2.49282
2.487
2.48232
2.4765
2.47091
2.46377
2.45756
2.44984
2.44347
2.43549
2.42869
2.42026
2.41313
2.40445
2.39765
2.38959
2.38284
2.37369
2.36566
2.35604
2.34827
2.33897
2.33115
2.32201
2.31407
2.30517
2.29717
2.2885
2.28034
2.27192
2.26367
2.2555
2.24727
2.23923
2.23122
2.22334
2.21579
2.20834
2.20128
2.19453
2.18816
2.18218
2.17688
2.17187
2.16788
2.16403
2.16129
2.15858
2.15688
2.155
2.15395
2.15241
2.15149
2.1496
2.14819
2.14525
2.1433
2.13938
2.13677
2.13273
2.13018
2.12649
2.1251
2.12335
2.12173
2.22743
2.16027
2.09435
2.03512
1.98155
1.94109
1.91581
1.91747
1.93617
1.98061
2.04485
2.10376
2.14789
2.18112
2.20952
2.23826
2.25768
2.284
2.31198
2.33884
2.36614
2.39403
2.42461
2.45327
2.49191
2.52496
2.55811
2.56983
2.56144
2.53676
2.5013
2.46532
2.43182
2.40785
2.38953
2.38133
2.37989
2.38086
2.38069
2.37972
2.37657
2.37334
2.36798
2.36403
2.35815
2.35375
2.34744
2.34239
2.33554
2.33033
2.32385
2.31899
2.31197
2.30563
2.29786
2.29109
2.28353
2.27646
2.26888
2.26148
2.2539
2.24638
2.23892
2.23142
2.2241
2.21669
2.20943
2.20222
2.19506
2.1881
2.18123
2.1746
2.16825
2.16225
2.15657
2.15143
2.14653
2.14239
2.13841
2.1354
2.13249
2.13057
2.12861
2.12748
2.12595
2.12507
2.12333
2.12205
2.11941
2.11738
2.1135
2.11012
2.10531
2.10123
2.09616
2.09233
2.08779
2.08512
2.08288
2.08133
2.22738
2.1672
2.10493
2.04941
1.99461
1.95205
1.9169
1.90428
1.90653
1.92574
1.96736
2.02329
2.07374
2.10495
2.12883
2.15616
2.17513
2.19436
2.21369
2.23393
2.26156
2.28996
2.32427
2.35328
2.39211
2.4378
2.48798
2.50115
2.49004
2.46187
2.42417
2.3816
2.34586
2.31937
2.29936
2.28788
2.28474
2.28888
2.29514
2.29934
2.3022
2.30233
2.30167
2.30001
2.29694
2.29446
2.2903
2.28705
2.28206
2.27799
2.27302
2.26912
2.26407
2.25882
2.25244
2.24623
2.23985
2.23346
2.22715
2.22059
2.21426
2.20768
2.2012
2.19457
2.18781
2.18105
2.17414
2.16737
2.16065
2.15414
2.14787
2.14191
2.13622
2.13101
2.12612
2.12185
2.11796
2.11477
2.11193
2.10978
2.1078
2.1065
2.10507
2.10419
2.10279
2.10172
2.09955
2.09769
2.09434
2.09105
2.08639
2.0818
2.07594
2.07097
2.06471
2.06001
2.05425
2.05081
2.0474
2.04584
2.22606
2.16866
2.11551
2.05967
2.01072
1.96357
1.92717
1.89793
1.89413
1.8992
1.91861
1.95489
2.00461
2.04538
2.06581
2.09068
2.10887
2.12615
2.14164
2.15677
2.17988
2.20273
2.23635
2.27282
2.32602
2.38774
2.43755
2.44621
2.43234
2.40479
2.36472
2.31882
2.27946
2.24977
2.23095
2.21667
2.20874
2.20868
2.21398
2.22236
2.23002
2.23551
2.23887
2.2402
2.24017
2.23921
2.2371
2.23507
2.23167
2.22846
2.22495
2.22186
2.21865
2.21457
2.20965
2.20404
2.19839
2.19257
2.18681
2.18105
2.17522
2.16944
2.16358
2.15767
2.15179
2.14575
2.13979
2.13374
2.12777
2.12192
2.1163
2.11101
2.10617
2.10185
2.09806
2.0949
2.09229
2.09026
2.08864
2.08748
2.0864
2.08561
2.08452
2.08362
2.08191
2.08028
2.07748
2.07446
2.07033
2.06593
2.06026
2.0549
2.04852
2.04287
2.03606
2.03077
2.02437
2.02007
2.01585
2.01383
2.22205
2.17211
2.12063
2.07059
2.02143
1.97818
1.93665
1.90737
1.88366
1.88417
1.89199
1.91356
1.94242
1.9907
2.01843
2.03881
2.05508
2.06934
2.08618
2.09813
2.12211
2.1419
2.17402
2.2134
2.28373
2.36282
2.4113
2.41114
2.39388
2.36204
2.31643
2.26968
2.22943
2.19951
2.17834
2.16441
2.15435
2.1479
2.14846
2.15435
2.16397
2.17363
2.18187
2.18751
2.19122
2.19299
2.19313
2.19247
2.19099
2.18897
2.1867
2.18452
2.18229
2.17961
2.1759
2.17134
2.16632
2.16112
2.15585
2.1505
2.14512
2.13967
2.13417
2.12872
2.12324
2.11782
2.11247
2.10712
2.10192
2.0968
2.09191
2.08738
2.08328
2.07972
2.07683
2.07456
2.07292
2.07182
2.071
2.07047
2.06974
2.06911
2.0678
2.0664
2.06394
2.06116
2.0572
2.05295
2.04746
2.04173
2.03524
2.02902
2.02193
2.01557
2.00826
2.00206
1.99513
1.98977
1.98491
1.98202
2.21504
2.17104
2.1252
2.07786
2.03323
1.98913
1.95075
1.91582
1.88978
1.87402
1.87514
1.88417
1.90479
1.93472
1.9734
1.99838
2.01751
2.02654
2.04233
2.05424
2.07398
2.09834
2.13429
2.1896
2.27703
2.36197
2.38943
2.38469
2.36533
2.3283
2.28285
2.23661
2.19848
2.1662
2.143
2.12512
2.11356
2.10673
2.10179
2.10191
2.10681
2.11618
2.1265
2.13608
2.14361
2.14856
2.15184
2.15316
2.15344
2.15269
2.1513
2.14956
2.14779
2.14581
2.14306
2.13931
2.13483
2.13012
2.12526
2.12036
2.11541
2.11047
2.1055
2.10058
2.09562
2.09068
2.08578
2.08091
2.07625
2.07177
2.06765
2.06393
2.06065
2.058
2.05594
2.05452
2.05363
2.05316
2.05287
2.05265
2.05219
2.05144
2.04995
2.04775
2.04455
2.04053
2.03557
2.02979
2.02336
2.01674
2.00962
2.00262
1.9951
1.98804
1.98042
1.97366
1.96654
1.96063
1.95535
1.95222
2.20679
2.16762
2.12593
2.08301
2.04155
1.99937
1.96234
1.92594
1.89827
1.87507
1.86682
1.86816
1.87708
1.8965
1.9261
1.95712
1.98286
1.99589
2.00952
2.02504
2.04258
2.0709
2.11601
2.19754
2.29874
2.36629
2.37707
2.36692
2.3423
2.30258
2.25615
2.21365
2.17742
2.14697
2.12198
2.10144
2.08654
2.07595
2.06926
2.06575
2.06562
2.06964
2.078
2.08828
2.09829
2.1067
2.1127
2.11682
2.11856
2.11939
2.11891
2.1177
2.11628
2.1147
2.11281
2.10989
2.10605
2.10166
2.09708
2.09233
2.08758
2.0828
2.07805
2.07342
2.06883
2.06444
2.06015
2.05602
2.0521
2.04847
2.0452
2.04237
2.0401
2.03838
2.0372
2.03652
2.03608
2.03584
2.03554
2.03509
2.03425
2.03289
2.03062
2.02737
2.02308
2.01782
2.01167
2.00494
1.99784
1.99046
1.98276
1.97507
1.9671
1.95941
1.95155
1.94429
1.93693
1.93067
1.92502
1.92179
2.19697
2.16242
2.12459
2.08691
2.04591
2.0093
1.97022
1.93766
1.90504
1.8818
1.86154
1.85974
1.86181
1.87139
1.89324
1.91625
1.94683
1.96756
1.98158
2.00025
2.0246
2.06415
2.13037
2.23834
2.33281
2.36828
2.36727
2.35325
2.32371
2.2815
2.23883
2.20079
2.16733
2.138
2.11232
2.09023
2.07217
2.05744
2.04745
2.04112
2.03788
2.03554
2.03711
2.04293
2.0516
2.06147
2.0707
2.07749
2.08274
2.08497
2.08609
2.08566
2.08442
2.08295
2.08134
2.07933
2.07636
2.0726
2.06846
2.06412
2.05976
2.05534
2.05101
2.04666
2.04246
2.03834
2.0345
2.03083
2.02763
2.02471
2.02238
2.02055
2.01929
2.01853
2.01812
2.01803
2.01782
2.01745
2.01689
2.01605
2.01448
2.01218
2.00863
2.00416
1.99842
1.99221
1.98525
1.97816
1.97042
1.96271
1.95461
1.94664
1.93852
1.93067
1.92278
1.91541
1.90804
1.90164
1.8958
1.8924
2.1866
2.15551
2.12154
2.08663
2.05043
2.01417
1.97979
1.94503
1.91585
1.88663
1.86706
1.85044
1.85081
1.85486
1.86524
1.88713
1.91053
1.94206
1.96211
1.98484
2.01692
2.07641
2.18048
2.29611
2.35807
2.36754
2.36025
2.34017
2.30617
2.2666
2.22919
2.19527
2.16431
2.13621
2.11041
2.08744
2.06702
2.04965
2.03567
2.0246
2.01757
2.01236
2.00968
2.0084
2.01104
2.01741
2.02605
2.03453
2.04176
2.04715
2.0503
2.05199
2.05175
2.05061
2.04886
2.04699
2.04465
2.04159
2.03789
2.03407
2.03018
2.02639
2.0225
2.01879
2.01502
2.01158
2.00839
2.00561
2.00332
2.00154
2.00026
1.99941
1.99914
1.99899
1.99902
1.9991
1.99887
1.99829
1.99729
1.99593
1.99338
1.98986
1.98487
1.97929
1.97279
1.9662
1.95884
1.95148
1.94353
1.93565
1.92741
1.91936
1.91116
1.90333
1.89544
1.88814
1.88084
1.87449
1.86865
1.86529
2.17504
2.14661
2.11681
2.08418
2.05191
2.01715
1.98463
1.95212
1.92216
1.89417
1.87152
1.85204
1.84246
1.8433
1.84892
1.86285
1.88176
1.91128
1.94538
1.9789
2.02998
2.12082
2.25228
2.34876
2.3735
2.37067
2.35788
2.3305
2.29374
2.25804
2.22523
2.19484
2.16595
2.13889
2.11331
2.08972
2.06782
2.0482
2.03095
2.01568
2.00313
1.994
1.98701
1.98165
1.9788
1.97795
1.98133
1.98816
1.99603
2.00345
2.00933
2.01316
2.01507
2.01557
2.01462
2.01311
2.01149
2.00955
2.00693
2.00373
2.00036
1.99708
1.99383
1.99079
1.98789
1.98524
1.98301
1.98119
1.98006
1.97928
1.97926
1.97941
1.97982
1.98042
1.98089
1.98066
1.98005
1.97903
1.97743
1.97514
1.97123
1.96659
1.96074
1.95486
1.94798
1.94117
1.93354
1.92611
1.91803
1.91027
1.90205
1.89424
1.8862
1.87862
1.87096
1.86387
1.85679
1.85059
1.84483
1.84153
2.16243
2.13554
2.10936
2.07956
2.0498
2.01955
1.98698
1.95816
1.92671
1.90126
1.87417
1.85666
1.83851
1.83665
1.83888
1.84717
1.86538
1.89081
1.93037
1.98285
2.06336
2.20079
2.32345
2.37665
2.37964
2.37168
2.35079
2.31917
2.2859
2.25468
2.22541
2.19713
2.16999
2.14385
2.11888
2.09487
2.07169
2.04994
2.02907
2.01043
1.99356
1.9791
1.96738
1.95869
1.95105
1.94658
1.94366
1.94432
1.94872
1.95567
1.96297
1.96957
1.97454
1.97748
1.97884
1.97873
1.97784
1.97647
1.97513
1.97326
1.97095
1.96843
1.96602
1.96378
1.96195
1.96037
1.95934
1.9589
1.95895
1.95928
1.96013
1.96183
1.96322
1.96432
1.96427
1.9639
1.96298
1.96157
1.95916
1.95547
1.95049
1.94519
1.93896
1.9326
1.92547
1.9184
1.91074
1.90327
1.8954
1.8878
1.87992
1.87241
1.86469
1.85745
1.85006
1.84327
1.83639
1.83036
1.82471
1.82136
2.14904
2.12495
2.09916
2.07393
2.04543
2.01793
1.98885
1.96053
1.93195
1.90594
1.88031
1.85881
1.84129
1.83088
1.83165
1.83854
1.85224
1.88106
1.92436
2.00213
2.12773
2.28143
2.36885
2.38601
2.38197
2.36852
2.34363
2.31347
2.28498
2.25718
2.23002
2.20292
2.1769
2.15038
2.12443
2.09848
2.0735
2.0493
2.02607
2.0047
1.98414
1.96611
1.95019
1.93704
1.92665
1.91825
1.91203
1.90922
1.90758
1.90979
1.91537
1.92261
1.92999
1.9361
1.94065
1.94345
1.94492
1.94548
1.94497
1.94423
1.94354
1.94233
1.94112
1.93997
1.93955
1.93941
1.93959
1.94023
1.9414
1.94328
1.94543
1.94752
1.94954
1.94981
1.94962
1.94897
1.94779
1.94559
1.94182
1.93722
1.93172
1.92574
1.91909
1.9122
1.90482
1.89737
1.88968
1.88205
1.87432
1.86675
1.85906
1.85171
1.84414
1.83713
1.82986
1.82335
1.81657
1.81083
1.80527
1.80208
2.13758
2.11361
2.08871
2.06523
2.04026
2.01393
1.98784
1.96088
1.93444
1.90837
1.88542
1.86192
1.84523
1.83209
1.83255
1.83956
1.85396
1.88447
1.94432
2.04613
2.21565
2.34767
2.39087
2.39048
2.38342
2.36543
2.34
2.31264
2.28663
2.25955
2.23303
2.2057
2.17845
2.15074
2.12366
2.0964
2.07025
2.04419
2.01995
1.996
1.97454
1.95365
1.93566
1.91918
1.90612
1.89512
1.88671
1.87966
1.87582
1.87341
1.87412
1.87829
1.88521
1.89329
1.90063
1.90741
1.91176
1.91498
1.91685
1.91744
1.91837
1.91852
1.9188
1.91929
1.92025
1.92163
1.92369
1.9259
1.92817
1.93068
1.93333
1.93533
1.93602
1.93587
1.93521
1.9339
1.93155
1.92789
1.92316
1.91794
1.91176
1.90554
1.89845
1.89158
1.88393
1.87674
1.86888
1.86165
1.85383
1.84667
1.839
1.832
1.82461
1.81787
1.81084
1.80452
1.79804
1.79242
1.78713
1.78399
2.12299
2.10198
2.07925
2.05588
2.03352
2.00905
1.98527
1.95919
1.93688
1.90933
1.88918
1.86558
1.8495
1.83864
1.83993
1.8495
1.86844
1.90744
1.98871
2.12096
2.27583
2.35965
2.37694
2.37332
2.36429
2.34756
2.32281
2.29703
2.27089
2.24559
2.21908
2.19294
2.16525
2.13819
2.11029
2.08374
2.05773
2.03334
2.00922
1.98654
1.96402
1.94353
1.92392
1.90638
1.89103
1.8777
1.867
1.85799
1.85
1.84528
1.843
1.84255
1.84525
1.85122
1.86005
1.86851
1.87635
1.88279
1.88743
1.89103
1.89373
1.8959
1.89804
1.90034
1.90307
1.90617
1.90938
1.91274
1.91589
1.91913
1.92084
1.9226
1.92206
1.9211
1.91979
1.9177
1.91375
1.90921
1.90378
1.89792
1.89137
1.88479
1.8777
1.87073
1.86337
1.85623
1.8488
1.84169
1.83437
1.82744
1.82026
1.81353
1.80658
1.80022
1.79368
1.78783
1.78187
1.77677
1.77192
1.76915
2.1082
2.09075
2.06947
2.04647
2.02542
2.00214
1.98166
1.95562
1.93572
1.9107
1.8906
1.87049
1.85479
1.85149
1.85717
1.87051
1.89939
1.95541
2.06346
2.18646
2.27792
2.32472
2.33798
2.33551
2.32925
2.31664
2.2971
2.27396
2.24988
2.22666
2.20268
2.17825
2.1528
2.12712
2.10131
2.07666
2.05188
2.02832
2.0046
1.98154
1.9588
1.93723
1.91658
1.89829
1.88074
1.86589
1.85186
1.84055
1.83077
1.82267
1.81692
1.81404
1.81327
1.8148
1.81977
1.8279
1.83725
1.8465
1.85518
1.86244
1.86863
1.87364
1.87839
1.88281
1.88749
1.892
1.89654
1.90066
1.90418
1.90643
1.90863
1.9078
1.90706
1.90609
1.90423
1.90078
1.89627
1.8912
1.88521
1.87905
1.87226
1.86557
1.85828
1.85131
1.8438
1.83675
1.82924
1.8223
1.81495
1.80829
1.8013
1.79504
1.78842
1.78252
1.77631
1.77083
1.76518
1.76041
1.75595
1.75335
2.0884
2.07691
2.05912
2.03692
2.01711
1.99436
1.97598
1.95197
1.9325
1.91063
1.89214
1.87559
1.86692
1.8698
1.88163
1.90524
1.95395
2.04043
2.14192
2.21259
2.25432
2.28197
2.29504
2.29704
2.29404
2.28799
2.27731
2.25774
2.23568
2.21331
2.19117
2.16787
2.14374
2.11842
2.09371
2.06866
2.04499
2.02115
1.9982
1.97519
1.95327
1.93168
1.9117
1.89209
1.87424
1.85701
1.84161
1.82768
1.81572
1.80599
1.79757
1.79147
1.78779
1.78701
1.78778
1.79164
1.79935
1.80985
1.82147
1.83287
1.84298
1.85187
1.85964
1.8667
1.87317
1.87918
1.88458
1.88862
1.89177
1.89374
1.89307
1.89232
1.89133
1.88926
1.88573
1.88151
1.87614
1.87034
1.86395
1.8576
1.85068
1.84403
1.83686
1.83015
1.8229
1.81617
1.80898
1.80246
1.79561
1.7894
1.78291
1.77703
1.77089
1.7654
1.75967
1.7547
1.74958
1.74544
1.74155
1.73941
2.06786
2.06256
2.04746
2.0268
2.00828
1.98693
1.96897
1.94836
1.92926
1.91054
1.89496
1.8858
1.88704
1.89796
1.91944
1.9634
2.04156
2.13064
2.18634
2.21173
2.226
2.23797
2.25071
2.25744
2.25955
2.25723
2.25245
2.24266
2.22445
2.20325
2.18135
2.15819
2.13473
2.11029
2.08642
2.06276
2.03945
2.01652
1.99379
1.97118
1.94934
1.92764
1.90696
1.88705
1.86785
1.85015
1.83328
1.81802
1.8045
1.79235
1.78288
1.7742
1.76836
1.764
1.76329
1.76356
1.76655
1.77385
1.78551
1.79895
1.81253
1.82538
1.83713
1.84724
1.85629
1.86343
1.869
1.874
1.87579
1.87697
1.8761
1.87502
1.87273
1.86993
1.86588
1.861
1.85523
1.84951
1.84314
1.83691
1.83005
1.82366
1.81661
1.81011
1.80301
1.79663
1.78978
1.78367
1.77715
1.77135
1.76516
1.75967
1.75388
1.74879
1.74355
1.73906
1.7346
1.73103
1.72791
1.72614
2.03823
2.04207
2.03469
2.01824
1.99903
1.97902
1.96107
1.94316
1.92656
1.91151
1.90257
1.90397
1.91556
1.9366
1.98017
2.05337
2.13776
2.18203
2.1991
2.1991
2.19843
2.19959
2.20443
2.21583
2.22348
2.22736
2.22548
2.22112
2.21149
2.19423
2.17235
2.14961
2.12623
2.10281
2.07927
2.05596
2.03264
2.01005
1.9872
1.9657
1.9437
1.92323
1.90242
1.88262
1.8633
1.84452
1.82706
1.81051
1.79539
1.78229
1.77007
1.76095
1.75269
1.7474
1.74402
1.74378
1.74421
1.74731
1.75506
1.76671
1.78156
1.79705
1.81254
1.8263
1.83748
1.84692
1.85314
1.85694
1.85905
1.85847
1.85717
1.85509
1.85254
1.84873
1.84369
1.8384
1.83265
1.82689
1.82043
1.81426
1.8076
1.80144
1.7947
1.78867
1.78204
1.77622
1.76984
1.76429
1.75827
1.75299
1.74737
1.74239
1.73723
1.73271
1.72814
1.72437
1.72071
1.71798
1.71568
1.71443
2.00293
2.02099
2.01946
2.00792
1.99097
1.97183
1.9541
1.93834
1.92521
1.91742
1.91973
1.93209
1.95416
1.99866
2.07367
2.15267
2.1903
2.19923
2.19371
2.18442
2.17214
2.16894
2.17001
2.17444
2.18591
2.19431
2.19763
2.19537
2.19068
2.1812
2.16268
2.14065
2.11808
2.09495
2.07246
2.04926
2.02647
2.00385
1.98149
1.9599
1.93864
1.9178
1.89764
1.87724
1.85815
1.8387
1.82108
1.80383
1.78832
1.7742
1.76126
1.75052
1.74083
1.73368
1.72941
1.72774
1.728
1.72913
1.73339
1.74216
1.75342
1.76791
1.78304
1.79834
1.81217
1.82254
1.83092
1.83557
1.83758
1.83706
1.83575
1.83383
1.83038
1.82617
1.8213
1.81639
1.81059
1.80484
1.79862
1.79291
1.78661
1.78082
1.77443
1.7687
1.76247
1.75696
1.75099
1.74573
1.74007
1.73516
1.72989
1.72546
1.72069
1.7169
1.7129
1.71005
1.70717
1.70543
1.70409
1.70357
1.93
1.98872
1.99868
1.9949
1.98209
1.96533
1.949
1.93602
1.92968
1.93351
1.94699
1.97205
2.0187
2.09664
2.17236
2.20412
2.20895
2.20149
2.18603
2.16468
2.15008
2.14242
2.14264
2.14397
2.14868
2.15875
2.16529
2.16616
2.16367
2.1584
2.14803
2.13006
2.10813
2.08554
2.06365
2.04119
2.0192
1.99656
1.9744
1.95252
1.93124
1.9107
1.89067
1.871
1.8521
1.83305
1.81555
1.79807
1.78245
1.76777
1.75433
1.74299
1.73229
1.72447
1.71843
1.71583
1.71584
1.71643
1.71884
1.72543
1.73377
1.74383
1.75588
1.76893
1.78208
1.79307
1.80256
1.80827
1.81178
1.81168
1.81066
1.80897
1.80581
1.80177
1.7967
1.7918
1.78612
1.78107
1.77513
1.76993
1.76388
1.75883
1.75286
1.74788
1.74191
1.73701
1.73138
1.72685
1.72179
1.7176
1.71313
1.70927
1.70553
1.70236
1.69961
1.69754
1.69593
1.69513
1.69518
1.6948
1.7934
1.94294
1.97325
1.97732
1.97211
1.96019
1.94637
1.93935
1.9445
1.95967
1.9885
2.04033
2.12071
2.19358
2.22187
2.22313
2.21434
2.19441
2.16842
2.14645
2.13101
2.12217
2.11899
2.11895
2.11982
2.12291
2.12957
2.13451
2.13315
2.13008
2.12418
2.11492
2.09721
2.07575
2.05336
2.03115
2.00941
1.9879
1.966
1.94489
1.92329
1.90325
1.88298
1.86409
1.84521
1.82702
1.80963
1.79253
1.77722
1.76228
1.74943
1.73747
1.72733
1.71925
1.71318
1.71035
1.70926
1.7095
1.71042
1.71341
1.71981
1.72667
1.73381
1.74264
1.75162
1.76108
1.76947
1.77663
1.78149
1.78389
1.78378
1.78307
1.78157
1.77834
1.77397
1.76912
1.76396
1.75857
1.75323
1.74797
1.74273
1.73755
1.73241
1.7273
1.7224
1.71744
1.71287
1.70826
1.70414
1.70006
1.69655
1.69316
1.69046
1.68806
1.68656
1.68533
1.68533
1.68585
1.68709
1.68699
1.58465
1.85771
1.94395
1.95975
1.96126
1.95596
1.94981
1.95329
1.97007
2.00345
2.06135
2.14735
2.21685
2.2418
2.23977
2.22927
2.20667
2.17755
2.15275
2.13354
2.11845
2.1074
2.09959
2.09561
2.09303
2.09323
2.09434
2.09679
2.09962
2.09799