/*--------------------------------*- C++ -*----------------------------------*\
  =========                 |
  \\      /  F ield         | OpenFOAM: The Open Source CFD Toolbox
   \\    /   O peration     | Website:  https://openfoam.org
    \\  /    A nd           | Version:  10
     \\/     M anipulation  |
\*---------------------------------------------------------------------------*/
FoamFile
{
    format      ascii;
    class       volScalarField;
    location    "0.5";
    object      p;
}
// * * * * * * * * * * * * * * * * * * * * * * * * * * * * * * * * * * * * * //

dimensions      [1 -1 -2 0 0 0 0];

internalField   nonuniform List<scalar> 
5250
(
1
1
1
1.00001
1.00003
1.00008
1.00019
1.00055
1.00126
1.00352
1.00824
1.02247
1.05501
1.14648
1.39162
2.12754
4.4667
11.2832
12.5214
11.8021
11.7949
12.0532
12.3865
12.4743
12.5944
1
1
1
1.00001
1.00003
1.00008
1.00019
1.00054
1.00123
1.00347
1.00801
1.02227
1.05364
1.14428
1.38379
2.10632
4.40114
11.1472
12.5358
11.795
11.7856
12.0457
12.3844
12.4713
12.592
1
1
1
1.00001
1.00003
1.00008
1.00018
1.00052
1.00118
1.00333
1.00771
1.02144
1.05157
1.13879
1.36851
2.06036
4.2608
10.8321
12.5634
11.7739
11.7486
12.0066
12.3519
12.4353
12.5584
1
1
1
1.00001
1.00003
1.00008
1.00017
1.00049
1.00112
1.00314
1.00726
1.02021
1.04852
1.13066
1.34589
1.99186
4.05017
10.3226
12.6085
11.7479
11.6844
11.9337
12.2839
12.3649
12.4911
1
1
1
1.00001
1.00003
1.00007
1.00016
1.00045
1.00104
1.0029
1.0067
1.01865
1.04466
1.12022
1.3169
1.9037
3.77688
9.61043
12.6646
11.7252
11.5996
11.8314
12.1807
12.2593
12.3905
1
1
1
1.00001
1.00002
1.00006
1.00015
1.00041
1.00095
1.00264
1.00607
1.01685
1.0402
1.10802
1.28276
1.79938
3.44528
8.68661
12.6943
11.71
11.4996
11.697
12.0315
12.106
12.2382
1
1
1
1.00001
1.00002
1.00006
1.00014
1.00037
1.00086
1.00237
1.00544
1.01502
1.0355
1.09512
1.24585
1.68671
3.07089
7.53504
12.6818
11.6952
11.3825
11.5287
11.8227
11.8823
12.0064
1
1
1
1.00001
1.00002
1.00005
1.00012
1.00033
1.00077
1.00212
1.00488
1.01339
1.03146
1.08374
1.21251
1.5816
2.69073
6.1789
12.5213
11.6485
11.2314
11.3183
11.5338
11.5661
11.6517
1
1
1
1.00001
1.00002
1.00004
1.00011
1.00029
1.00069
1.00187
1.00435
1.01182
1.02789
1.07392
1.18627
1.50497
2.43726
5.29197
11.9441
11.506
11.04
11.0514
11.1374
11.1093
11.0822
1
1
1
1.00001
1.00001
1.00004
1.00009
1.00025
1.0006
1.0016
1.00374
1.01019
1.02403
1.06389
1.1599
1.43187
2.21737
4.60252
10.8627
11.1572
10.8839
10.6926
10.6353
10.46
10.1063
1
1
1
1
1.00001
1.00003
1.00008
1.0002
1.00049
1.00133
1.00311
1.00853
1.02004
1.05376
1.13351
1.35949
2.00503
3.978
9.53787
10.9021
10.6467
10.2745
10.0038
9.41033
7.81196
1
1
1
1
1.00001
1.00003
1.00006
1.00017
1.00039
1.00107
1.00253
1.00677
1.01646
1.04291
1.10862
1.28779
1.80036
3.36807
8.00985
10.7144
10.4094
9.85785
9.37904
8.56531
6.91075
1
1
1
1
1.00001
1.00002
1.00005
1.00012
1.00032
1.0008
1.00198
1.00518
1.01262
1.03312
1.08276
1.2192
1.59577
2.75188
6.24119
10.4307
10.1362
9.49683
8.88994
8.01698
6.64648
1
1
1
1
1.00001
1.00001
1.00004
1.00009
1.00025
1.00059
1.00161
1.00373
1.01028
1.02417
1.06479
1.16236
1.43995
2.24014
4.58836
9.77296
9.68874
9.25314
8.54054
7.68193
6.56802
1
1
1
1
1
1.00001
1.00003
1.00007
1.00017
1.00047
1.00111
1.00301
1.00724
1.019
1.04732
1.12305
1.32448
1.907
3.64974
8.29889
9.23612
8.96609
8.32735
7.46776
6.51223
1
1
1
1
1
1.00001
1.00002
1.00005
1.00012
1.00034
1.00077
1.00216
1.00499
1.01392
1.03289
1.0888
1.22713
1.62937
2.83071
6.31506
8.91868
8.74138
8.21208
7.35736
6.48643
1
1
1
1
1
1.00001
1.00001
1.00003
1.00009
1.00022
1.00056
1.00146
1.00354
1.00944
1.02282
1.06022
1.15185
1.40763
2.12962
4.15283
8.29014
8.41336
8.10192
7.3632
6.4948
1
1
1
1
1
1
1.00001
1.00002
1.00006
1.00014
1.0004
1.00092
1.00257
1.00593
1.01652
1.03907
1.10525
1.27049
1.75155
3.1408
6.81375
8.09913
7.90767
7.3581
6.53193
1
1
1
1
1
1
1.00001
1.00002
1.00004
1.0001
1.00023
1.00065
1.0015
1.00417
1.00961
1.02644
1.06327
1.16968
1.44557
2.24955
4.44113
7.56621
7.58758
7.31785
6.65022
1
1
1
1
1
1
1
1.00001
1.00002
1.00006
1.00016
1.00038
1.00104
1.00241
1.00666
1.01552
1.04237
1.10327
1.27936
1.75128
3.09501
6.34954
7.33678
7.20251
6.76983
1
1
1
1
1
1
1
1.00001
1.00002
1.00004
1.0001
1.00023
1.00062
1.00146
1.00392
1.00947
1.02461
1.06146
1.15985
1.42152
2.15316
4.06755
6.80121
6.95352
6.73686
1
1
1
1
1
1
1
1
1.00001
1.00002
1.00006
1.00013
1.00036
1.00086
1.00229
1.00563
1.01443
1.03668
1.09341
1.24539
1.65774
2.79186
5.5485
6.65707
6.59765
1
1
1
1
1
1
1
1
1
1.00001
1.00003
1.00008
1.00019
1.00052
1.0012
1.00336
1.00772
1.02126
1.05042
1.13439
1.34313
1.9129
3.30169
5.98749
6.38598
1
1
1
1
1
1
1
1
1
1.00001
1.00002
1.00004
1.00011
1.00026
1.0007
1.00169
1.00436
1.01105
1.0278
1.07181
1.18487
1.49087
2.31177
4.38613
5.96187
1
1
1
1
1
1
1
1
1
1
1.00001
1.00002
1.00005
1.00015
1.00034
1.00093
1.0022
1.00599
1.0144
1.03808
1.09561
1.25174
1.66219
2.7024
4.98045
1
1
1
1
1
1
1
1
1
1
1
1.00001
1.00003
1.00007
1.00017
1.00046
1.00115
1.00288
1.00749
1.01843
1.04798
1.12044
1.3135
1.797
2.92787
1
1
1
1
1
1
1
1
1
1
1
1
1.00001
1.00003
1.00009
1.0002
1.00057
1.00133
1.00365
1.0086
1.02314
1.05622
1.14854
1.37836
1.97914
1
1
1
1
1
1
1
1
1
1
1
1
1.00001
1.00002
1.00004
1.0001
1.00024
1.00066
1.00153
1.00427
1.00997
1.02733
1.06609
1.17743
1.44934
1
1
1
1
1
1
1
1
1
1
1
1
1
1.00001
1.00002
1.00004
1.0001
1.00029
1.00068
1.00185
1.00444
1.01189
1.02938
1.077
1.1975
1
1
1
1
1
1
1
1
1
1
1
1
1
1
1.00001
1.00002
1.00004
1.00011
1.0003
1.00071
1.00198
1.00464
1.01299
1.03083
1.08382
1
1
1
1
1
1
1
1
1
1
1
1
1
1
1
1.00001
1.00002
1.00004
1.00012
1.00028
1.00076
1.00191
1.0049
1.01274
1.03217
1
1
1
1
1
1
1
1
1
1
1
1
1
1
1
1
1.00001
1.00002
1.00004
1.00011
1.00026
1.00074
1.00174
1.00494
1.01157
1
1
1
1
1
1
1
1
1
1
1
1
1
1
1
1
1
1.00001
1.00001
1.00004
1.0001
1.00024
1.00066
1.0016
1.00442
1
1
1
1
1
1
1
1
1
1
1
1
1
1
1
1
1
1
1
1.00001
1.00003
1.00008
1.00021
1.00053
1.00143
1
1
1
1
1
1
1
1
1
1
1
1
1
1
1
1
1
1
1
1
1.00001
1.00003
1.00006
1.00017
1.00041
1
1
1
1
1
1
1
1
1
1
1
1
1
1
1
1
1
1
1
1
1
1.00001
1.00002
1.00004
1.00013
1
1
1
1
1
1
1
1
1
1
1
1
1
1
1
1
1
1
1
1
1
1
1
1.00001
1.00003
1
1
1
1
1
1
1
1
1
1
1
1
1
1
1
1
1
1
1
1
1
1
1
1
1.00001
1
1
1
1
1
1
1
1
1
1
1
1
1
1
1
1
1
1
1
1
1
1
1
1
1
1
1
1
1
1
1
1
1
1
1
1
1
1
1
1
1
1
1
1
1
1
1
1
1
1
1
1
1
1
1
1
1
1
1
1
1
1
1
1
1
1
1
1
1
1
1
1
1
1
1
1
1
1
1
1
1
1
1
1
1
1
1
1
1
1
1
1
1
1
1
1
1
1
1
1
1
1
1
1
1
1
1
1
1
1
1
1
1
1
1
1
1
1
1
1
1
1
1
1
1
1
1
1
1
1
1
1
1
1
1
1
1
1
1
1
1
1
1
1
1
1
1
1
1
1
1
1
1
1
1
1
1
1
1
1
1
1
1
1
1
1
1
1
1
1
1
1
1
1
1
1
1
1
1
1
1
1
1
1
1
1
1
1
1
1
1
1
1
1
1
1
1
1
1
1
1
1
1
1
1
1
1
1
1
1
1
1
1
1
1
1
1
1
1
1
1
1
1
1
1
1
1
1
1
1
1
1
1
1
1
1
1
1
1
1
1
1
1
1
1
1
1
1
1
1
1
1
1
1
1
1
1
1
1
1
1
1
1
1
1
1
1
1
1
1
1
1
1
1
1
1
1
1
1
1
1
1
1
1
1
1
1
1
1
1
1
1
1
1
1
1
1
1
1
1
3.14799
1.56105
1.03593
0.879574
0.892092
0.940036
1.04354
1.14037
1.16907
1.16525
1.15194
1.1226
1.08961
1.06619
1.05224
1.04115
1.03069
1.01922
1.0063
0.992332
0.977997
0.963899
0.950434
0.937771
0.92593
0.914894
0.904679
0.895299
0.886764
0.879196
0.872655
0.866897
0.862141
0.858814
0.855968
0.853511
0.852315
0.852022
0.852062
0.852284
0.852898
0.854324
0.856505
0.860447
0.864912
0.868995
0.873637
0.878896
0.884774
0.891217
0.898161
0.905459
0.912951
0.92046
0.927795
0.934777
0.941257
0.947161
0.952504
0.957393
0.962016
0.966593
0.971332
0.976405
0.981921
0.987889
0.994215
1.00072
1.00714
1.01316
1.01845
1.02273
1.02581
1.02767
1.02849
1.02866
1.02865
1.02851
1.02807
1.02685
1.02387
1.02001
1.01588
1.01199
1.00885
1.00637
1.00447
1.00306
1.00203
1.00126
1.00078
1.0005
1.00031
1.00019
1.00011
1.00006
1.00003
1.00001
1
0.999992
3.87136
2.37973
1.73104
1.44192
1.29896
1.19513
1.12597
1.09943
1.10052
1.10448
1.11278
1.11223
1.10804
1.0971
1.07473
1.05088
1.03085
1.01459
1.00074
0.988177
0.976134
0.96409
0.951869
0.939594
0.927517
0.91595
0.905166
0.895323
0.886543
0.878895
0.872314
0.86679
0.862322
0.858744
0.855962
0.853977
0.852763
0.852213
0.852045
0.852233
0.852822
0.854234
0.856284
0.859135
0.8639
0.869288
0.873293
0.878301
0.884076
0.890452
0.897277
0.904449
0.911834
0.919265
0.92656
0.93354
0.940066
0.946059
0.951523
0.956549
0.961297
0.965976
0.970809
0.975966
0.981529
0.987521
0.993865
1.00038
1.00683
1.01288
1.01821
1.02251
1.02561
1.0275
1.02837
1.02858
1.02858
1.02847
1.02808
1.02699
1.02433
1.02015
1.01569
1.01192
1.00885
1.00641
1.00454
1.00307
1.00193
1.00123
1.00081
1.00051
1.00032
1.00019
1.00011
1.00006
1.00003
1.00001
1
0.99999
4.67522
3.29678
2.43086
1.8818
1.52427
1.29334
1.14993
1.06682
1.04854
1.05081
1.05764
1.0715
1.07622
1.0748
1.06961
1.058
1.03764
1.01716
0.998982
0.9843
0.971532
0.959589
0.9479
0.936368
0.925024
0.914051
0.903655
0.894004
0.885275
0.877572
0.870906
0.865356
0.860866
0.85724
0.854594
0.852709
0.851328
0.850967
0.851015
0.851255
0.851957
0.853434
0.855489
0.858528
0.863327
0.868439
0.872756
0.877887
0.883724
0.890132
0.897003
0.904223
0.911655
0.919132
0.92647
0.933494
0.940066
0.946108
0.951621
0.956686
0.961465
0.966166
0.971002
0.976156
0.981747
0.987786
0.994176
1.00073
1.00718
1.01323
1.01854
1.02282
1.02586
1.0277
1.02853
1.02873
1.02873
1.02863
1.02824
1.02713
1.02452
1.01991
1.01552
1.01182
1.00878
1.00637
1.00449
1.003
1.00188
1.00123
1.0008
1.00051
1.00031
1.00019
1.00011
1.00006
1.00003
1.00001
1
0.99999
5.0997
3.84961
2.93143
2.29464
1.86495
1.57183
1.37478
1.2467
1.1569
1.10056
1.06977
1.05701
1.05566
1.05586
1.05529
1.05308
1.04751
1.03589
1.01725
0.99737
0.979174
0.963284
0.949432
0.93716
0.925895
0.915375
0.905444
0.896049
0.8873
0.879367
0.872368
0.86647
0.861664
0.857781
0.854949
0.85295
0.85148
0.85108
0.851117
0.851336
0.851996
0.853356
0.85551
0.858418
0.863114
0.868269
0.872666
0.877804
0.88363
0.890028
0.896894
0.904113
0.91154
0.919007
0.926329
0.933334
0.939894
0.94594
0.951481
0.956603
0.961462
0.966258
0.971206
0.976486
0.982203
0.988359
0.994864
1.00153
1.00806
1.01415
1.01945
1.02369
1.02668
1.02843
1.02916
1.02931
1.0293
1.02917
1.02871
1.02739
1.0245
1.01971
1.0154
1.01175
1.00875
1.00635
1.00442
1.00288
1.00185
1.00124
1.00081
1.00051
1.00032
1.00019
1.00011
1.00006
1.00003
1.00001
1
0.999989
5.34429
4.24757
3.36403
2.69969
2.2146
1.86129
1.60166
1.40942
1.26753
1.16536
1.09622
1.05054
1.02977
1.02074
1.01839
1.01787
1.01666
1.01373
1.00756
0.995535
0.980525
0.964757
0.949484
0.935543
0.922782
0.911564
0.901646
0.892526
0.884169
0.876682
0.870086
0.864493
0.859882
0.856059
0.85324
0.851212
0.849691
0.849329
0.849387
0.849657
0.850351
0.851863
0.854038
0.857897
0.862019
0.866588
0.871574
0.877078
0.883112
0.889643
0.896589
0.903841
0.911276
0.918719
0.925977
0.932889
0.939346
0.945309
0.950804
0.955919
0.960804
0.965646
0.970663
0.976046
0.981902
0.988226
0.994915
1.00176
1.00846
1.01466
1.02003
1.02427
1.02724
1.02896
1.02965
1.02978
1.02976
1.02959
1.02906
1.02751
1.02451
1.01952
1.01519
1.01156
1.00859
1.00621
1.00428
1.00277
1.00183
1.00123
1.0008
1.0005
1.00031
1.00018
1.0001
1.00005
1.00003
1.00001
1
0.99999
5.50305
4.54455
3.71945
3.05753
2.54479
2.15158
1.85099
1.62124
1.44521
1.31044
1.20823
1.13469
1.08003
1.04216
1.01996
1.00782
1.00186
0.99985
0.997998
0.994248
0.986666
0.974679
0.961004
0.946542
0.932544
0.919014
0.906653
0.895715
0.886291
0.878413
0.871764
0.866208
0.861642
0.85782
0.854932
0.852786
0.851117
0.850486
0.850494
0.850664
0.851197
0.852388
0.85482
0.858104
0.861988
0.866471
0.871488
0.877028
0.88307
0.889585
0.896513
0.90371
0.911098
0.918499
0.925699
0.932537
0.938913
0.944809
0.950269
0.955384
0.960302
0.965185
0.970245
0.975699
0.981666
0.988141
0.994992
1.00199
1.00883
1.01515
1.0206
1.0249
1.02789
1.02957
1.03024
1.03033
1.03017
1.02996
1.02943
1.02793
1.02476
1.01951
1.01506
1.01142
1.00848
1.00609
1.00412
1.00268
1.00183
1.00122
1.0008
1.0005
1.00031
1.00018
1.0001
1.00006
1.00003
1.00001
1
0.99999
5.61671
4.77147
4.01402
3.37393
2.85234
2.43499
2.10376
1.84127
1.63282
1.4669
1.33488
1.23098
1.14938
1.08768
1.0421
1.01036
0.989719
0.978169
0.971692
0.968001
0.965121
0.960766
0.953875
0.94424
0.932856
0.920489
0.908064
0.896354
0.885708
0.877021
0.869676
0.863545
0.858646
0.854693
0.851812
0.849799
0.848316
0.847955
0.848004
0.848265
0.848966
0.850436
0.853059
0.856368
0.860363
0.865019
0.870291
0.876136
0.882497
0.889283
0.896455
0.903863
0.911432
0.919013
0.92638
0.933354
0.939824
0.945716
0.951189
0.956475
0.961547
0.966499
0.971596
0.977086
0.98306
0.989528
0.996377
1.00337
1.01016
1.01642
1.02177
1.0259
1.02867
1.03015
1.03064
1.03076
1.03093
1.03077
1.03015
1.02832
1.02441
1.01914
1.01478
1.01119
1.00827
1.00589
1.00394
1.0026
1.00179
1.00119
1.00077
1.00049
1.0003
1.00018
1.0001
1.00005
1.00003
1.00001
1
0.99999
5.71663
4.95502
4.25923
3.64923
3.13213
2.70308
2.3512
2.06428
1.83061
1.64035
1.48527
1.35944
1.25771
1.17624
1.11118
1.06095
1.02328
0.995489
0.97637
0.96411
0.956598
0.95173
0.947193
0.941528
0.934235
0.925532
0.91564
0.905159
0.895003
0.884895
0.875622
0.867828
0.861537
0.856634
0.852886
0.850393
0.848591
0.847856
0.847876
0.848088
0.848712
0.850042
0.852552
0.855833
0.859845
0.864566
0.869953
0.875944
0.882457
0.889404
0.896717
0.904302
0.912038
0.919712
0.927156
0.934254
0.94092
0.946975
0.95232
0.957642
0.963169
0.968214
0.973367
0.979
0.98521
0.991969
0.999025
1.00609
1.01284
1.01895
1.02404
1.02782
1.03019
1.03134
1.03187
1.03238
1.03235
1.03208
1.03112
1.02872
1.02394
1.01885
1.01458
1.01103
1.00812
1.00571
1.00379
1.00257
1.00177
1.00118
1.00077
1.00048
1.0003
1.00018
1.0001
1.00005
1.00003
1.00001
1
0.99999
5.83985
5.11953
4.47128
3.89174
3.38621
2.95402
2.5897
2.28472
2.031
1.82006
1.64506
1.49985
1.37949
1.27983
1.19744
1.12992
1.07522
1.03153
0.997799
0.972519
0.95396
0.940616
0.931185
0.924537
0.919257
0.91388
0.907862
0.901069
0.893512
0.885464
0.877905
0.870729
0.864249
0.858718
0.854144
0.850616
0.848158
0.846379
0.846006
0.8461
0.846508
0.847509
0.849578
0.852858
0.856918
0.861697
0.86716
0.873248
0.879843
0.886866
0.894231
0.901815
0.909573
0.917344
0.924788
0.931861
0.938472
0.94459
0.950335
0.955846
0.961347
0.967289
0.973544
0.97938
0.985779
0.993055
1.00059
1.00802
1.01497
1.0211
1.02605
1.02959
1.03173
1.03284
1.03368
1.03382
1.03367
1.03313
1.03156
1.02816
1.02302
1.01825
1.01412
1.01066
1.0078
1.00541
1.0036
1.00251
1.00171
1.00114
1.00074
1.00046
1.00028
1.00017
1.00009
1.00005
1.00003
1.00001
1
0.999991
5.98186
5.27742
4.65916
4.10453
3.61319
3.1839
2.8138
2.49742
2.22886
2.00168
1.81007
1.64849
1.51241
1.39768
1.30108
1.21976
1.15172
1.0952
1.04843
1.01029
0.980094
0.956626
0.938958
0.925633
0.915819
0.90831
0.902323
0.897124
0.892217
0.887187
0.881816
0.876281
0.870741
0.865462
0.860634
0.856473
0.853158
0.850624
0.848927
0.848616
0.848704
0.849099
0.85012
0.852284
0.855972
0.860427
0.865613
0.871482
0.877859
0.884522
0.891646
0.899282
0.906881
0.914379
0.921651
0.928587
0.935122
0.941242
0.947021
0.952667
0.95844
0.964567
0.971203
0.978224
0.985027
0.992548
1.00076
1.00874
1.01604
1.02236
1.02741
1.03096
1.03322
1.03479
1.03534
1.03526
1.03496
1.03408
1.03191
1.02773
1.02249
1.01777
1.01371
1.01032
1.00749
1.00515
1.00349
1.00245
1.00167
1.00111
1.00072
1.00045
1.00028
1.00017
1.0001
1.00005
1.00003
1.00001
1.00001
0.999992
6.20142
5.46803
4.84061
4.30145
3.82103
3.39622
3.02388
2.70053
2.42153
2.18188
1.97682
1.80187
1.65231
1.52455
1.41525
1.32175
1.24173
1.17343
1.11517
1.06578
1.02415
0.989503
0.961075
0.93838
0.920426
0.906507
0.896138
0.888413
0.882596
0.877979
0.874048
0.870626
0.867317
0.864044
0.860843
0.85779
0.85503
0.852618
0.850952
0.850513
0.850558
0.850845
0.85168
0.85351
0.856957
0.861378
0.86676
0.87284
0.879256
0.886055
0.893621
0.901357
0.908917
0.916299
0.923337
0.929916
0.936034
0.941758
0.947208
0.952584
0.958149
0.964178
0.970788
0.977938
0.985348
0.992751
1.00106
1.0093
1.01675
1.02307
1.02809
1.03174
1.03433
1.03588
1.03617
1.03605
1.03567
1.03471
1.03235
1.02776
1.02212
1.01728
1.01324
1.0099
1.0071
1.00485
1.00336
1.00235
1.0016
1.00106
1.00068
1.00043
1.00026
1.00016
1.00009
1.00005
1.00003
1.00001
1
0.999992
6.30023
5.68144
5.03867
4.48796
4.0146
3.59491
3.22247
2.89431
2.60797
2.35932
2.14361
1.95701
1.79585
1.65673
1.53632
1.43217
1.34169
1.26335
1.19518
1.13615
1.085
1.04101
1.00339
0.971512
0.945001
0.9235
0.9063
0.892662
0.88257
0.875062
0.869622
0.865551
0.862397
0.85974
0.857633
0.855851
0.854066
0.852714
0.852125
0.852091
0.852214
0.85268
0.853901
0.856626
0.860432
0.865231
0.871236
0.877906
0.884886
0.892749
0.901345
0.909646
0.917725
0.925403
0.932526
0.938996
0.944834
0.950169
0.955185
0.960073
0.964991
0.970327
0.976321
0.98297
0.990057
0.997143
1.00488
1.01278
1.01984
1.02572
1.03031
1.03392
1.03644
1.03725
1.03733
1.03728
1.03698
1.03601
1.03336
1.02785
1.02176
1.01687
1.01286
1.00955
1.00677
1.00463
1.00327
1.00227
1.00154
1.00102
1.00066
1.00042
1.00026
1.00015
1.00009
1.00005
1.00003
1.00001
1.00001
0.999994
6.25227
5.89244
5.25558
4.68741
4.20205
3.78222
3.41203
3.0814
2.78951
2.53319
2.30901
2.11297
1.94184
1.79261
1.66239
1.54855
1.44881
1.36133
1.28443
1.21682
1.15728
1.10504
1.05931
1.01957
0.985161
0.955824
0.930997
0.910572
0.893716
0.880358
0.870281
0.86271
0.857119
0.853042
0.84991
0.847661
0.845739
0.844944
0.844948
0.845151
0.845772
0.847141
0.84994
0.853865
0.858472
0.864513
0.871976
0.879757
0.887805
0.897263
0.906932
0.916176
0.925089
0.933401
0.940917
0.947595
0.953458
0.958697
0.963568
0.968327
0.973356
0.978792
0.984775
0.991421
0.99829
1.00501
1.01211
1.0193
1.02584
1.03098
1.03504
1.03811
1.03932
1.03968
1.03972
1.03963
1.03914
1.03735
1.03304
1.02637
1.02086
1.01621
1.01232
1.00908
1.00637
1.0044
1.00312
1.00216
1.00146
1.00096
1.00062
1.00039
1.00024
1.00014
1.00008
1.00005
1.00002
1.00001
1.00001
0.999994
6.07405
5.89382
5.47898
4.90709
4.40274
3.97126
3.59471
3.26429
2.96864
2.70562
2.4733
2.26899
2.08917
1.93103
1.79192
1.66939
1.56125
1.46553
1.38068
1.30528
1.23839
1.17887
1.12623
1.07957
1.03856
1.00269
0.971443
0.944587
0.921544
0.902201
0.885701
0.872333
0.861851
0.853623
0.847385
0.842708
0.839481
0.83737
0.836289
0.836304
0.836582
0.837414
0.83923
0.84298
0.84791
0.854115
0.861899
0.869719
0.877786
0.887832
0.897862
0.907707
0.917408
0.926701
0.9354
0.943417
0.950767
0.957653
0.964173
0.970498
0.976888
0.983421
0.990291
0.997564
1.00522
1.01273
1.01996
1.02697
1.03312
1.03803
1.0417
1.04342
1.04378
1.0438
1.04371
1.0432
1.04141
1.03733
1.0311
1.02525
1.02005
1.01556
1.01177
1.0086
1.00601
1.00422
1.00299
1.00206
1.00139
1.00092
1.00059
1.00038
1.00023
1.00014
1.00008
1.00005
1.00003
1.00001
1.00001
0.999995
5.79716
5.77664
5.57684
5.15239
4.63213
4.17549
3.7846
3.44333
3.14281
2.87589
2.63738
2.42545
2.23795
2.07194
1.92471
1.79418
1.67808
1.5747
1.48251
1.4001
1.32643
1.26048
1.20156
1.14892
1.10208
1.06044
1.02367
0.991235
0.962808
0.93801
0.916354
0.897648
0.881041
0.867312
0.856178
0.847308
0.840338
0.835186
0.831836
0.829917
0.82992
0.830182
0.831055
0.832964
0.83645
0.84036
0.846013
0.852382
0.858251
0.866824
0.875783
0.884805
0.894156
0.903645
0.913103
0.922475
0.931773
0.941081
0.950379
0.959711
0.969105
0.978566
0.988152
0.9978
1.00717
1.01625
1.02455
1.03212
1.03856
1.04374
1.04702
1.04767
1.0477
1.04757
1.04705
1.04552
1.04191
1.03648
1.03013
1.0243
1.01917
1.01479
1.01112
1.00804
1.00562
1.00401
1.00282
1.00194
1.00131
1.00086
1.00056
1.00035
1.00022
1.00013
1.00008
1.00004
1.00002
1.00001
1.00001
0.999996
5.10756
5.55366
5.50139
5.29402
4.87378
4.40603
3.9928
3.63526
3.32236
3.04566
2.8011
2.58348
2.38882
2.21506
2.06034
1.92225
1.79886
1.68839
1.58934
1.50038
1.42043
1.34854
1.2839
1.22587
1.17378
1.12718
1.0855
1.04838
1.0153
0.985905
0.959867
0.936659
0.916251
0.898027
0.881513
0.867585
0.856225
0.846958
0.839865
0.834548
0.831194
0.828912
0.828939
0.829293
0.830323
0.832622
0.836616
0.841545
0.846045
0.851529
0.858694
0.865626
0.873241
0.881483
0.890252
0.899598
0.909609
0.920272
0.9315
0.943193
0.9552
0.967461
0.979766
0.991916
1.00384
1.01499
1.02495
1.0337
1.04106
1.04659
1.04978
1.05021
1.05016
1.04986
1.04892
1.04662
1.04198
1.03588
1.02925
1.02334
1.01827
1.014
1.01046
1.0075
1.0053
1.0038
1.00266
1.00183
1.00123
1.00081
1.00053
1.00033
1.00021
1.00013
1.00007
1.00004
1.00002
1.00001
1.00001
0.999997
3.43539
5.02714
5.31757
5.2485
5.04378
4.63351
4.21402
3.83997
3.51211
3.22406
2.96877
2.742
2.54079
2.36128
2.19973
2.05452
1.9241
1.80679
1.70115
1.60591
1.52
1.44247
1.37252
1.30943
1.25256
1.20138
1.15532
1.11395
1.07679
1.04339
1.01345
0.986467
0.962351
0.940571
0.921386
0.903969
0.888296
0.874827
0.863731
0.854785
0.847962
0.8426
0.839278
0.836877
0.836446
0.836652
0.837365
0.838941
0.842105
0.845106
0.850497
0.856178
0.86264
0.870015
0.878137
0.887053
0.896928
0.907824
0.919584
0.932026
0.944944
0.958309
0.972195
0.986015
0.999384
1.01191
1.02312
1.0328
1.04085
1.04687
1.05033
1.05082
1.05076
1.05044
1.04947
1.04705
1.04191
1.03506
1.02815
1.02223
1.01726
1.01315
1.00972
1.00694
1.00497
1.00354
1.00247
1.00169
1.00114
1.00075
1.00049
1.00031
1.00019
1.00012
1.00007
1.00004
1.00002
1.00001
1.00001
0.999998
2.15531
3.74758
4.89999
5.09654
5.01915
4.81943
4.43224
4.05548
3.71426
3.4117
3.14448
2.90792
2.69739
2.50939
2.3414
2.19046
2.05385
1.93016
1.81815
1.71685
1.62519
1.54224
1.46718
1.39926
1.33785
1.28233
1.23218
1.18687
1.14594
1.10894
1.07549
1.04521
1.01785
0.993168
0.970978
0.951078
0.933457
0.917718
0.903804
0.890941
0.880905
0.872642
0.866022
0.861182
0.857618
0.855391
0.854187
0.854295
0.854691
0.855554
0.857279
0.860845
0.865236
0.870872
0.877523
0.88529
0.894374
0.904846
0.916313
0.928527
0.94158
0.955632
0.970028
0.9844
0.99834
1.01141
1.02309
1.03311
1.04137
1.04741
1.05056
1.05115
1.05113
1.05085
1.04995
1.04751
1.04207
1.03418
1.02697
1.02108
1.01625
1.01228
1.009
1.00643
1.00464
1.00328
1.00228
1.00156
1.00105
1.00069
1.00045
1.00029
1.00018
1.00011
1.00007
1.00004
1.00002
1.00001
1.00001
0.999999
1.50677
2.24838
3.863
4.7472
4.88741
4.80832
4.61839
4.26991
3.92858
3.61344
3.33155
3.08212
2.86119
2.66467
2.48864
2.33002
2.18678
2.05723
1.9398
1.83298
1.73591
1.64776
1.56777
1.49521
1.42941
1.36973
1.31563
1.26655
1.22203
1.18162
1.14489
1.11155
1.08126
1.05387
1.02909
1.00687
0.986977
0.969325
0.953543
0.940273
0.927867
0.917152
0.907545
0.899863
0.893808
0.88893
0.885375
0.883101
0.881493
0.881502
0.881735
0.882563
0.884477
0.888338
0.893445
0.899788
0.907617
0.916997
0.927368
0.938723
0.951121
0.964509
0.978288
0.992037
1.00537
1.01778
1.02878
1.03812
1.04558
1.05057
1.05269
1.05323
1.05321
1.0529
1.05185
1.04874
1.04185
1.0327
1.02556
1.01984
1.0152
1.0114
1.00831
1.00595
1.00427
1.00301
1.00208
1.00142
1.00095
1.00063
1.00041
1.00026
1.00016
1.0001
1.00006
1.00004
1.00002
1.00001
1.00001
0.999999
1.20881
1.53389
2.27017
3.84871
4.57398
4.68694
4.61319
4.44115
4.13732
3.82775
3.53401
3.26951
3.03511
2.82756
2.64266
2.47655
2.32631
2.18984
2.06578
1.95323
1.85107
1.75825
1.67379
1.5969
1.52691
1.46322
1.40527
1.35252
1.30449
1.26074
1.22088
1.18457
1.15152
1.12153
1.09435
1.06988
1.04789
1.02823
1.01077
0.995421
0.981914
0.970004
0.959963
0.950772
0.942828
0.936045
0.929952
0.925375
0.922194
0.919575
0.918838
0.918913
0.919433
0.920839
0.923863
0.928726
0.935119
0.943137
0.95228
0.962332
0.973544
0.985552
0.99801
1.01024
1.02204
1.03281
1.04213
1.04981
1.05517
1.05805
1.05922
1.05941
1.05929
1.05869
1.05614
1.04933
1.03873
1.03064
1.02405
1.01861
1.01417
1.01056
1.00767
1.00548
1.00391
1.00274
1.00189
1.00129
1.00086
1.00057
1.00037
1.00023
1.00015
1.00009
1.00006
1.00003
1.00002
1.00001
1.00001
1
1.08372
1.21239
1.52878
2.23637
3.73365
4.38234
4.49472
4.43281
4.28579
4.02932
3.74775
3.47239
3.22299
3.00182
2.80578
2.63058
2.47255
2.32916
2.19877
2.08017
1.97225
1.87406
1.78474
1.70344
1.62938
1.56183
1.50019
1.44392
1.39253
1.34556
1.30266
1.26346
1.22771
1.19516
1.16563
1.13892
1.11489
1.0934
1.07426
1.05722
1.04204
1.02871
1.01703
1.00684
0.997897
0.990153
0.983752
0.978018
0.973447
0.969841
0.967001
0.965937
0.965867
0.966245
0.967377
0.969839
0.97482
0.981448
0.989279
0.997942
1.00757
1.01782
1.02804
1.03804
1.04732
1.05561
1.06246
1.06712
1.07004
1.07123
1.0714
1.0713
1.07041
1.06609
1.05492
1.04492
1.03648
1.0291
1.02275
1.01747
1.01319
1.00979
1.00709
1.00505
1.00358
1.00251
1.00172
1.00117
1.00078
1.00051
1.00033
1.00021
1.00013
1.00008
1.00005
1.00003
1.00002
1.00001
1.00001
1
1.0324
1.07797
1.20618
1.49723
2.1556
3.53827
4.17387
4.30917
4.26503
4.14998
3.94188
3.68381
3.42566
3.19067
2.98157
2.79528
2.62788
2.47635
2.33876
2.21371
2.10001
1.99657
1.90238
1.81649
1.73807
1.6664
1.60086
1.54089
1.48599
1.43572
1.38969
1.34758
1.30915
1.27416
1.24238
1.21361
1.18766
1.16429
1.14327
1.12443
1.10773
1.09293
1.07979
1.06814
1.05789
1.04892
1.04115
1.0345
1.02894
1.02464
1.02123
1.01902
1.01875
1.01884
1.01936
1.02072
1.02363
1.02852
1.03461
1.04155
1.04896
1.05678
1.06461
1.07205
1.07864
1.08378
1.08756
1.08984
1.09049
1.09053
1.08997
1.08543
1.07386
1.06318
1.0532
1.04385
1.03535
1.02792
1.02163
1.01646
1.01233
1.0091
1.00658
1.00468
1.0033
1.00229
1.00157
1.00106
1.00071
1.00047
1.0003
1.00019
1.00012
1.00008
1.00005
1.00003
1.00002
1.00001
1.00001
1
1.01058
1.02913
1.07109
1.1858
1.44654
2.03286
3.26938
3.9484
4.13048
4.10743
4.02455
3.86516
3.62844
3.38994
3.17084
2.97351
2.7956
2.63452
2.48834
2.3557
2.23536
2.12605
2.02656
1.9358
1.85286
1.77694
1.70738
1.6436
1.58511
1.5315
1.48241
1.43749
1.39639
1.35888
1.32478
1.29384
1.26575
1.24035
1.21755
1.19711
1.17872
1.16222
1.14745
1.13428
1.12259
1.11227
1.10326
1.0954
1.08888
1.08345
1.07923
1.07614
1.07447
1.07425
1.07442
1.07501
1.07647
1.07959
1.08417
1.08942
1.09493
1.10052
1.10575
1.11022
1.11389
1.11613
1.11724
1.11741
1.11637
1.11032
1.09865
1.0874
1.07579
1.06427
1.05328
1.04322
1.03435
1.02681
1.02055
1.01551
1.01152
1.00843
1.00608
1.00432
1.00302
1.00209
1.00143
1.00097
1.00064
1.00042
1.00027
1.00018
1.00011
1.00007
1.00004
1.00003
1.00002
1.00001
1.00001
1
1.00358
1.00941
1.02397
1.06195
1.15627
1.37999
1.87595
2.92993
3.70964
3.95764
3.95465
3.89669
3.77544
3.57007
3.36139
3.16267
2.97762
2.80706
2.65122
2.50956
2.38114
2.26471
2.15899
2.06271
1.97481
1.89436
1.82061
1.75294
1.69084
1.63381
1.58146
1.53347
1.48954
1.44939
1.41271
1.37938
1.34924
1.32196
1.29721
1.27479
1.25453
1.23627
1.21983
1.20509
1.19192
1.18021
1.1699
1.16088
1.15316
1.14676
1.14144
1.13734
1.13483
1.13299
1.13278
1.13295
1.13353
1.13489
1.13772
1.14117
1.14433
1.14752
1.14986
1.15159
1.15235
1.15214
1.14945
1.14145
1.13124
1.11937
1.10603
1.09202
1.07809
1.06486
1.05277
1.0421
1.03299
1.02541
1.01927
1.0144
1.0106
1.0077
1.00552
1.0039
1.00273
1.00188
1.00128
1.00086
1.00057
1.00038
1.00024
1.00016
1.0001
1.00006
1.00004
1.00002
1.00001
1.00001
1.00001
1
1.00117
1.00273
1.00779
1.01832
1.05122
1.12247
1.30566
1.69849
2.53805
3.47431
3.76884
3.81377
3.77104
3.66976
3.51389
3.34119
3.16388
2.9912
2.82832
2.67812
2.54122
2.41689
2.30393
2.20107
2.10721
2.02131
1.94256
1.87029
1.80392
1.74297
1.68701
1.63562
1.58852
1.54559
1.50652
1.47091
1.43842
1.40883
1.38191
1.35746
1.3353
1.31524
1.29711
1.28077
1.26609
1.25297
1.24132
1.23106
1.22216
1.21459
1.2082
1.20302
1.19931
1.19655
1.19431
1.19363
1.19367
1.19393
1.19458
1.19566
1.19633
1.19662
1.19621
1.1941
1.18904
1.18176
1.17174
1.159
1.14405
1.12767
1.11069
1.09394
1.07809
1.06359
1.05076
1.03981
1.03073
1.02337
1.01752
1.01296
1.00947
1.00683
1.00486
1.00342
1.00238
1.00164
1.00111
1.00075
1.0005
1.00033
1.00021
1.00014
1.00009
1.00005
1.00003
1.00002
1.00001
1.00001
1
1
1.0003
1.00086
1.00204
1.00576
1.01367
1.03802
1.09103
1.2302
1.52517
2.15796
3.20931
3.54751
3.66788
3.64069
3.56327
3.45255
3.31641
3.1636
3.00737
2.85587
2.71344
2.58201
2.46152
2.35128
2.25037
2.15811
2.07355
1.996
1.92484
1.85956
1.79972
1.74495
1.69484
1.64891
1.60689
1.5685
1.53345
1.50148
1.47235
1.44583
1.42172
1.3998
1.37991
1.36191
1.34566
1.33104
1.31796
1.30634
1.29611
1.28723
1.27961
1.27321
1.26812
1.26397
1.26027
1.2577
1.25621
1.25467
1.2531
1.25119
1.24851
1.24458
1.23885
1.23078
1.21992
1.20613
1.18962
1.17101
1.1511
1.13079
1.11087
1.09196
1.07465
1.05945
1.04657
1.03594
1.02735
1.02054
1.01523
1.01116
1.00808
1.00579
1.0041
1.00287
1.00199
1.00137
1.00093
1.00062
1.00041
1.00027
1.00018
1.00011
1.00007
1.00005
1.00003
1.00002
1.00001
1.00001
1
1
1.00008
1.00021
1.00057
1.00143
1.00389
1.00964
1.02582
1.0641
1.1593
1.36753
1.81689
2.68522
3.28647
3.48716
3.49491
3.45889
3.37955
3.27662
3.15316
3.01908
2.88454
2.75375
2.62981
2.51411
2.407
2.30824
2.2175
2.13417
2.05772
1.98764
1.9233
1.86422
1.81007
1.76053
1.71525
1.67389
1.63611
1.6016
1.57007
1.54129
1.51503
1.49108
1.46925
1.4494
1.43137
1.41505
1.40032
1.38711
1.37534
1.36494
1.35581
1.34788
1.34104
1.33497
1.32931
1.3245
1.32054
1.31607
1.31089
1.30481
1.29724
1.28759
1.27534
1.26014
1.242
1.22131
1.1987
1.17501
1.15099
1.12727
1.10477
1.08448
1.06698
1.05231
1.04029
1.03061
1.02298
1.01705
1.01251
1.00909
1.00653
1.00465
1.00328
1.00229
1.00158
1.00108
1.00073
1.00049
1.00033
1.00021
1.00014
1.00009
1.00006
1.00004
1.00002
1.00001
1.00001
1.00001
1
1
1.00002
1.00005
1.00014
1.00035
1.00096
1.00233
1.00645
1.01556
1.04207
1.10065
1.2394
1.53384
2.13485
2.96503
3.23891
3.3648
3.34542
3.29364
3.21603
3.12408
3.01771
2.90552
2.79188
2.67985
2.57207
2.47004
2.37456
2.28587
2.20389
2.1284
2.05902
1.9953
1.93687
1.88337
1.83445
1.78969
1.74874
1.71123
1.67688
1.64542
1.61661
1.59021
1.56605
1.54397
1.52384
1.50551
1.48883
1.47372
1.46006
1.44772
1.43658
1.42648
1.41717
1.40832
1.3998
1.39197
1.38403
1.37479
1.36427
1.352
1.33744
1.32018
1.30007
1.27729
1.25224
1.22552
1.1975
1.16865
1.14028
1.11414
1.09132
1.07197
1.05593
1.04289
1.0325
1.02435
1.01806
1.01326
1.00965
1.00695
1.00497
1.00352
1.00247
1.00172
1.00118
1.00081
1.00055
1.00037
1.00024
1.00016
1.00011
1.00007
1.00004
1.00003
1.00002
1.00001
1.00001
1
1
1
1
1.00001
1.00003
1.00008
1.0002
1.00057
1.00134
1.00382
1.00889
1.0249
1.05773
1.14557
1.31573
1.67983
2.36168
2.97524
3.1358
3.21645
3.19501
3.14245
3.07061
2.99291
2.90553
2.81268
2.71738
2.62251
2.52985
2.44116
2.3574
2.27899
2.20601
2.13834
2.07579
2.01819
1.96525
1.91664
1.87198
1.83092
1.79317
1.75847
1.72658
1.69724
1.67036
1.64571
1.62306
1.60222
1.58304
1.56541