/*--------------------------------*- C++ -*----------------------------------*\
  =========                 |
  \\      /  F ield         | OpenFOAM: The Open Source CFD Toolbox
   \\    /   O peration     | Website:  https://openfoam.org
    \\  /    A nd           | Version:  10
     \\/     M anipulation  |
\*---------------------------------------------------------------------------*/
FoamFile
{
    format      ascii;
    class       volScalarField;
    location    "0.5";
    object      rho;
}
// * * * * * * * * * * * * * * * * * * * * * * * * * * * * * * * * * * * * * //

dimensions      [1 -3 0 0 0 0 0];

internalField   nonuniform List<scalar> 
5250
(
1.40001
1.40001
1.40001
1.40001
1.40003
1.40007
1.40015
1.40039
1.40095
1.40247
1.40618
1.41566
1.43923
1.49559
1.62532
1.90297
2.7094
5.30721
6.00446
5.75275
5.71454
5.74014
5.62126
5.14239
5.23009
1.40001
1.40001
1.40001
1.40001
1.40003
1.40007
1.40014
1.40039
1.40091
1.40248
1.40592
1.41569
1.43801
1.49469
1.62128
1.89609
2.68782
5.2488
6.01501
5.75318
5.71364
5.74005
5.62814
5.14754
5.22966
1.40001
1.40001
1.40001
1.40001
1.40002
1.40006
1.40014
1.40038
1.40087
1.40239
1.40568
1.41513
1.43656
1.49145
1.61415
1.88088
2.64313
5.11352
6.03724
5.75254
5.70524
5.73041
5.63167
5.14803
5.21893
1.40001
1.40001
1.40001
1.40001
1.40002
1.40006
1.40013
1.40036
1.40082
1.40226
1.40534
1.41429
1.43446
1.48655
1.60349
1.85791
2.57513
4.89757
6.07596
5.75478
5.68922
5.71054
5.63215
5.1412
5.19737
1.40001
1.40001
1.40001
1.40001
1.40002
1.40006
1.40012
1.40034
1.40075
1.40209
1.40491
1.41321
1.43177
1.48016
1.58942
1.82764
2.48562
4.59841
6.12929
5.76164
5.66601
5.68168
5.62613
5.13764
5.16974
1.40001
1.40001
1.40001
1.40001
1.40002
1.40005
1.40011
1.40031
1.40068
1.40192
1.40441
1.41199
1.42856
1.47258
1.5721
1.7908
2.37073
4.22144
6.18561
5.77152
5.63748
5.64164
5.60566
5.12184
5.12452
1.40001
1.40001
1.40001
1.40001
1.40002
1.40005
1.4001
1.40028
1.40061
1.40174
1.40388
1.41078
1.42505
1.46447
1.55214
1.74933
2.22742
3.77847
6.22348
5.78937
5.60227
5.58729
5.56763
5.10987
5.06659
1.40001
1.40001
1.40001
1.40001
1.40002
1.40005
1.40009
1.40026
1.40054
1.40158
1.40345
1.40968
1.42208
1.45718
1.53313
1.70691
2.06471
3.27229
6.20405
5.79094
5.54401
5.51794
5.50224
5.06756
4.9658
1.40001
1.40001
1.40001
1.40001
1.40002
1.40004
1.40008
1.40023
1.40048
1.40141
1.40303
1.4087
1.41937
1.45129
1.51777
1.67536
1.95177
2.96245
6.00054
5.73111
5.46263
5.42707
5.39818
5.00734
4.83381
1.40001
1.40001
1.40001
1.40001
1.40002
1.40003
1.40007
1.4002
1.40041
1.40122
1.40261
1.40755
1.41673
1.44485
1.50287
1.64324
1.90983
2.73255
5.55898
5.57694
5.41773
5.30495
5.24503
4.8975
4.5537
1.40001
1.40001
1.40001
1.40001
1.40001
1.40003
1.40006
1.40016
1.40034
1.40102
1.40218
1.40634
1.41405
1.43814
1.48766
1.60971
1.86214
2.54045
4.99375
5.48504
5.34878
5.17194
5.06172
4.64662
3.82782
1.40001
1.40001
1.40001
1.40001
1.40001
1.40002
1.40005
1.40012
1.40031
1.40073
1.40198
1.40463
1.41244
1.42945
1.47452
1.57349
1.79121
2.37578
4.29811
5.41777
5.27078
5.04037
4.88095
4.45701
3.61531
1.40001
1.40001
1.40001
1.40001
1.40001
1.40002
1.40004
1.4001
1.40022
1.40063
1.40135
1.404
1.40868
1.42442
1.45584
1.5403
1.71292
2.18621
3.45362
5.32598
5.19139
4.91897
4.74902
4.34815
3.63001
1.40001
1.40001
1.40001
1.40001
1.40001
1.40001
1.40003
1.40007
1.4002
1.40042
1.40122
1.40265
1.40758
1.41709
1.4456
1.50543
1.64863
1.95177
2.75106
5.13794
5.09673
4.9105
4.64961
4.31736
3.74165
1.40001
1.40001
1.40001
1.40001
1.40001
1.40001
1.40002
1.40006
1.40014
1.40033
1.40088
1.40205
1.4056
1.41311
1.43444
1.48142
1.59477
1.83309
2.4481
4.54501
4.96566
4.85746
4.59056
4.26307
3.8017
1.40001
1.40001
1.40001
1.40001
1.40001
1.40001
1.40002
1.40004
1.40009
1.40026
1.40056
1.40161
1.40364
1.41011
1.42367
1.46138
1.54438
1.73073
2.22536
3.60425
4.85395
4.78352
4.5623
4.22346
3.83217
1.40001
1.40001
1.40001
1.40001
1.40001
1.40001
1.40001
1.40003
1.40007
1.40018
1.40039
1.40114
1.40246
1.40718
1.41596
1.44333
1.49956
1.63673
1.93182
2.6091
4.67077
4.71711
4.58988
4.26245
3.87387
1.40001
1.40001
1.40001
1.40001
1.40001
1.40001
1.40001
1.40002
1.40005
1.40011
1.40031
1.40067
1.40192
1.40432
1.41208
1.42794
1.4723
1.56779
1.78184
2.29024
4.01855
4.61894
4.53611
4.28383
3.89943
1.40001
1.40001
1.40001
1.40001
1.40001
1.40001
1.40001
1.40002
1.40003
1.40008
1.40018
1.40048
1.40112
1.40301
1.40722
1.4188
1.44522
1.51178
1.65592
1.98326
2.82676
4.46541
4.45523
4.33257
3.99233
1.40001
1.40001
1.40001
1.40001
1.40001
1.40001
1.40001
1.40001
1.40002
1.40005
1.40013
1.40027
1.40079
1.40175
1.40496
1.41128
1.43066
1.47079
1.57501
1.78273
2.28851
3.93762
4.38645
4.32052
4.10352
1.40001
1.40001
1.40001
1.40001
1.40001
1.40001
1.40001
1.40001
1.40002
1.40003
1.40007
1.40018
1.40044
1.40116
1.40273
1.40737
1.41725
1.44483
1.50566
1.64752
1.94347
2.72536
4.23073
4.27606
4.17053
1.40001
1.40001
1.40001
1.40001
1.40001
1.40001
1.40001
1.40001
1.40001
1.40002
1.40004
1.40011
1.40026
1.4007
1.40159
1.40446
1.41011
1.42769
1.46388
1.55918
1.74707
2.19692
3.63154
4.17978
4.15074
1.40001
1.40001
1.40001
1.40001
1.40001
1.40001
1.40001
1.40001
1.40001
1.40001
1.40003
1.40007
1.40014
1.4004
1.40091
1.40248
1.40585
1.41546
1.4367
1.49182
1.6094
1.84454
2.40981
3.96128
4.10628
1.40001
1.40001
1.40001
1.40001
1.40001
1.40001
1.40001
1.40001
1.40001
1.40001
1.40002
1.40004
1.40008
1.40021
1.40049
1.40136
1.40308
1.40867
1.41973
1.4527
1.52241
1.68167
2.02545
3.05008
3.9711
1.40001
1.40001
1.40001
1.40001
1.40001
1.40001
1.40001
1.40001
1.40001
1.40001
1.40001
1.40002
1.40005
1.40011
1.40027
1.40068
1.40176
1.40427
1.41128
1.42725
1.46879
1.56303
1.7501
2.1759
3.49709
1.40001
1.40001
1.40001
1.40001
1.40001
1.40001
1.40001
1.40001
1.40001
1.40001
1.40001
1.40001
1.40003
1.40006
1.40015
1.40033
1.40094
1.40205
1.40598
1.41317
1.43637
1.48287
1.5989
1.78887
2.32045
1.40001
1.40001
1.40001
1.40001
1.40001
1.40001
1.40001
1.40001
1.40001
1.40001
1.40001
1.40001
1.40002
1.40003
1.40007
1.40016
1.40043
1.40106
1.40267
1.40682
1.41679
1.44224
1.50209
1.62995
1.88662
1.40001
1.40001
1.40001
1.40001
1.40001
1.40001
1.40001
1.40001
1.40001
1.40001
1.40001
1.40001
1.40001
1.40002
1.40003
1.40008
1.40019
1.4005
1.40122
1.40317
1.40788
1.42007
1.44936
1.52165
1.66289
1.40001
1.40001
1.40001
1.40001
1.40001
1.40001
1.40001
1.40001
1.40001
1.40001
1.40001
1.40001
1.40001
1.40001
1.40002
1.40004
1.40009
1.40022
1.40056
1.40134
1.40367
1.40856
1.42344
1.45467
1.53833
1.40001
1.40001
1.40001
1.40001
1.40001
1.40001
1.40001
1.40001
1.40001
1.40001
1.40001
1.40001
1.40001
1.40001
1.40001
1.40002
1.40004
1.40009
1.40025
1.40054
1.4016
1.4035
1.41027
1.42306
1.46275
1.40001
1.40001
1.40001
1.40001
1.40001
1.40001
1.40001
1.40001
1.40001
1.40001
1.40001
1.40001
1.40001
1.40001
1.40001
1.40001
1.40002
1.40004
1.40009
1.40025
1.40056
1.40161
1.40361
1.41044
1.42374
1.40001
1.40001
1.40001
1.40001
1.40001
1.40001
1.40001
1.40001
1.40001
1.40001
1.40001
1.40001
1.40001
1.40001
1.40001
1.40001
1.40001
1.40002
1.40004
1.4001
1.40021
1.40061
1.40136
1.40392
1.40912
1.40001
1.40001
1.40001
1.40001
1.40001
1.40001
1.40001
1.40001
1.40001
1.40001
1.40001
1.40001
1.40001
1.40001
1.40001
1.40001
1.40001
1.40001
1.40002
1.40003
1.40009
1.40019
1.40056
1.40122
1.40366
1.40001
1.40001
1.40001
1.40001
1.40001
1.40001
1.40001
1.40001
1.40001
1.40001
1.40001
1.40001
1.40001
1.40001
1.40001
1.40001
1.40001
1.40001
1.40001
1.40002
1.40003
1.40007
1.40017
1.40046
1.40108
1.40001
1.40001
1.40001
1.40001
1.40001
1.40001
1.40001
1.40001
1.40001
1.40001
1.40001
1.40001
1.40001
1.40001
1.40001
1.40001
1.40001
1.40001
1.40001
1.40001
1.40001
1.40003
1.40005
1.40014
1.40034
1.40001
1.40001
1.40001
1.40001
1.40001
1.40001
1.40001
1.40001
1.40001
1.40001
1.40001
1.40001
1.40001
1.40001
1.40001
1.40001
1.40001
1.40001
1.40001
1.40001
1.40001
1.40001
1.40002
1.40004
1.40011
1.40001
1.40001
1.40001
1.40001
1.40001
1.40001
1.40001
1.40001
1.40001
1.40001
1.40001
1.40001
1.40001
1.40001
1.40001
1.40001
1.40001
1.40001
1.40001
1.40001
1.40001
1.40001
1.40001
1.40002
1.40003
1.40001
1.40001
1.40001
1.40001
1.40001
1.40001
1.40001
1.40001
1.40001
1.40001
1.40001
1.40001
1.40001
1.40001
1.40001
1.40001
1.40001
1.40001
1.40001
1.40001
1.40001
1.40001
1.40001
1.40001
1.40001
1.40001
1.40001
1.40001
1.40001
1.40001
1.40001
1.40001
1.40001
1.40001
1.40001
1.40001
1.40001
1.40001
1.40001
1.40001
1.40001
1.40001
1.40001
1.40001
1.40001
1.40001
1.40001
1.40001
1.40001
1.40001
1.40001
1.40001
1.40001
1.40001
1.40001
1.40001
1.40001
1.40001
1.40001
1.40001
1.40001
1.40001
1.40001
1.40001
1.40001
1.40001
1.40001
1.40001
1.40001
1.40001
1.40001
1.40001
1.40001
1.40001
1.40001
1.40001
1.40001
1.40001
1.40001
1.40001
1.40001
1.40001
1.40001
1.40001
1.40001
1.40001
1.40001
1.40001
1.40001
1.40001
1.40001
1.40001
1.40001
1.40001
1.40001
1.40001
1.40001
1.40001
1.40001
1.40001
1.40001
1.40001
1.40001
1.40001
1.40001
1.40001
1.40001
1.40001
1.40001
1.40001
1.40001
1.40001
1.40001
1.40001
1.40001
1.40001
1.40001
1.40001
1.40001
1.40001
1.40001
1.40001
1.40001
1.40001
1.40001
1.40001
1.40001
1.40001
1.40001
1.40001
1.40001
1.40001
1.40001
1.40001
1.40001
1.40001
1.40001
1.40001
1.40001
1.40001
1.40001
1.40001
1.40001
1.40001
1.40001
1.40001
1.40001
1.40001
1.40001
1.40001
1.40001
1.40001
1.40001
1.40001
1.40001
1.40001
1.40001
1.40001
1.40001
1.40001
1.40001
1.40001
1.40001
1.40001
1.40001
1.40001
1.40001
1.40001
1.40001
1.40001
1.40001
1.40001
1.40001
1.40001
1.40001
1.40001
1.40001
1.40001
1.40001
1.40001
1.40001
1.40001
1.40001
1.40001
1.40001
1.40001
1.40001
1.40001
1.40001
1.40001
1.40001
1.40001
1.40001
1.40001
1.40001
1.40001
1.40001
1.40001
1.40001
1.40001
1.40001
1.40001
1.40001
1.40001
1.40001
1.40001
1.40001
1.40001
1.40001
1.40001
1.40001
1.40001
1.40001
1.40001
1.40001
1.40001
1.40001
1.40001
1.40001
1.40001
1.40001
1.40001
1.40001
1.40001
1.40001
1.40001
1.40001
1.40001
1.40001
1.40001
1.40001
1.40001
1.40001
1.40001
1.40001
1.40001
1.40001
1.40001
1.40001
1.40001
1.40001
1.40001
1.40001
1.40001
1.40001
1.40001
1.40001
1.40001
1.40001
1.40001
1.40001
1.40001
1.40001
1.40001
1.40001
1.40001
1.40001
1.40001
1.40001
1.40001
1.40001
1.40001
1.40001
1.40001
1.40001
1.40001
1.40001
1.40001
1.40001
1.40001
1.40001
1.40001
1.40001
1.40001
1.40001
1.40001
1.40001
1.40001
1.40001
1.40001
1.40001
1.40001
1.40001
1.40001
1.40001
1.40001
1.40001
1.40001
1.40001
1.40001
1.40001
1.40001
1.40001
1.40001
1.40001
1.40001
1.40001
1.40001
1.40001
1.40001
1.40001
1.40001
1.40001
1.40001
1.40001
1.40001
1.40001
1.40001
1.40001
1.40001
1.40001
1.40001
1.40001
1.40001
1.40001
1.40001
1.40001
1.40001
1.40001
1.40001
1.40001
1.40001
1.40001
1.40001
1.40001
1.6152
0.868094
0.594589
0.502464
0.498319
0.512619
0.557875
0.603805
0.61983
0.6204
0.616865
0.606624
0.593872
0.584751
0.580657
0.578462
0.576928
0.575025
0.572415
0.569156
0.565356
0.561108
0.556705
0.552529
0.548859
0.545895
0.543804
0.542576
0.54193
0.541469
0.540838
0.539657
0.537868
0.535941
0.533943
0.531575
0.529182
0.527391
0.526177
0.525711
0.526073
0.527436
0.530803
0.539534
0.556315
0.578473
0.605958
0.638782
0.676686
0.719059
0.76512
0.813961
0.864535
0.915694
0.966225
1.01497
1.06088
1.10318
1.14134
1.17518
1.20483
1.23057
1.25282
1.27209
1.28894
1.30398
1.31778
1.33075
1.34309
1.35481
1.36575
1.37574
1.38465
1.39239
1.39895
1.40447
1.40914
1.41297
1.41594
1.41792
1.41816
1.41655
1.41506
1.41331
1.41131
1.40924
1.40729
1.40557
1.40415
1.40301
1.40212
1.40145
1.40097
1.40063
1.4004
1.40025
1.40015
1.40009
1.40005
1.40002
2.05249
1.30257
0.971987
0.825734
0.758819
0.712825
0.68226
0.66885
0.669244
0.670908
0.675523
0.675288
0.673908
0.670081
0.660961
0.650536
0.642131
0.636144
0.631784
0.6281
0.624342
0.620209
0.615752
0.61114
0.60649
0.602007
0.597991
0.594744
0.592479
0.591267
0.590962
0.591237
0.591614
0.591562
0.590868
0.589839
0.588971
0.588317
0.58721
0.585766
0.585268
0.586089
0.587733
0.590978
0.598643
0.612431
0.631954
0.656598
0.686027
0.719938
0.75793
0.799364
0.843425
0.889167
0.935623
0.981872
1.02708
1.07048
1.11142
1.14937
1.184
1.2152
1.24314
1.26812
1.29047
1.31049
1.32842
1.34445
1.35882
1.37169
1.38315
1.39315
1.40157
1.40837
1.41364
1.41762
1.42069
1.42302
1.42462
1.4253
1.42407
1.42177
1.41937
1.4167
1.41394
1.41128
1.40888
1.4068
1.40506
1.40365
1.40257
1.40178
1.40121
1.40081
1.40053
1.40034
1.40022
1.40013
1.40008
1.40004
2.57494
1.84029
1.38958
1.11091
0.932463
0.81714
0.744783
0.698916
0.687872
0.688983
0.692584
0.700364
0.704303
0.704435
0.703076
0.698585
0.688935
0.679435
0.671325
0.665377
0.660288
0.655504
0.650586
0.645579
0.640543
0.635792
0.631439
0.627622
0.624547
0.622215
0.620592
0.619887
0.620152
0.620814
0.621369
0.6219
0.622696
0.623779
0.624494
0.624872
0.625445
0.626705
0.628612
0.632249
0.639588
0.651796
0.669117
0.691497
0.71875
0.750606
0.786673
0.826388
0.869009
0.913658
0.959389
1.00525
1.05037
1.09396
1.13529
1.17373
1.20876
1.24015
1.26787
1.29219
1.31348
1.33217
1.34863
1.36309
1.37578
1.38684
1.39644
1.40463
1.41137
1.4166
1.42037
1.42298
1.42484
1.42618
1.42699
1.42697
1.42535
1.4227
1.41997
1.41706
1.41413
1.41135
1.40888
1.40675
1.40499
1.40358
1.40252
1.40173
1.40117
1.40078
1.40051
1.40032
1.4002
1.40012
1.40008
1.40004
2.94078
2.25015
1.74763
1.403
1.17013
1.01111
0.903665
0.834236
0.786111
0.755575
0.740639
0.734211
0.733329
0.733205
0.731687
0.730022
0.726817
0.720453
0.711118
0.701788
0.693158
0.685703
0.678947
0.673222
0.668032
0.663427
0.659056
0.655051
0.651478
0.648543
0.646294
0.645003
0.644962
0.645921
0.647264
0.648677
0.650334
0.652297
0.653701
0.654411
0.655046
0.656326
0.658399
0.662171
0.669591
0.682826
0.702138
0.727244
0.757686
0.792891
0.832075
0.874296
0.918502
0.963621
1.00859
1.05242
1.09429
1.13356
1.16988
1.20309
1.23317
1.26019
1.28428
1.30566
1.32462
1.34153
1.35672
1.37039
1.38266
1.39351
1.40286
1.4107
1.41704
1.42195
1.42551
1.428
1.42971
1.43075
1.431
1.43007
1.42825
1.42512
1.42187
1.41854
1.41528
1.41225
1.40955
1.40724
1.40533
1.40383
1.40271
1.40188
1.40128
1.40086
1.40057
1.40037
1.40024
1.40015
1.40009
1.40005
3.16679
2.54789
2.04772
1.67307
1.40273
1.20677
1.06232
0.957183
0.881457
0.827694
0.790963
0.765606
0.750922
0.743538
0.739618
0.7366
0.73462
0.732702
0.729245
0.72297
0.716023
0.708081
0.70074
0.693621
0.687314
0.681902
0.677354
0.673221
0.669767
0.667063
0.665031
0.663849
0.663793
0.664723
0.66617
0.667926
0.670169
0.672887
0.674958
0.676261
0.677573
0.679827
0.683885
0.69262
0.706477
0.725097
0.748415
0.776263
0.80827
0.843849
0.882268
0.922676
0.964232
1.00608
1.0474
1.08745
1.12557
1.16123
1.19414
1.2242
1.25149
1.27615
1.29836
1.31829
1.33612
1.35206
1.36638
1.37926
1.39082
1.40107
1.40991
1.41721
1.42293
1.42708
1.42986
1.43159
1.43264
1.43302
1.43258
1.43144
1.42939
1.42573
1.42217
1.41865
1.41527
1.41215
1.40941
1.40709
1.40519
1.40372
1.40261
1.4018
1.40122
1.40081
1.40053
1.40034
1.40022
1.40013
1.40008
1.40004
3.32513
2.79676
2.32508
1.94317
1.64651
1.41985
1.25015
1.12071
1.02127
0.94481
0.884971
0.840907
0.806344
0.7806
0.763932
0.75428
0.748825
0.747056
0.745983
0.744288
0.740886
0.734913
0.727877
0.720533
0.713338
0.706456
0.70039
0.695108
0.690752
0.687653
0.685568
0.684372
0.684387
0.685549
0.687057
0.688595
0.690532
0.693334
0.696059
0.698137
0.700608
0.705299
0.713799
0.7267
0.744282
0.766487
0.792867
0.822925
0.856152
0.891934
0.929581
0.96833
1.0075
1.04643
1.08454
1.12116
1.15572
1.18781
1.21716
1.24372
1.26765
1.28924
1.3088
1.32662
1.34286
1.35765
1.37109
1.38332
1.39439
1.40435
1.41303
1.42028
1.42595
1.43004
1.43276
1.43439
1.43503
1.43514
1.43496
1.43377
1.43123
1.42702
1.42314
1.41939
1.41583
1.41256
1.4097
1.40727
1.40532
1.40382
1.40269
1.40187
1.40127
1.40086
1.40057
1.40037
1.40024
1.40015
1.40009
1.40005
3.43218
2.97734
2.55339
2.18708
1.88516
1.64262
1.45102
1.29937
1.17804
1.0785
0.996941
0.92912
0.874465
0.832794
0.802079
0.781374
0.768163
0.76081
0.756767
0.754158
0.752214
0.749445
0.745518
0.740301
0.734169
0.727546
0.720905
0.714573
0.709109
0.705274
0.702781
0.701299
0.701033
0.701959
0.703354
0.704651
0.706477
0.709793
0.714006
0.718741
0.724721
0.73336
0.745962
0.762941
0.784438
0.81003
0.839011
0.870563
0.904035
0.938738
0.974505
1.01049
1.04642
1.08175
1.11583
1.14827
1.17898
1.20772
1.23431
1.25861
1.28046
1.30014
1.31805
1.33456
1.34982
1.36392
1.3769
1.38874
1.39948
1.40911
1.41751
1.4245
1.42988
1.43359
1.43576
1.43679
1.43729
1.43749
1.43695
1.43523
1.43178
1.42742
1.42335
1.41942
1.41572
1.41239
1.40949
1.40707
1.40515
1.40368
1.40259
1.40179
1.40121
1.40081
1.40053
1.40034
1.40022
1.40014
1.40009
1.40004
3.50989
3.12552
2.75155
2.4098
2.11391
1.86514
1.65736
1.48503
1.34071
1.22029
1.11883
1.03569
0.9678
0.914185
0.872388
0.840438
0.81675
0.798935
0.786003
0.777544
0.772341
0.768895
0.765779
0.76221
0.757819
0.752311
0.746067
0.739993
0.734352
0.729043
0.724735
0.721919
0.720348
0.720181
0.721167
0.72281
0.725248
0.729805
0.736746
0.7453
0.755321
0.767672
0.783643
0.80353
0.827368
0.854591
0.884411
0.915966
0.948553
0.981614
1.01485
1.04802
1.08084
1.11291
1.14384
1.17323
1.20087
1.22658
1.25015
1.27167
1.29162
1.30998
1.3266
1.34182
1.35615
1.36971
1.38235
1.39391
1.40429
1.41344
1.42135
1.42792
1.43298
1.43643
1.43844
1.4395
1.44003
1.43992
1.43895
1.43665
1.43248
1.42812
1.42385
1.41972
1.41588
1.41245
1.4095
1.40706
1.40514
1.40368
1.40259
1.40179
1.40122
1.40082
1.40054
1.40035
1.40023
1.40014
1.40009
1.40005
3.6011
3.23922
2.90856
2.59826
2.31544
2.06491
1.84865
1.66136
1.50173
1.36418
1.24815
1.15108
1.07149
1.00691
0.953925
0.910927
0.875506
0.846852
0.824686
0.807573
0.795135
0.786296
0.779445
0.774315
0.769986
0.765691
0.761007
0.756233
0.751575
0.747434
0.744262
0.741805
0.740058
0.739408
0.740279
0.742668
0.746684
0.753037
0.762758
0.77482
0.7885
0.804123
0.822777
0.844899
0.869989
0.897614
0.927078
0.957622
0.988511
1.01927
1.04955
1.07923
1.10837
1.13697
1.16465
1.19097
1.2156
1.23856
1.25993
1.27975
1.29795
1.31484
1.33081
1.34579
1.35979
1.37318
1.38597
1.39786
1.40852
1.41769
1.42533
1.43146
1.43613
1.43939
1.44145
1.44256
1.44276
1.4421
1.44025
1.43675
1.43245
1.42811
1.42374
1.41951
1.41561
1.41215
1.40921
1.40681
1.40494
1.40352
1.40247
1.40171
1.40116
1.40078
1.40051
1.40033
1.40021
1.40013
1.40008
1.40004
3.70438
3.36646
3.05019
2.75858
2.48889
2.24194
2.01995
1.82308
1.65147
1.50363
1.37826
1.27239
1.18426
1.10998
1.04759
0.994072
0.949019
0.911267
0.879698
0.854594
0.834355
0.818294
0.806151
0.796113
0.78794
0.781761
0.776905
0.773027
0.770155
0.7679
0.765998
0.764785
0.764356
0.764856
0.767008
0.771299
0.777854
0.786711
0.798252
0.812697
0.828844
0.846184
0.865251
0.886874
0.911225
0.937499
0.965272
0.993969
1.02284
1.05113
1.07841
1.10492
1.13093
1.15641
1.18114
1.20483
1.22711
1.24778
1.26697
1.28496
1.30194
1.31792
1.33295
1.34732
1.36115
1.37448
1.38742
1.39972
1.41089
1.42047
1.42826
1.43421
1.43852
1.44162
1.44378
1.44497
1.44499
1.44392
1.44142
1.43713
1.4327
1.42819
1.42367
1.41935
1.41539
1.41192
1.40899
1.40664
1.40481
1.40343
1.40241
1.40166
1.40113
1.40076
1.4005
1.40033
1.40021
1.40013
1.40008
1.40004
3.88045
3.50174
3.19131
2.90773
2.64201
2.39786
2.17452
1.97339
1.79501
1.63987
1.5065
1.39371
1.29749
1.21545
1.14431
1.08255
1.02914
0.98325
0.944466
0.911306
0.883534
0.860085
0.839943
0.823932
0.810879
0.800491
0.793539
0.789
0.786183
0.785146
0.785367
0.786694
0.789365
0.793239
0.798164
0.804915
0.813992
0.825085
0.837995
0.852954
0.86963
0.887627
0.906938
0.927758
0.950647
0.975209
1.00149
1.02875
1.05592
1.0821
1.10717
1.13132
1.15466
1.17727
1.19916
1.22017
1.24004
1.25863
1.27586
1.29189
1.30715
1.32187
1.33604
1.34968
1.36282
1.37568
1.38836
1.40077
1.41233
1.42238
1.43051
1.43659
1.44078
1.44355
1.44537
1.44636
1.44632
1.44521
1.44262
1.43787
1.43289
1.42805
1.42334
1.41891
1.41493
1.41147
1.40861
1.40633
1.40457
1.40325
1.40228
1.40157
1.40106
1.40071
1.40047
1.4003
1.4002
1.40012
1.40008
1.40004
3.99868
3.67415
3.33682
3.04851
2.78994
2.54467
2.32039
2.11659
1.93494
1.7759
1.63763
1.51791
1.41379
1.3233
1.24368
1.17469
1.1136
1.06185
1.01603
0.977206
0.942826
0.912984
0.887294
0.865048
0.846896
0.832944
0.821865
0.814486
0.810334
0.808363
0.809047
0.811762
0.815941
0.821857
0.829242
0.838081
0.848889
0.862012
0.876446
0.891649
0.908067
0.926064
0.945336
0.965955
0.987748
1.01099
1.03619
1.06256
1.08873
1.11376
1.13742
1.15992
1.18153
1.20228
1.22207
1.24081
1.25853
1.27524
1.29081
1.3053
1.31881
1.33176
1.34449
1.35705
1.36925
1.38111
1.3928
1.40445
1.41565
1.42561
1.43374
1.43976
1.44389
1.44629
1.44745
1.44791
1.44775
1.44671
1.44399
1.4387
1.43312
1.42791
1.42298
1.41846
1.41445
1.41104
1.40824
1.40604
1.40436
1.4031
1.40216
1.40149
1.40101
1.40068
1.40045
1.40029
1.40019
1.40012
1.40008
1.40004
4.03571
3.84476
3.50856
3.20075
2.92992
2.68997
2.46415
2.25881
2.07475
1.91184
1.76891
1.64348
1.53258
1.43431
1.34727
1.27098
1.20403
1.14574
1.09489
1.05048
1.01072
0.976126
0.944901
0.918299
0.895483
0.876718
0.862186
0.851066
0.843219
0.839123
0.837473
0.838887
0.842938
0.848739
0.856497
0.866252
0.877287
0.890801
0.906106
0.921655
0.937589
0.955201
0.974985
0.995853
1.01721
1.03985
1.06448
1.09049
1.11601
1.14028
1.16307
1.18444
1.20469
1.2239
1.24218
1.25951
1.27564
1.29058
1.30464
1.31807
1.3309
1.34324
1.35528
1.3672
1.3788
1.38993
1.40067
1.41123
1.42152
1.43098
1.43889
1.44477
1.4484
1.45014
1.45067
1.45065
1.45
1.44799
1.44385
1.43809
1.43263
1.42731
1.42229
1.41776
1.4138
1.41046
1.40778
1.40568
1.40408
1.40289
1.40202
1.40139
1.40094
1.40063
1.40041
1.40027
1.40017
1.40011
1.40007
1.40004
4.0108
3.91836
3.68995
3.37481
3.08743
2.83436
2.61236
2.40902
2.22281
2.05512
1.90506
1.7716
1.65313
1.54781
1.4545
1.37224
1.30034
1.23718
1.18175
1.13202
1.08822
1.04793
1.01346
0.98216
0.955889
0.933836
0.915221
0.901093
0.889978
0.882133
0.877641
0.875575
0.876467
0.880749
0.886592
0.894742
0.905468
0.917444
0.930939
0.946324
0.961725
0.977464
0.995101
1.01501
1.03581
1.05704
1.07999
1.10435
1.12834
1.15109
1.17238
1.19233
1.21131
1.22962
1.24727
1.26422
1.28037
1.29564
1.31019
1.32388
1.33717
1.35015
1.3627
1.37481
1.38678
1.39845
1.40939
1.41951
1.42896
1.43773
1.4453
1.45095
1.45421
1.45539
1.45538
1.45452
1.45222
1.44795
1.4428
1.43745
1.43193
1.42651
1.42147
1.41698
1.41309
1.40987
1.40731
1.40532
1.40381
1.4027
1.40188
1.40129
1.40087
1.40058
1.40038
1.40025
1.40016
1.4001
1.40007
1.40004
3.926
3.91902
3.8118
3.56566
3.26573
3.00192
2.76844
2.56128
2.37558
2.20525
2.04948
1.90812
1.78073
1.66747
1.56769
1.48012
1.40348
1.33584
1.27576
1.22182
1.17319
1.12951
1.09048
1.05617
1.02658
1.00075
0.979912
0.961796
0.947834
0.937109
0.928822
0.92436
0.921443
0.921201
0.92449
0.929537
0.936399
0.945979
0.956931
0.969019
0.983829
0.998841
1.01395
1.03118
1.05015
1.06807
1.08695
1.10772
1.1283
1.14796
1.16637
1.18375
1.20068
1.21754
1.23445
1.25132
1.268
1.28445
1.30057
1.31637
1.33184
1.34693
1.36169
1.37605
1.38977
1.4026
1.41455
1.42536
1.43491
1.44328
1.45041
1.45582
1.45909
1.46016
1.45948
1.45725
1.45279
1.44757
1.44223
1.43661
1.43092
1.42545
1.42044
1.41602
1.41227
1.4092
1.40678
1.40492
1.40351
1.40248
1.40172
1.40118
1.4008
1.40053
1.40035
1.40023
1.40015
1.40009
1.40006
1.40003
3.65251
3.85127
3.82617
3.70742
3.46407
3.18822
2.9428
2.72558
2.53103
2.35625
2.19675
2.05022
1.91669
1.79678
1.6905
1.59707
1.51498
1.44232
1.37747
1.31899
1.2662
1.21867
1.17617
1.1388
1.10587
1.07776
1.05319
1.03302
1.01578
1.00202
0.991617
0.983206
0.978306
0.975369
0.973519
0.975124
0.978247
0.982957
0.990542
0.999353
1.00954
1.02156
1.03592
1.05012
1.06554
1.08157
1.09703
1.11365
1.13148
1.14747
1.16228
1.17622
1.19011
1.20449
1.21955
1.23528
1.25156
1.26827
1.28533
1.30265
1.32003
1.33734
1.35436
1.37092
1.38678
1.40177
1.41547
1.42761
1.43802
1.44658
1.45341
1.45857
1.46195
1.4631
1.46204
1.45888
1.4532
1.44741
1.44156
1.4356
1.42973
1.42423
1.41928
1.41499
1.41139
1.4085
1.40624
1.40451
1.40321
1.40226
1.40157
1.40107
1.40072
1.40048
1.40032
1.40021
1.40013
1.40009
1.40006
1.40003
2.63854
3.65391
3.77326
3.74242
3.62389
3.38198
3.12845
2.90261
2.69956
2.51506
2.34721
2.19519
2.0573
1.93283
1.82142
1.72254
1.63498
1.55699
1.48704
1.42384
1.36684
1.31552
1.26977
1.22923
1.19357
1.16247
1.13541
1.11222
1.09248
1.07598
1.06254
1.05203
1.0437
1.03805
1.0344
1.03201
1.03173
1.03252
1.03512
1.04077
1.0477
1.05554
1.06644
1.07747
1.08948
1.10269
1.11448
1.12502
1.13878
1.15245
1.16448
1.17597
1.18771
1.20026
1.21385
1.22834
1.24363
1.25972
1.27653
1.29392
1.31171
1.32969
1.34766
1.36544
1.38266
1.39893
1.4139
1.4272
1.43847
1.44762
1.45456
1.45944
1.46264
1.46387
1.46294
1.45978
1.45359
1.44696
1.44057
1.43429
1.42829
1.42279
1.41795
1.41382
1.41043
1.40774
1.40566
1.40408
1.40289
1.40203
1.4014
1.40096
1.40064
1.40043
1.40028
1.40018
1.40012
1.40008
1.40005
1.40003
1.9832
2.88404
3.62375
3.7053
3.66692
3.55077
3.32002
3.08757
2.87663
2.68514
2.50922
2.34876
2.20385
2.07412
1.95825
1.85487
1.76218
1.67896
1.6039
1.53609
1.4749
1.41991
1.37082
1.32719
1.28866
1.25469
1.22491
1.19892
1.17644
1.15731
1.14121
1.12799
1.11731
1.10865
1.10237
1.09755
1.09444
1.0934
1.09353
1.09447
1.09863
1.10381
1.10998
1.11845
1.12672
1.13484
1.14447
1.15311
1.16056
1.17136
1.18105
1.1886
1.19746
1.20746
1.2189
1.23164
1.24545
1.26039
1.27633
1.29306
1.31041
1.32824
1.34636
1.36447
1.38212
1.39888
1.41426
1.42795
1.43956
1.44887
1.45566
1.46013
1.46294
1.4641
1.46334
1.46042
1.4543
1.44653
1.43943
1.43277
1.42663
1.42118
1.4165
1.41259
1.40944
1.40697
1.40507
1.40364
1.40257
1.4018
1.40124
1.40084
1.40057
1.40038
1.40025
1.40016
1.40011
1.40007
1.40004
1.40002
1.68222
2.0398
3.01359
3.57308
3.64466
3.59901
3.48793
3.27823
3.06264
2.86263
2.6801
2.51285
2.36065
2.22389
2.10161
1.99248
1.89484
1.80695
1.72743
1.65538
1.59025
1.53162
1.47917
1.43238
1.39081
1.35385
1.3211
1.29217
1.26687
1.24498
1.22619
1.21033
1.19684
1.18577
1.17654
1.16945
1.16415
1.16072
1.15933
1.15986
1.1612
1.16427
1.16713
1.17107
1.17629
1.18087
1.18586
1.19202
1.19673
1.20293
1.21194
1.21841
1.22304
1.23061
1.23991
1.25076
1.26281
1.27605
1.29038
1.30566
1.32174
1.33846
1.35563
1.37286
1.38978
1.40583
1.42049
1.43341
1.44422
1.45278
1.45877
1.46259
1.46485
1.46573
1.46492
1.46167
1.45449
1.44554
1.43781
1.43085
1.42469
1.4194
1.41495
1.41132
1.40843
1.40619
1.40448
1.4032
1.40225
1.40157
1.40108
1.40073
1.40049
1.40033
1.40021
1.40014
1.40009
1.40006
1.40004
1.40002
1.54161
1.69714
2.06445
3.05916
3.51255
3.58293
3.53801
3.43554
3.25054
3.05044
2.85902
2.68423
2.52527
2.38167
2.25285
2.13754
2.03405
1.94093
1.85679
1.78063
1.7117
1.64952
1.5937
1.54369
1.49894
1.45884
1.42301
1.39107
1.36286
1.33808
1.3165
1.29777
1.28161
1.26782
1.25619
1.24686
1.23956
1.23458
1.2314
1.23012
1.23016
1.23087
1.23272
1.23408
1.23552
1.23772
1.23887
1.24138
1.24501
1.24716
1.25265
1.26003
1.2644
1.26816
1.27459
1.28354
1.2939
1.30533
1.31787
1.33134
1.34578
1.36082
1.3764
1.39192
1.40721
1.42155
1.43444
1.44555
1.45453
1.46126
1.46586
1.46883
1.47057
1.47104
1.46898
1.46235
1.45199
1.44333
1.43553
1.42859
1.42259
1.41755
1.4134
1.41007
1.40745
1.40543
1.40391
1.40278
1.40195
1.40135
1.40093
1.40063
1.40042
1.40028
1.40018
1.40012
1.40008
1.40005
1.40003
1.40002
1.46392
1.54364
1.69605
2.0685
3.03317
3.44305
3.521
3.48201
3.39299
3.23436
3.04891
2.86638
2.69882
2.54761
2.412
2.29055
2.18125
2.08248
1.99304
1.91201
1.83872
1.7726
1.71315
1.65973
1.61171
1.56844
1.5295
1.49449
1.46328
1.43552
1.41103
1.38943
1.37059
1.35424
1.34046
1.32917
1.32032
1.31378
1.3091
1.30595
1.30352
1.30185
1.3004
1.29951
1.29896
1.29874
1.2994
1.29972
1.30136
1.30315
1.30463
1.30969
1.31531
1.31838
1.32195
1.32773
1.3364
1.34626
1.35699
1.36866
1.38111
1.39417
1.40738
1.42058
1.4332
1.44487
1.45527
1.46373
1.47035
1.47502
1.47822
1.4805
1.48137
1.47825
1.46822
1.45829
1.44926
1.44078
1.43306
1.42627
1.4205
1.41575
1.41191
1.40888
1.40652
1.40472
1.40338
1.40239
1.40167
1.40115
1.40078
1.40053
1.40035
1.40023
1.40015
1.4001
1.40007
1.40004
1.40003
1.40002
1.42498
1.45886
1.54308
1.6804
2.04777
2.94831
3.36351
3.45762
3.42995
3.35954
3.22872
3.05673
2.88437
2.72525
2.58136
2.45216
2.33587
2.23088
2.13588
2.04979
1.97169
1.90107
1.83746
1.78024
1.72866
1.68199
1.63973
1.60152
1.56717
1.53641
1.50903
1.48468
1.46337
1.44491
1.42937
1.41654
1.40626
1.39795
1.39105
1.385
1.37965
1.37497
1.37096
1.36773
1.36494
1.36305
1.36162
1.36075
1.36078
1.36178
1.36283
1.36483
1.37027
1.37446
1.377
1.38104
1.38708
1.39504
1.40386
1.41332
1.42333
1.43385
1.44456
1.45501
1.46496
1.47365
1.48121
1.48721
1.49135
1.49459
1.49687
1.49495
1.48543
1.47582
1.46613
1.45638
1.44696
1.43828
1.43061
1.42402
1.41852
1.41405
1.41052
1.40776
1.40565
1.40407
1.40289
1.40203
1.40141
1.40097
1.40066
1.40044
1.40029
1.4002
1.40013
1.40008
1.40006
1.40004
1.40003
1.40002
1.40812
1.42337
1.45324
1.53288
1.66002
1.99575
2.806
3.27198
3.39447
3.38117
3.32981
3.22836
3.07074
2.91076
2.7605
2.62322
2.49912
2.38705
2.28554
2.19349
2.1101
2.03465
1.96658
1.90518
1.84968
1.79932
1.75356
1.71203
1.67455
1.64089
1.61087
1.58424
1.56087
1.54064
1.52335
1.50866
1.49603
1.48482
1.47474
1.46561
1.45746
1.45021
1.44391
1.43846
1.43387
1.43003
1.42709
1.42487
1.42341
1.42317
1.42353
1.42418
1.4269
1.43126
1.43409
1.43692
1.44105
1.44686
1.45398
1.46159
1.4696
1.47781
1.48596
1.49361
1.50073
1.50658
1.51138
1.51516
1.51763
1.51542
1.50653
1.49755
1.48739
1.47646
1.46532
1.45455
1.44459
1.43574
1.42813
1.42176
1.41658
1.41244
1.4092
1.40672
1.40485
1.40346
1.40244
1.4017
1.40118
1.4008
1.40054
1.40036
1.40024
1.40016
1.40011
1.40007
1.40005
1.40003
1.40002
1.40001
1.40307
1.40712
1.41988
1.44651
1.51551
1.63307
1.91769
2.6098
3.16465
3.3277
3.3302
3.29706
3.21771
3.08079
2.93864
2.80044
2.67108
2.55201
2.44329
2.3446
2.25521
2.17416
2.10083
2.03467
1.97496
1.92085
1.87169
1.82705
1.78675
1.75054
1.71818
1.6893
1.66365
1.64095
1.62089
1.60302
1.58711
1.57278
1.5598
1.548
1.53732
1.52775
1.51931
1.5119
1.50549
1.50006
1.49558
1.49204
1.48937
1.48766
1.48701
1.48676
1.4877
1.49006
1.49286
1.49544
1.49838
1.5021
1.50729
1.51312
1.51881
1.52474
1.53014
1.53514
1.53946
1.54294
1.54425
1.54039
1.53381
1.52525
1.51458
1.50237
1.48933
1.47621
1.46361
1.452
1.44168