/*--------------------------------*- C++ -*----------------------------------*\
  =========                 |
  \\      /  F ield         | OpenFOAM: The Open Source CFD Toolbox
   \\    /   O peration     | Website:  https://openfoam.org
    \\  /    A nd           | Version:  10
     \\/     M anipulation  |
\*---------------------------------------------------------------------------*/
FoamFile
{
    format      ascii;
    class       volVectorField;
    location    "0.5";
    object      U;
}
// * * * * * * * * * * * * * * * * * * * * * * * * * * * * * * * * * * * * * //

dimensions      [0 1 -1 0 0 0 0];

internalField   nonuniform List<vector> 
5250
(
(3 7.3708e-10 0)
(3 3.78006e-09 0)
(3 1.5411e-08 0)
(3 3.85084e-08 0)
(2.99999 1.26931e-07 0)
(2.99997 2.62178e-07 0)
(2.99992 8.59391e-07 0)
(2.9998 1.79544e-06 0)
(2.99948 5.62131e-06 0)
(2.99869 1.13646e-05 0)
(2.99665 3.86393e-05 0)
(2.99144 7.44595e-05 0)
(2.97789 0.000243941 0)
(2.94097 0.000547884 0)
(2.83369 0.00159905 0)
(2.50009 0.00450962 0)
(1.49985 0.0135437 0)
(0.551325 0.0353983 0)
(0.27963 0.0298809 0)
(0.42937 0.0298872 0)
(0.408472 0.0334986 0)
(0.295601 0.0389273 0)
(0.206966 0.043889 0)
(0.10974 0.0463488 0)
(0.0379045 0.0430792 0)
(3 1.9729e-09 0)
(3 1.15485e-08 0)
(3 4.24151e-08 0)
(3 1.18327e-07 0)
(2.99999 3.39947e-07 0)
(2.99997 8.38421e-07 0)
(2.99992 2.353e-06 0)
(2.9998 5.68687e-06 0)
(2.99949 1.5766e-05 0)
(2.99872 3.74395e-05 0)
(2.99671 0.000106551 0)
(2.99161 0.000247727 0)
(2.97828 0.000695405 0)
(2.94209 0.00172731 0)
(2.837 0.00483155 0)
(2.5099 0.0139203 0)
(1.52376 0.0416927 0)
(0.56454 0.106334 0)
(0.275657 0.0845834 0)
(0.430802 0.079592 0)
(0.41055 0.0849093 0)
(0.297511 0.093541 0)
(0.209698 0.10036 0)
(0.115087 0.104469 0)
(0.0406002 0.0990196 0)
(3 2.9685e-09 0)
(3 1.90355e-08 0)
(3 6.55081e-08 0)
(3 1.93978e-07 0)
(2.99999 5.18046e-07 0)
(2.99997 1.39721e-06 0)
(2.99992 3.61175e-06 0)
(2.99981 9.4703e-06 0)
(2.99951 2.4571e-05 0)
(2.99876 6.37163e-05 0)
(2.99683 0.000165355 0)
(2.99193 0.000425436 0)
(2.97912 0.00110711 0)
(2.94441 0.00290437 0)
(2.84391 0.00796795 0)
(2.53097 0.0232664 0)
(1.57762 0.0701197 0)
(0.595438 0.182533 0)
(0.271796 0.143342 0)
(0.436903 0.133507 0)
(0.419439 0.143835 0)
(0.30609 0.159123 0)
(0.217684 0.171319 0)
(0.123159 0.180148 0)
(0.043214 0.173558 0)
(3 3.86681e-09 0)
(3 2.53867e-08 0)
(3 8.60323e-08 0)
(3 2.5581e-07 0)
(2.99999 6.79524e-07 0)
(2.99997 1.82531e-06 0)
(2.99993 4.70438e-06 0)
(2.99982 1.23803e-05 0)
(2.99954 3.20465e-05 0)
(2.99883 8.37956e-05 0)
(2.99701 0.000217361 0)
(2.9924 0.000565249 0)
(2.98035 0.00147286 0)
(2.94782 0.00388909 0)
(2.85409 0.0106943 0)
(2.56236 0.0313326 0)
(1.66175 0.0952403 0)
(0.644702 0.255608 0)
(0.270007 0.201572 0)
(0.448127 0.187483 0)
(0.435727 0.20363 0)
(0.321714 0.22603 0)
(0.231348 0.244883 0)
(0.13487 0.2598 0)
(0.046837 0.253633 0)
(3 4.57717e-09 0)
(3 3.03398e-08 0)
(3 1.01519e-07 0)
(3 3.04021e-07 0)
(2.99999 7.95447e-07 0)
(2.99997 2.12586e-06 0)
(2.99993 5.47158e-06 0)
(2.99983 1.42488e-05 0)
(2.99957 3.71006e-05 0)
(2.99892 9.66097e-05 0)
(2.99723 0.000252731 0)
(2.99298 0.000659841 0)
(2.9819 0.00173311 0)
(2.95212 0.00460426 0)
(2.86699 0.0127374 0)
(2.60265 0.0374596 0)
(1.77511 0.115586 0)
(0.713632 0.322252 0)
(0.274989 0.259566 0)
(0.463989 0.242998 0)
(0.457689 0.264647 0)
(0.343281 0.293422 0)
(0.250637 0.319997 0)
(0.15112 0.342201 0)
(0.0524755 0.338794 0)
(3 5.24926e-09 0)
(3 3.45845e-08 0)
(3 1.14759e-07 0)
(3 3.42995e-07 0)
(2.99999 8.77448e-07 0)
(2.99998 2.33625e-06 0)
(2.99994 5.88021e-06 0)
(2.99985 1.52382e-05 0)
(2.9996 3.93439e-05 0)
(2.99901 0.000101242 0)
(2.99748 0.000266735 0)
(2.99363 0.000692166 0)
(2.98365 0.00184217 0)
(2.95703 0.00490618 0)
(2.88182 0.0137293 0)
(2.6501 0.0405013 0)
(1.91664 0.128015 0)
(0.806905 0.375493 0)
(0.293513 0.315325 0)
(0.484128 0.302279 0)
(0.483776 0.329001 0)
(0.370532 0.363 0)
(0.275988 0.399598 0)
(0.172547 0.431182 0)
(0.0614596 0.434345 0)
(3 5.96007e-09 0)
(3 3.88447e-08 0)
(3 1.29128e-07 0)
(3 3.80632e-07 0)
(2.99999 9.64718e-07 0)
(2.99998 2.53887e-06 0)
(2.99994 6.23286e-06 0)
(2.99986 1.6041e-05 0)
(2.99964 4.01978e-05 0)
(2.99911 0.000102409 0)
(2.99772 0.000263039 0)
(2.9943 0.00067556 0)
(2.98542 0.00177548 0)
(2.96209 0.00468751 0)
(2.89717 0.0131081 0)
(2.70087 0.0385263 0)
(2.08011 0.124729 0)
(0.926939 0.392113 0)
(0.331931 0.366736 0)
(0.5081 0.368368 0)
(0.511183 0.398186 0)
(0.403604 0.435796 0)
(0.309459 0.484485 0)
(0.201348 0.528719 0)
(0.0758812 0.545596 0)
(3 6.561e-09 0)
(3 4.28025e-08 0)
(3 1.42937e-07 0)
(3 4.21011e-07 0)
(2.99999 1.06887e-06 0)
(2.99998 2.8116e-06 0)
(2.99995 6.82767e-06 0)
(2.99987 1.74192e-05 0)
(2.99968 4.24567e-05 0)
(2.9992 0.000107276 0)
(2.99796 0.000266314 0)
(2.9949 0.000670313 0)
(2.987 0.00170765 0)
(2.96653 0.00436491 0)
(2.9105 0.0118404 0)
(2.74601 0.0335066 0)
(2.23888 0.10617 0)
(1.06967 0.346655 0)
(0.393232 0.4232 0)
(0.531815 0.445838 0)
(0.536243 0.472294 0)
(0.442507 0.513326 0)
(0.353155 0.574743 0)
(0.241782 0.637045 0)
(0.10025 0.681633 0)
(3 6.92205e-09 0)
(3 4.51162e-08 0)
(3 1.51877e-07 0)
(3 4.45214e-07 0)
(2.99999 1.14545e-06 0)
(2.99998 3.01045e-06 0)
(2.99996 7.36865e-06 0)
(2.99989 1.8842e-05 0)
(2.99972 4.58348e-05 0)
(2.9993 0.000115928 0)
(2.99819 0.000284889 0)
(2.9955 0.000713379 0)
(2.9885 0.00178328 0)
(2.97054 0.00447625 0)
(2.92167 0.0117182 0)
(2.78044 0.0317917 0)
(2.35334 0.0936881 0)
(1.23786 0.288807 0)
(0.484932 0.493673 0)
(0.550193 0.529281 0)
(0.556945 0.544456 0)
(0.488651 0.59475 0)
(0.410642 0.668853 0)
(0.303712 0.757894 0)
(0.144434 0.858152 0)
(3 6.89583e-09 0)
(3 4.53054e-08 0)
(3 1.51773e-07 0)
(3 4.45586e-07 0)
(2.99999 1.15663e-06 0)
(2.99999 3.0264e-06 0)
(2.99996 7.53875e-06 0)
(2.99991 1.93693e-05 0)
(2.99976 4.76613e-05 0)
(2.9994 0.000121473 0)
(2.99845 0.000298164 0)
(2.99614 0.000755089 0)
(2.99014 0.00186834 0)
(2.97479 0.00471372 0)
(2.93328 0.012128 0)
(2.81404 0.0326096 0)
(2.45452 0.092501 0)
(1.44139 0.268709 0)
(0.617456 0.565068 0)
(0.564132 0.598408 0)
(0.580078 0.611519 0)
(0.548844 0.672528 0)
(0.487584 0.763994 0)
(0.404671 0.9014 0)
(0.225954 1.14195 0)
(3 6.343e-09 0)
(3 4.20686e-08 0)
(3 1.41961e-07 0)
(3 4.16737e-07 0)
(3 1.08986e-06 0)
(2.99999 2.88609e-06 0)
(2.99997 7.15373e-06 0)
(2.99992 1.88644e-05 0)
(2.9998 4.54544e-05 0)
(2.9995 0.000121195 0)
(2.99872 0.00028601 0)
(2.99681 0.000765693 0)
(2.9918 0.00181588 0)
(2.97908 0.00477242 0)
(2.94488 0.0119421 0)
(2.84717 0.032239 0)
(2.55076 0.0908408 0)
(1.6696 0.262905 0)
(0.777814 0.629905 0)
(0.588767 0.652723 0)
(0.621063 0.672723 0)
(0.627547 0.738267 0)
(0.603196 0.845649 0)
(0.606837 1.01396 0)
(0.652441 1.29869 0)
(3 5.60869e-09 0)
(3 3.67513e-08 0)
(3 1.24137e-07 0)
(3 3.68331e-07 0)
(3 9.56263e-07 0)
(2.99999 2.57308e-06 0)
(2.99998 6.3776e-06 0)
(2.99994 1.68451e-05 0)
(2.99984 4.16392e-05 0)
(2.9996 0.00010865 0)
(2.99899 0.000270088 0)
(2.99742 0.000697266 0)
(2.99347 0.0017492 0)
(2.98323 0.00447623 0)
(2.95612 0.0115362 0)
(2.87957 0.030692 0)
(2.64638 0.087563 0)
(1.92498 0.258664 0)
(0.970632 0.689994 0)
(0.638637 0.712363 0)
(0.683831 0.733334 0)
(0.72283 0.79076 0)
(0.73408 0.897678 0)
(0.795953 1.0585 0)
(0.963071 1.27907 0)
(3 4.7276e-09 0)
(3 3.19213e-08 0)
(3 1.04834e-07 0)
(3 3.19015e-07 0)
(3 8.08268e-07 0)
(2.99999 2.20384e-06 0)
(2.99998 5.39698e-06 0)
(2.99995 1.43467e-05 0)
(2.99988 3.52845e-05 0)
(2.99969 9.20194e-05 0)
(2.99921 0.000229929 0)
(2.99804 0.000590708 0)
(2.99495 0.00149204 0)
(2.98723 0.00382698 0)
(2.96675 0.00983818 0)
(2.91044 0.02626 0)
(2.74173 0.0741082 0)
(2.21126 0.225477 0)
(1.21619 0.677765 0)
(0.73515 0.756325 0)
(0.763997 0.798536 0)
(0.81797 0.835507 0)
(0.857803 0.923252 0)
(0.943843 1.05531 0)
(1.13289 1.20124 0)
(3 4.17417e-09 0)
(3 2.6237e-08 0)
(3 9.25636e-08 0)
(3 2.60468e-07 0)
(3 7.08934e-07 0)
(2.99999 1.8079e-06 0)
(2.99999 4.65056e-06 0)
(2.99996 1.18354e-05 0)
(2.99991 2.94597e-05 0)
(2.99976 7.67657e-05 0)
(2.99941 0.000185675 0)
(2.99847 0.000492022 0)
(2.99617 0.00118263 0)
(2.99018 0.0031237 0)
(2.97484 0.00773129 0)
(2.93312 0.0205942 0)
(2.81252 0.056101 0)
(2.44578 0.168877 0)
(1.4923 0.54387 0)
(0.869318 0.787178 0)
(0.842165 0.855066 0)
(0.888243 0.881933 0)
(0.956162 0.938543 0)
(1.05285 1.03525 0)
(1.22965 1.13101 0)
(3 3.6095e-09 0)
(3 2.11981e-08 0)
(3 7.72934e-08 0)
(3 2.11281e-07 0)
(3 5.94566e-07 0)
(3 1.46325e-06 0)
(2.99999 3.96724e-06 0)
(2.99997 9.52588e-06 0)
(2.99993 2.57825e-05 0)
(2.99982 6.15007e-05 0)
(2.99956 0.00016565 0)
(2.99887 0.000396048 0)
(2.99715 0.00105568 0)
(2.99269 0.00255656 0)
(2.98129 0.00670244 0)
(2.9507 0.01697 0)
(2.86374 0.0459133 0)
(2.60026 0.131303 0)
(1.81293 0.405004 0)
(1.05505 0.83986 0)
(0.914693 0.90141 0)
(0.945428 0.927041 0)
(1.0273 0.953677 0)
(1.13411 1.01568 0)
(1.29227 1.0792 0)
(3 2.61043e-09 0)
(3 1.72805e-08 0)
(3 5.72772e-08 0)
(3 1.72529e-07 0)
(3 4.43129e-07 0)
(3 1.18928e-06 0)
(2.99999 2.98041e-06 0)
(2.99998 7.72495e-06 0)
(2.99995 1.96259e-05 0)
(2.99988 4.95055e-05 0)
(2.99968 0.000128289 0)
(2.99921 0.000318042 0)
(2.99797 0.000832201 0)
(2.99489 0.00205555 0)
(2.98684 0.00537925 0)
(2.96573 0.0136415 0)
(2.90702 0.0367785 0)
(2.73014 0.103688 0)
(2.16956 0.318218 0)
(1.32712 0.843077 0)
(1.01748 0.927222 0)
(1.01728 0.961068 0)
(1.09034 0.973359 0)
(1.19998 1.00233 0)
(1.34061 1.04199 0)
(3 1.94082e-09 0)
(3 1.31035e-08 0)
(3 4.3327e-08 0)
(3 1.30722e-07 0)
(3 3.32404e-07 0)
(3 9.06783e-07 0)
(2.99999 2.19853e-06 0)
(2.99999 5.91529e-06 0)
(2.99997 1.41874e-05 0)
(2.99992 3.80044e-05 0)
(2.99978 9.14055e-05 0)
(2.99945 0.000243409 0)
(2.99859 0.00059011 0)
(2.99648 0.00156086 0)
(2.99095 0.00384853 0)
(2.97683 0.0100966 0)
(2.93857 0.0262927 0)
(2.82886 0.0729664 0)
(2.4928 0.221011 0)
(1.6579 0.690336 0)
(1.16742 0.920429 0)
(1.10569 0.97811 0)
(1.14756 0.998245 0)
(1.24992 1.00491 0)
(1.38061 1.02324 0)
(3 1.51435e-09 0)
(3 9.25497e-09 0)
(3 3.30892e-08 0)
(3 9.21998e-08 0)
(3 2.53307e-07 0)
(3 6.42516e-07 0)
(3 1.66978e-06 0)
(2.99999 4.21641e-06 0)
(2.99998 1.07156e-05 0)
(2.99994 2.74017e-05 0)
(2.99986 6.85697e-05 0)
(2.99963 0.000177131 0)
(2.99907 0.00044012 0)
(2.9976 0.00114217 0)
(2.99396 0.00284787 0)
(2.98441 0.00737602 0)
(2.95923 0.018935 0)
(2.88842 0.0509597 0)
(2.67546 0.145897 0)
(2.02719 0.461788 0)
(1.36611 0.930484 0)
(1.19992 1.00116 0)
(1.21088 1.03068 0)
(1.29324 1.02613 0)
(1.41422 1.02045 0)
(3 1.06778e-09 0)
(3 6.54178e-09 0)
(3 2.31469e-08 0)
(3 6.50945e-08 0)
(3 1.77539e-07 0)
(3 4.50441e-07 0)
(3 1.17788e-06 0)
(2.99999 2.93326e-06 0)
(2.99999 7.62305e-06 0)
(2.99996 1.89489e-05 0)
(2.99991 4.90434e-05 0)
(2.99976 0.000122276 0)
(2.9994 0.000316155 0)
(2.99849 0.000790327 0)
(2.99614 0.00204167 0)
(2.99023 0.00515892 0)
(2.97478 0.0133389 0)
(2.93317 0.0352902 0)
(2.81269 0.0984264 0)
(2.43129 0.304104 0)
(1.68188 0.823424 0)
(1.33245 0.99513 0)
(1.29199 1.04259 0)
(1.33642 1.04781 0)
(1.44075 1.02801 0)
(3 6.83131e-10 0)
(3 4.56983e-09 0)
(3 1.51287e-08 0)
(3 4.55892e-08 0)
(3 1.16241e-07 0)
(3 3.15391e-07 0)
(3 7.7212e-07 0)
(3 2.05119e-06 0)
(2.99999 5.00066e-06 0)
(2.99998 1.31729e-05 0)
(2.99994 3.2288e-05 0)
(2.99985 8.4071e-05 0)
(2.99963 0.000208311 0)
(2.99904 0.000536482 0)
(2.9976 0.00134268 0)
(2.99382 0.00343156 0)
(2.9843 0.00870904 0)
(2.95873 0.0225809 0)
(2.88772 0.0606697 0)
(2.67369 0.176508 0)
(2.05661 0.551508 0)
(1.51533 0.97081 0)
(1.38506 1.04563 0)
(1.39148 1.06893 0)
(1.46889 1.05224 0)
(3 4.62558e-10 0)
(3 2.87582e-09 0)
(3 1.00256e-08 0)
(3 2.86462e-08 0)
(3 7.72543e-08 0)
(3 1.97954e-07 0)
(3 5.16821e-07 0)
(3 1.2874e-06 0)
(2.99999 3.36106e-06 0)
(2.99999 8.28835e-06 0)
(2.99996 2.17253e-05 0)
(2.99991 5.33843e-05 0)
(2.99977 0.000139622 0)
(2.99943 0.00034403 0)
(2.99855 0.000897267 0)
(2.99637 0.00221826 0)
(2.99072 0.00577991 0)
(2.97621 0.0145596 0)
(2.93712 0.0388454 0)
(2.82507 0.107331 0)
(2.47034 0.332839 0)
(1.81611 0.83945 0)
(1.51049 1.02391 0)
(1.46789 1.07379 0)
(1.50427 1.07865 0)
(3 2.90645e-10 0)
(3 1.74682e-09 0)
(3 6.30837e-09 0)
(3 1.74103e-08 0)
(3 4.86318e-08 0)
(3 1.21821e-07 0)
(3 3.23673e-07 0)
(3 8.0047e-07 0)
(3 2.09641e-06 0)
(2.99999 5.19406e-06 0)
(2.99998 1.34604e-05 0)
(2.99995 3.36047e-05 0)
(2.99987 8.59637e-05 0)
(2.99967 0.000216163 0)
(2.99916 0.000547175 0)
(2.99789 0.00138648 0)
(2.99457 0.00349017 0)
(2.98622 0.00890461 0)
(2.96392 0.0228978 0)
(2.90258 0.0612138 0)
(2.71867 0.177032 0)
(2.19167 0.53958 0)
(1.70127 0.965586 0)
(1.56537 1.06199 0)
(1.55951 1.09074 0)
(3 1.68986e-10 0)
(3 1.04023e-09 0)
(3 3.68286e-09 0)
(3 1.03942e-08 0)
(3 2.84441e-08 0)
(3 7.28753e-08 0)
(3 1.89861e-07 0)
(3 4.8e-07 0)
(3 1.23231e-06 0)
(3 3.12048e-06 0)
(2.99999 7.93021e-06 0)
(2.99997 2.01774e-05 0)
(2.99993 5.09778e-05 0)
(2.99982 0.000130154 0)
(2.99953 0.000327356 0)
(2.99882 0.000840406 0)
(2.99698 0.00210911 0)
(2.99236 0.00542488 0)
(2.98035 0.0138062 0)
(2.94861 0.0363353 0)
(2.8594 0.0997518 0)
(2.58283 0.304137 0)
(2.01114 0.782782 0)
(1.69993 1.02242 0)
(1.63895 1.08522 0)
(3 9.27493e-11 0)
(3 5.99101e-10 0)
(3 2.04479e-09 0)
(3 6.00356e-09 0)
(3 1.58398e-08 0)
(3 4.21409e-08 0)
(3 1.06381e-07 0)
(3 2.78436e-07 0)
(3 6.95392e-07 0)
(3 1.8134e-06 0)
(2.99999 4.51062e-06 0)
(2.99998 1.17507e-05 0)
(2.99996 2.92287e-05 0)
(2.9999 7.57877e-05 0)
(2.99975 0.000188958 0)
(2.99937 0.00048728 0)
(2.99839 0.00121692 0)
(2.99596 0.00312505 0)
(2.9896 0.00784921 0)
(2.97317 0.0202949 0)
(2.92844 0.0532692 0)
(2.79677 0.150448 0)
(2.40276 0.450869 0)
(1.91995 0.906444 0)
(1.74099 1.05384 0)
(3 5.16636e-11 0)
(3 3.12562e-10 0)
(3 1.12585e-09 0)
(3 3.13186e-09 0)
(3 8.75709e-09 0)
(3 2.21873e-08 0)
(3 5.89935e-08 0)
(3 1.478e-07 0)
(3 3.86578e-07 0)
(3 9.69647e-07 0)
(3 2.50747e-06 0)
(2.99999 6.33361e-06 0)
(2.99998 1.61486e-05 0)
(2.99995 4.1055e-05 0)
(2.99987 0.000103375 0)
(2.99967 0.000265078 0)
(2.99917 0.00065885 0)
(2.99789 0.00170779 0)
(2.99463 0.00423936 0)
(2.98619 0.0110288 0)
(2.96387 0.0283192 0)
(2.90244 0.0768557 0)
(2.71476 0.227574 0)
(2.25627 0.634967 0)
(1.90639 0.974347 0)
(3 2.4941e-11 0)
(3 1.66547e-10 0)
(3 5.53737e-10 0)
(3 1.67688e-09 0)
(3 4.34182e-09 0)
(3 1.18502e-08 0)
(3 2.95638e-08 0)
(3 7.89097e-08 0)
(3 1.95731e-07 0)
(3 5.17396e-07 0)
(3 1.28611e-06 0)
(3 3.36433e-06 0)
(2.99999 8.39436e-06 0)
(2.99998 2.17678e-05 0)
(2.99994 5.45843e-05 0)
(2.99984 0.000140019 0)
(2.99959 0.000354358 0)
(2.99894 0.000900475 0)
(2.99736 0.00230085 0)
(2.99318 0.00584135 0)
(2.98262 0.0150783 0)
(2.95439 0.0395793 0)
(2.87583 0.109187 0)
(2.6379 0.327822 0)
(2.18605 0.766416 0)
(3 1.2333e-11 0)
(3 7.98381e-11 0)
(3 2.7187e-10 0)
(3 8.06865e-10 0)
(3 2.14288e-09 0)
(3 5.7344e-09 0)
(3 1.47219e-08 0)
(3 3.84028e-08 0)
(3 9.82655e-08 0)
(3 2.53249e-07 0)
(3 6.50291e-07 0)
(3 1.65805e-06 0)
(3 4.27322e-06 0)
(2.99999 1.08106e-05 0)
(2.99997 2.79698e-05 0)
(2.99992 7.0147e-05 0)
(2.99981 0.000182626 0)
(2.99951 0.000453857 0)
(2.99875 0.00118605 0)
(2.99682 0.00294592 0)
(2.99188 0.00766131 0)
(2.9791 0.0194423 0)
(2.94506 0.0514743 0)
(2.84655 0.143333 0)
(2.56017 0.411491 0)
(3 5.87128e-12 0)
(3 3.52794e-11 0)
(3 1.28416e-10 0)
(3 3.58145e-10 0)
(3 1.0145e-09 0)
(3 2.58831e-09 0)
(3 6.99929e-09 0)
(3 1.75827e-08 0)
(3 4.69541e-08 0)
(3 1.17608e-07 0)
(3 3.1113e-07 0)
(3 7.80302e-07 0)
(3 2.04901e-06 0)
(2.99999 5.13958e-06 0)
(2.99999 1.34252e-05 0)
(2.99997 3.37157e-05 0)
(2.99991 8.74143e-05 0)
(2.99978 0.0002206 0)
(2.99944 0.000564804 0)
(2.99857 0.00143451 0)
(2.99634 0.00363911 0)
(2.99063 0.00929905 0)
(2.97561 0.0238978 0)
(2.93532 0.0633925 0)
(2.81492 0.18054 0)
(3 2.36769e-12 0)
(3 1.57254e-11 0)
(3 5.2936e-11 0)
(3 1.60221e-10 0)
(3 4.24129e-10 0)
(3 1.165e-09 0)
(3 2.96944e-09 0)
(3 8.00099e-09 0)
(3 2.01816e-08 0)
(3 5.39099e-08 0)
(3 1.3534e-07 0)
(3 3.59814e-07 0)
(3 9.00519e-07 0)
(3 2.38497e-06 0)
(2.99999 5.97032e-06 0)
(2.99999 1.56796e-05 0)
(2.99996 3.92975e-05 0)
(2.99991 0.000102398 0)
(2.99976 0.000256545 0)
(2.99938 0.000663937 0)
(2.99843 0.00167035 0)
(2.99594 0.00430059 0)
(2.98964 0.0109222 0)
(2.97278 0.0285772 0)
(2.92724 0.0762509 0)
(3 9.59821e-13 0)
(3 6.29212e-12 0)
(3 2.13317e-11 0)
(3 6.44781e-11 0)
(3 1.72172e-10 0)
(3 4.74636e-10 0)
(3 1.21869e-09 0)
(3 3.30132e-09 0)
(3 8.38616e-09 0)
(3 2.25494e-08 0)
(3 5.70691e-08 0)
(3 1.52027e-07 0)
(3 3.84802e-07 0)
(3 1.01432e-06 0)
(3 2.57185e-06 0)
(2.99999 6.71534e-06 0)
(2.99999 1.70819e-05 0)
(2.99996 4.40937e-05 0)
(2.9999 0.000112861 0)
(2.99975 0.000287285 0)
(2.99937 0.000740776 0)
(2.99833 0.00186937 0)
(2.99579 0.00485645 0)
(2.98899 0.012322 0)
(2.97136 0.0325959 0)
(3 3.53983e-13 0)
(3 2.27225e-12 0)
(3 8.17739e-12 0)
(3 2.3421e-11 0)
(3 6.65769e-11 0)
(3 1.7586e-10 0)
(3 4.75772e-10 0)
(3 1.24514e-09 0)
(3 3.32211e-09 0)
(3 8.63302e-09 0)
(3 2.29772e-08 0)
(3 5.90177e-08 0)
(3 1.57158e-07 0)
(3 3.98942e-07 0)
(3 1.06095e-06 0)
(3 2.6715e-06 0)
(2.99999 7.08993e-06 0)
(2.99999 1.77374e-05 0)
(2.99996 4.70623e-05 0)
(2.9999 0.000117097 0)
(2.99975 0.000310207 0)
(2.99937 0.000770417 0)
(2.99835 0.00203737 0)
(2.99581 0.00510063 0)
(2.98902 0.013428 0)
(3 1.06041e-13 0)
(3 7.99413e-13 0)
(3 2.79958e-12 0)
(3 8.47025e-12 0)
(3 2.31028e-11 0)
(3 6.36441e-11 0)
(3 1.68881e-10 0)
(3 4.52237e-10 0)
(3 1.20019e-09 0)
(3 3.16392e-09 0)
(3 8.39626e-09 0)
(3 2.20007e-08 0)
(3 5.79666e-08 0)
(3 1.51807e-07 0)
(3 3.95288e-07 0)
(3 1.03437e-06 0)
(3 2.66874e-06 0)
(2.99999 6.95737e-06 0)
(2.99999 1.78344e-05 0)
(2.99997 4.65261e-05 0)
(2.99991 0.000118044 0)
(2.99977 0.000309743 0)
(2.9994 0.000778812 0)
(2.99848 0.00205324 0)
(2.99601 0.00517235 0)
(3 5.45271e-14 0)
(3 2.50098e-13 0)
(3 9.4703e-13 0)
(3 2.75329e-12 0)
(3 7.66752e-12 0)
(3 2.12101e-11 0)
(3 5.61265e-11 0)
(3 1.54064e-10 0)
(3 4.00188e-10 0)
(3 1.09875e-09 0)
(3 2.83081e-09 0)
(3 7.71392e-09 0)
(3 1.98384e-08 0)
(3 5.37006e-08 0)
(3 1.37522e-07 0)
(3 3.70787e-07 0)
(3 9.4267e-07 0)
(3 2.53192e-06 0)
(3 6.3949e-06 0)
(2.99999 1.70749e-05 0)
(2.99997 4.29617e-05 0)
(2.99992 0.000114092 0)
(2.9998 0.000287074 0)
(2.99947 0.00075742 0)
(2.99866 0.0019174 0)
(3 2.95334e-14 0)
(3 1.0858e-13 0)
(3 3.07977e-13 0)
(3 9.08905e-13 0)
(3 2.41856e-12 0)
(3 6.54815e-12 0)
(3 1.79055e-11 0)
(3 4.71291e-11 0)
(3 1.2978e-10 0)
(3 3.37916e-10 0)
(3 9.3076e-10 0)
(3 2.40666e-09 0)
(3 6.58982e-09 0)
(3 1.69897e-08 0)
(3 4.62165e-08 0)
(3 1.18796e-07 0)
(3 3.21038e-07 0)
(3 8.2131e-07 0)
(3 2.20732e-06 0)
(3 5.60849e-06 0)
(2.99999 1.50214e-05 0)
(2.99998 3.79027e-05 0)
(2.99994 0.000101394 0)
(2.99983 0.000254515 0)
(2.99956 0.000679678 0)
(3 1.19017e-14 0)
(3 3.73875e-14 0)
(3 8.75576e-14 0)
(3 2.69153e-13 0)
(3 6.83138e-13 0)
(3 1.91285e-12 0)
(3 5.11653e-12 0)
(3 1.40491e-11 0)
(3 3.71296e-11 0)
(3 1.0301e-10 0)
(3 2.68616e-10 0)
(3 7.43411e-10 0)
(3 1.92958e-09 0)
(3 5.28522e-09 0)
(3 1.37733e-08 0)
(3 3.71137e-08 0)
(3 9.72718e-08 0)
(3 2.58923e-07 0)
(3 6.77649e-07 0)
(3 1.79227e-06 0)
(3 4.66499e-06 0)
(2.99999 1.22875e-05 0)
(2.99998 3.17676e-05 0)
(2.99995 8.36055e-05 0)
(2.99987 0.000214357 0)
(3 -3.38095e-14 0)
(3 -4.681e-14 0)
(3 -4.71242e-14 0)
(3 3.20469e-16 0)
(3 1.24688e-13 0)
(3 4.32917e-13 0)
(3 1.33799e-12 0)
(3 3.70957e-12 0)
(3 1.04287e-11 0)
(3 2.75684e-11 0)
(3 7.71003e-11 0)
(3 2.00673e-10 0)
(3 5.56638e-10 0)
(3 1.45493e-09 0)
(3 3.96107e-09 0)
(3 1.04691e-08 0)
(3 2.79307e-08 0)
(3 7.44512e-08 0)
(3 1.95237e-07 0)
(3 5.23566e-07 0)
(3 1.35643e-06 0)
(3 3.63164e-06 0)
(2.99999 9.35779e-06 0)
(2.99999 2.49087e-05 0)
(2.99997 6.399e-05 0)
(3 1.62641e-15 0)
(3 1.68686e-14 0)
(3 3.91462e-14 0)
(3 5.27875e-14 0)
(3 8.64186e-14 0)
(3 1.45592e-13 0)
(3 3.54814e-13 0)
(3 9.70256e-13 0)
(3 2.6236e-12 0)
(3 7.37243e-12 0)
(3 1.9279e-11 0)
(3 5.41919e-11 0)
(3 1.41419e-10 0)
(3 3.90922e-10 0)
(3 1.03197e-09 0)
(3 2.78751e-09 0)
(3 7.44646e-09 0)
(3 1.97052e-08 0)
(3 5.31757e-08 0)
(3 1.38341e-07 0)
(3 3.74794e-07 0)
(3 9.64032e-07 0)
(3 2.61405e-06 0)
(3 6.67281e-06 0)
(2.99999 1.80297e-05 0)
(3 1.94567e-14 0)
(3 1.66934e-14 0)
(3 4.19481e-15 0)
(3 -1.73885e-14 0)
(3 -2.24184e-14 0)
(3 -1.24363e-14 0)
(3 2.83874e-14 0)
(3 1.30226e-13 0)
(3 4.96603e-13 0)
(3 1.62085e-12 0)
(3 4.73682e-12 0)
(3 1.27469e-11 0)
(3 3.58448e-11 0)
(3 9.37671e-11 0)
(3 2.59169e-10 0)
(3 6.85478e-10 0)
(3 1.84704e-09 0)
(3 4.95618e-09 0)
(3 1.30652e-08 0)
(3 3.54166e-08 0)
(3 9.17329e-08 0)
(3 2.50121e-07 0)
(3 6.40849e-07 0)
(3 1.7435e-06 0)
(3 4.45005e-06 0)
(3 1.55589e-14 0)
(3 1.23274e-14 0)
(3 1.26865e-14 0)
(3 2.23521e-14 0)
(3 4.18414e-14 0)
(3 7.04535e-14 0)
(3 1.02301e-13 0)
(3 1.58793e-13 0)
(3 2.67575e-13 0)
(3 5.22577e-13 0)
(3 1.2794e-12 0)
(3 3.1965e-12 0)
(3 8.20748e-12 0)
(3 2.27029e-11 0)
(3 5.88098e-11 0)
(3 1.62141e-10 0)
(3 4.29394e-10 0)
(3 1.149e-09 0)
(3 3.10691e-09 0)
(3 8.11458e-09 0)
(3 2.21438e-08 0)
(3 5.69649e-08 0)
(3 1.55797e-07 0)
(3 3.98348e-07 0)
(3 1.07982e-06 0)
(3 1.77714e-14 0)
(3 5.47331e-14 0)
(3 8.06513e-14 0)
(3 9.65862e-14 0)
(3 7.93166e-14 0)
(3 6.30446e-14 0)
(3 6.8357e-14 0)
(3 8.2911e-14 0)
(3 9.12422e-14 0)
(3 1.33542e-13 0)
(3 2.62615e-13 0)
(3 6.58086e-13 0)
(3 1.83455e-12 0)
(3 4.76289e-12 0)
(3 1.33838e-11 0)
(3 3.47948e-11 0)
(3 9.57944e-11 0)
(3 2.53408e-10 0)
(3 6.76168e-10 0)
(3 1.82472e-09 0)
(3 4.7506e-09 0)
(3 1.29383e-08 0)
(3 3.31811e-08 0)
(3 9.05155e-08 0)
(3 2.31062e-07 0)
(3 -1.88764e-14 0)
(3 -7.89161e-15 0)
(3 1.767e-15 0)
(3 7.24634e-15 0)
(3 1.01913e-14 0)
(3 2.48632e-14 0)
(3 5.21079e-14 0)
(3 9.28634e-14 0)
(3 1.38765e-13 0)
(3 1.52555e-13 0)
(3 1.72564e-13 0)
(3 2.57194e-13 0)
(3 4.65117e-13 0)
(3 1.09347e-12 0)
(3 2.73969e-12 0)
(3 7.51158e-12 0)
(3 1.95245e-11 0)
(3 5.41232e-11 0)
(3 1.39724e-10 0)
(3 3.80966e-10 0)
(3 1.00098e-09 0)
(3 2.63972e-09 0)
(3 7.0886e-09 0)
(3 1.81863e-08 0)
(3 4.93215e-08 0)
(3 7.88607e-15 0)
(3 -4.01826e-15 0)
(3 -3.36465e-15 0)
(3 -7.10648e-15 0)
(3 2.27967e-15 0)
(3 4.32837e-17 0)
(3 -1.23427e-14 0)
(3 5.13005e-16 0)
(3 8.40709e-15 0)
(3 2.21797e-14 0)
(3 3.85532e-14 0)
(3 6.06111e-14 0)
(3 1.35588e-13 0)
(3 2.68431e-13 0)
(3 6.43601e-13 0)
(3 1.60427e-12 0)
(3 4.13652e-12 0)
(3 1.06293e-11 0)
(3 2.8933e-11 0)
(3 7.41363e-11 0)
(3 2.00914e-10 0)
(3 5.24245e-10 0)
(3 1.3764e-09 0)
(3 3.67164e-09 0)
(3 9.36926e-09 0)
(3 2.29051e-14 0)
(3 3.17473e-14 0)
(3 3.27804e-14 0)
(3 1.15179e-14 0)
(3 2.50297e-15 0)
(3 -1.4965e-14 0)
(3 -3.96804e-14 0)
(3 -5.25793e-14 0)
(3 -7.35368e-14 0)
(3 -6.50908e-14 0)
(3 -4.50805e-14 0)
(3 -1.34539e-14 0)
(3 1.31511e-14 0)
(3 7.01926e-14 0)
(3 1.75949e-13 0)
(3 3.90072e-13 0)
(3 8.80425e-13 0)
(3 2.19194e-12 0)
(3 5.43176e-12 0)
(3 1.47195e-11 0)
(3 3.73397e-11 0)
(3 1.0039e-10 0)
(3 2.60463e-10 0)
(3 6.78483e-10 0)
(3 1.79707e-09 0)
(3 6.99357e-15 0)
(3 1.98064e-14 0)
(3 1.96168e-14 0)
(3 2.48699e-14 0)
(3 3.65492e-14 0)
(3 5.4975e-14 0)
(3 8.50523e-14 0)
(3 7.73198e-14 0)
(3 7.86523e-14 0)
(3 9.3874e-14 0)
(3 9.34765e-14 0)
(3 1.03797e-13 0)
(3 9.71017e-14 0)
(3 8.79618e-14 0)
(3 1.04176e-13 0)
(3 1.3692e-13 0)
(3 2.25454e-13 0)
(3 4.33575e-13 0)
(3 1.06464e-12 0)
(3 2.64601e-12 0)
(3 7.03728e-12 0)
(3 1.80535e-11 0)
(3 4.72783e-11 0)
(3 1.23139e-10 0)
(3 3.16099e-10 0)
(3 -1.73268e-14 0)
(3 -2.71215e-14 0)
(3 -3.2156e-14 0)
(3 -1.62165e-14 0)
(3 -8.41682e-15 0)
(3 8.55653e-15 0)
(3 2.86287e-14 0)
(3 3.46324e-14 0)
(3 4.08665e-14 0)
(3 3.33723e-14 0)
(3 2.51263e-14 0)
(3 2.28739e-14 0)
(3 3.93113e-14 0)
(3 5.77976e-14 0)
(3 6.30812e-14 0)
(3 6.82457e-14 0)
(3 9.44317e-14 0)
(3 1.49895e-13 0)
(3 2.68249e-13 0)
(3 5.5763e-13 0)
(3 1.30995e-12 0)
(3 3.32053e-12 0)
(3 8.17255e-12 0)
(3 2.15142e-11 0)
(3 5.48681e-11 0)
(3 -8.30785e-15 0)
(3 -7.87689e-15 0)
(3 -2.26231e-15 0)
(3 1.44949e-14 0)
(3 1.47085e-14 0)
(3 6.77526e-15 0)
(3 -6.30219e-15 0)
(3 1.09356e-14 0)
(3 2.97455e-14 0)
(3 3.46924e-14 0)
(3 4.52457e-14 0)
(3 3.51899e-14 0)
(3 4.05613e-14 0)
(3 4.22103e-14 0)
(3 4.18815e-14 0)
(3 3.42751e-14 0)
(3 5.39008e-14 0)
(3 8.13296e-14 0)
(3 1.27382e-13 0)
(3 1.91608e-13 0)
(3 3.4623e-13 0)
(3 6.77053e-13 0)
(3 1.54473e-12 0)
(3 3.74202e-12 0)
(3 9.43063e-12 0)
(3 -3.51206e-15 0)
(3 -1.12041e-14 0)
(3 -5.91654e-15 0)
(3 1.83747e-15 0)
(3 -2.21612e-15 0)
(3 1.91338e-15 0)
(3 -9.92773e-15 0)
(3 -4.53665e-15 0)
(3 3.1142e-14 0)
(3 5.67139e-14 0)
(3 8.19e-14 0)
(3 1.0497e-13 0)
(3 1.24506e-13 0)
(3 1.30496e-13 0)
(3 1.41381e-13 0)
(3 1.62648e-13 0)
(3 1.67111e-13 0)
(3 1.57358e-13 0)
(3 1.62451e-13 0)
(3 1.59218e-13 0)
(3 1.5018e-13 0)
(3 2.09205e-13 0)
(3 3.47098e-13 0)
(3 7.44604e-13 0)
(3 1.64779e-12 0)
(3 -3.17272e-14 0)
(3 -5.62071e-14 0)
(3 -7.71682e-14 0)
(3 -9.9226e-14 0)
(3 -1.10081e-13 0)
(3 -1.08721e-13 0)
(3 -9.73974e-14 0)
(3 -8.09659e-14 0)
(3 -5.21819e-14 0)
(3 -2.04162e-14 0)
(3 6.8241e-15 0)
(3 4.33238e-14 0)
(3 7.19643e-14 0)
(3 9.53974e-14 0)
(3 1.17158e-13 0)
(3 1.52662e-13 0)
(3 1.68362e-13 0)
(3 1.56928e-13 0)
(3 1.38381e-13 0)
(3 9.98571e-14 0)
(3 7.60843e-14 0)
(3 5.1965e-14 0)
(3 5.74134e-14 0)
(3 8.7717e-14 0)
(3 2.17009e-13 0)
(3 2.01055e-14 0)
(3 4.30026e-14 0)
(3 5.61678e-14 0)
(3 7.58155e-14 0)
(3 8.49753e-14 0)
(3 6.2485e-14 0)
(3 4.73511e-14 0)
(3 3.71127e-14 0)
(3 1.11964e-14 0)
(3 1.0389e-15 0)
(3 7.17537e-15 0)
(3 2.03713e-14 0)
(3 3.43024e-14 0)
(3 6.24849e-14 0)
(3 9.87392e-14 0)
(3 1.03715e-13 0)
(3 1.21926e-13 0)
(3 1.38497e-13 0)
(3 1.4148e-13 0)
(3 1.42144e-13 0)
(3 1.52195e-13 0)
(3 1.33801e-13 0)
(3 1.14796e-13 0)
(3 9.84584e-14 0)
(3 8.53139e-14 0)
(3 4.41513e-14 0)
(3 8.6106e-14 0)
(3 1.27735e-13 0)
(3 1.71634e-13 0)
(3 1.94016e-13 0)
(3 1.87002e-13 0)
(3 1.5299e-13 0)
(3 1.24953e-13 0)
(3 9.04822e-14 0)
(3 4.98487e-14 0)
(3 3.68424e-14 0)
(3 3.98935e-14 0)
(3 4.20532e-14 0)
(3 5.50599e-14 0)
(3 7.15697e-14 0)
(3 7.34335e-14 0)
(3 8.57672e-14 0)
(3 1.04515e-13 0)
(3 1.1789e-13 0)
(3 1.45619e-13 0)
(3 1.59193e-13 0)
(3 1.47943e-13 0)
(3 1.3996e-13 0)
(3 1.33599e-13 0)
(3 1.31297e-13 0)
(1.39933 1.19511 0)
(1.87005 0.977782 0)
(2.10184 0.699356 0)
(2.16815 0.409799 0)
(2.14348 0.173733 0)
(2.08925 0.0103111 0)
(2.02913 -0.0484694 0)
(2.001 -0.0352038 0)
(2.00656 -0.00597771 0)
(2.02124 0.0210929 0)
(2.04172 0.0393243 0)
(2.07034 0.0443751 0)
(2.09742 0.0359881 0)
(2.11774 0.0215587 0)
(2.1355 0.0106268 0)
(2.15313 0.00542151 0)
(2.17199 0.00449922 0)
(2.19256 0.00574265 0)
(2.21464 0.00745748 0)
(2.23769 0.00861147 0)
(2.26104 0.00881872 0)
(2.2841 0.00818606 0)
(2.30645 0.00707392 0)
(2.32782 0.00586526 0)
(2.3481 0.00484191 0)
(2.36725 0.00414125 0)
(2.38529 0.00378439 0)
(2.40226 0.00371 0)
(2.41821 0.00381998 0)
(2.43323 0.00403722 0)
(2.44741 0.00425129 0)
(2.46066 0.00434203 0)
(2.47297 0.00437876 0)
(2.48469 0.0043125 0)
(2.49574 0.00385149 0)
(2.50564 0.00309734 0)
(2.5146 0.00236887 0)
(2.52329 0.00167871 0)
(2.53208 0.000861905 0)
(2.54082 -0.000154969 0)
(2.54917 -0.00131977 0)
(2.55708 -0.00252097 0)
(2.56486 -0.00352634 0)
(2.57376 -0.00434965 0)
(2.58446 -0.00574758 0)
(2.59633 -0.00706733 0)
(2.60907 -0.00786628 0)
(2.62271 -0.0084623 0)
(2.63724 -0.00891774 0)
(2.65259 -0.00923152 0)
(2.66863 -0.00940102 0)
(2.68523 -0.00945003 0)
(2.70221 -0.0094075 0)
(2.71939 -0.009298 0)
(2.73659 -0.00914064 0)
(2.75363 -0.00894917 0)
(2.77039 -0.00873177 0)
(2.78674 -0.00849046 0)
(2.80262 -0.00822218 0)
(2.81802 -0.0079216 0)
(2.83296 -0.00758465 0)
(2.8475 -0.00721203 0)
(2.86171 -0.0068086 0)
(2.87565 -0.00637731 0)
(2.88939 -0.00592113 0)
(2.90293 -0.00544838 0)
(2.91623 -0.00496861 0)
(2.9292 -0.00449068 0)
(2.94172 -0.00402287 0)
(2.9536 -0.0035712 0)
(2.96463 -0.00313824 0)
(2.97462 -0.00272551 0)
(2.98339 -0.00233838 0)
(2.99084 -0.00198352 0)
(2.99694 -0.00166175 0)
(3.0018 -0.00136863 0)
(3.00561 -0.00110615 0)
(3.00858 -0.000881383 0)
(3.01083 -0.00069725 0)
(3.01237 -0.000547119 0)
(3.01302 -0.000417026 0)
(3.01273 -0.000255198 0)
(3.0117 -0.000151307 0)
(3.01018 -0.000107315 0)
(3.00845 -8.55623e-05 0)
(3.00676 -6.83459e-05 0)
(3.00523 -4.81546e-05 0)
(3.00393 -2.47868e-05 0)
(3.00287 -1.18703e-05 0)
(3.00204 -1.64564e-05 0)
(3.0014 -1.94182e-05 0)
(3.00094 -1.66195e-05 0)
(3.00062 -1.29446e-05 0)
(3.0004 -9.67784e-06 0)
(3.00025 -7.11099e-06 0)
(3.00016 -5.18973e-06 0)
(3.00009 -3.76993e-06 0)
(3.00005 -2.7492e-06 0)
(3.00003 -1.92326e-06 0)
(3.00001 -1.14077e-06 0)
(1.48882 1.09831 0)
(1.85372 0.797965 0)
(2.06811 0.466505 0)
(2.18377 0.170455 0)
(2.25656 -0.0421454 0)
(2.31239 -0.164668 0)
(2.3502 -0.195938 0)
(2.36734 -0.163384 0)
(2.37367 -0.115673 0)
(2.37621 -0.0720108 0)
(2.37819 -0.0367922 0)
(2.38101 -0.0175617 0)
(2.38763 -0.0127454 0)
(2.40096 -0.0162423 0)
(2.41856 -0.0229883 0)
(2.4362 -0.0296621 0)
(2.4527 -0.0325997 0)
(2.46831 -0.0321484 0)
(2.48352 -0.0297401 0)
(2.49868 -0.027064 0)
(2.51393 -0.0249584 0)
(2.52922 -0.0236421 0)
(2.54433 -0.0229724 0)
(2.55901 -0.0226927 0)
(2.57303 -0.0225455 0)
(2.58624 -0.0223487 0)
(2.59862 -0.0219991 0)
(2.61019 -0.0214665 0)
(2.62103 -0.0207666 0)
(2.63125 -0.0199161 0)
(2.6409 -0.018996 0)
(2.65004 -0.0181131 0)
(2.6587 -0.0171931 0)
(2.66687 -0.016285 0)
(2.67451 -0.0157015 0)
(2.68161 -0.0153327 0)
(2.68818 -0.0149441 0)
(2.69435 -0.0146445 0)
(2.70026 -0.0144834 0)
(2.70588 -0.0145027 0)
(2.71097 -0.0147293 0)
(2.7155 -0.0150905 0)
(2.71956 -0.0154205 0)
(2.72341 -0.015781 0)
(2.72821 -0.0167661 0)
(2.73452 -0.0179129 0)
(2.7415 -0.0188697 0)
(2.74887 -0.0197707 0)
(2.75696 -0.0206165 0)
(2.76586 -0.0213663 0)
(2.77555 -0.021983 0)
(2.78593 -0.0224515 0)
(2.79688 -0.0227686 0)
(2.80824 -0.0229357 0)
(2.81985 -0.0229578 0)
(2.83155 -0.0228405 0)
(2.84318 -0.0225885 0)
(2.85461 -0.022203 0)
(2.86579 -0.0216827 0)
(2.87666 -0.021027 0)
(2.88726 -0.0202406 0)
(2.89762 -0.0193351 0)
(2.90782 -0.0183286 0)
(2.91794 -0.0172421 0)
(2.92801 -0.0160958 0)
(2.93805 -0.0149068 0)
(2.94801 -0.0136884 0)
(2.95781 -0.0124534 0)
(2.96734 -0.0112165 0)
(2.9764 -0.00999435 0)
(2.98481 -0.00880185 0)
(2.99237 -0.00765268 0)
(2.99889 -0.00656398 0)
(3.00427 -0.00555398 0)
(3.00849 -0.00463162 0)
(3.01166 -0.00379522 0)
(3.01395 -0.00304385 0)
(3.01556 -0.00238195 0)
(3.01661 -0.00181272 0)
(3.01712 -0.00133099 0)
(3.01693 -0.000921789 0)
(3.01591 -0.000544507 0)
(3.01419 -0.000313262 0)
(3.0121 -0.000194404 0)