/*--------------------------------*- C++ -*----------------------------------*\
  =========                 |
  \\      /  F ield         | OpenFOAM: The Open Source CFD Toolbox
   \\    /   O peration     | Website:  https://openfoam.org
    \\  /    A nd           | Version:  10
     \\/     M anipulation  |
\*---------------------------------------------------------------------------*/
FoamFile
{
    format      ascii;
    class       surfaceScalarField;
    location    "9.5";
    object      phi;
}
// * * * * * * * * * * * * * * * * * * * * * * * * * * * * * * * * * * * * * //

dimensions      [1 0 -1 0 0 0 0];

internalField   nonuniform List<scalar> 
10325
(
0.00840003
4.89462e-11
0.0084
7.78816e-10
0.00840007
1.21278e-09
0.00839991
7.02151e-09
0.00840031
1.05322e-08
0.00839903
3.73876e-08
0.00840223
7.46324e-08
0.00839399
2.04936e-07
0.0084108
4.97919e-07
0.00837981
1.19915e-06
0.00841505
3.22021e-06
0.0083687
9.24668e-06
0.00836607
2.96752e-05
0.00822443
0.000124905
0.00763205
0.000587536
0.00702189
0.000610887
0.00641429
0.000608188
0.00578401
0.000630449
0.00512117
0.000662948
0.00441084
0.000710321
0.00364279
0.000767893
0.00281716
0.000825471
0.0019379
0.000879001
0.00100237
0.000935294
0.00100212
0.00840003
1.17459e-10
0.00840002
9.42404e-10
0.00840002
3.18412e-09
0.00840002
9.32007e-09
0.00840005
2.39959e-08
0.00839958
6.95744e-08
0.00840088
1.34036e-07
0.00839631
4.73111e-07
0.00840531
7.68416e-07
0.00838788
2.92935e-06
0.00840442
5.75938e-06
0.00837663
1.96905e-05
0.00836048
6.06042e-05
0.00822343
0.000250792
0.00762638
0.0011781
0.00701197
0.0012259
0.00641331
0.00120747
0.00578816
0.00125577
0.00512771
0.00132352
0.0044107
0.00142731
0.00363476
0.00154368
0.00280049
0.00165957
0.00190906
0.00177017
0.000967906
0.0018762
0.00196977
0.00840003
9.42352e-11
0.0084
2.14572e-09
0.00840013
2.89216e-09
0.00839979
2.0869e-08
0.00840063
2.17632e-08
0.00839864
1.31709e-07
0.0084033
1.46618e-07
0.0083928
7.78194e-07
0.00841384
1.09746e-06
0.0083754
4.3074e-06
0.00842243
8.99709e-06
0.00835912
2.91484e-05
0.00836832
9.14832e-05
0.00822587
0.000370014
0.00764426
0.00175736
0.00702775
0.00184353
0.00643718
0.00179867
0.00582028
0.00187284
0.00516485
0.00197904
0.00445037
0.00214183
0.00367219
0.0023217
0.00283191
0.00249963
0.00192955
0.00267226
0.000975619
0.00282986
0.00294511
0.00840003
5.16078e-10
0.00840004
1.35396e-09
0.00840001
9.44904e-09
0.00840004
1.31833e-08
0.00839983
6.86214e-08
0.00840043
8.30384e-08
0.00839825
4.37997e-07
0.00840326
5.1991e-07
0.00839135
2.57014e-06
0.00840939
3.92984e-06
0.00838197
1.45649e-05
0.00839422
3.5652e-05
0.00834638
0.000123291
0.00824372
0.000477917
0.00767908
0.00231402
0.00706575
0.00245767
0.00648628
0.00237866
0.00588099
0.00247828
0.00523552
0.00262468
0.00452955
0.00284776
0.00375654
0.00309454
0.0029134
0.0033427
0.00199781
0.00358761
0.00101628
0.0038111
0.00396113
0.00840003
3.50192e-10
0.00840002
2.49159e-09
0.00840004
7.9604e-09
0.00839996
2.48697e-08
0.0084002
5.88161e-08
0.00839923
1.71076e-07
0.00840179
3.56177e-07
0.00839486
1.08537e-06
0.00840913
2.18784e-06
0.00838189
6.70999e-06
0.00841375
1.54457e-05
0.00836926
4.73098e-05
0.00836943
0.000148684
0.0082529
0.000577643
0.007733
0.00282851
0.00712599
0.00306577
0.006558
0.00294751
0.00596766
0.00306878
0.00533754
0.00325493
0.0046466
0.00353863
0.00388296
0.00385792
0.0030395
0.00418586
0.00210652
0.00452015
0.00108425
0.00483314
0.0050451
0.00840003
3.59168e-10
0.0084
3.45092e-09
0.00840012
8.34361e-09
0.00839982
3.2991e-08
0.00840053
6.3839e-08
0.00839886
2.08629e-07
0.00840271
4.32755e-07
0.00839406
1.23009e-06
0.00841111
2.85962e-06
0.00837921
7.41228e-06
0.00841915
1.92841e-05
0.00836234
5.474e-05
0.0083744
0.000174998
0.00826871
0.00066077
0.00782453
0.00326861
0.00722275
0.00366943
0.00666047
0.00351074
0.00608678
0.0036426
0.0054769
0.00386488
0.00480722
0.00420836
0.00405925
0.00460595
0.00321895
0.00502614
0.00226791
0.00547088
0.00118939
0.00591123
0.00623406
0.00840003
6.73692e-10
0.00840005
2.73286e-09
0.00839995
1.31868e-08
0.00840021
2.71443e-08
0.00839957
9.62035e-08
0.00840116
1.843e-07
0.00839744
5.98738e-07
0.00840609
1.18328e-06
0.00838728
3.59356e-06
0.00842032
7.9435e-06
0.00836682
2.26177e-05
0.00841647
6.0885e-05
0.0083479
0.000196563
0.00830694
0.000722722
0.0079957
0.00356555
0.00737668
0.00428995
0.00681297
0.00407543
0.00625337
0.00420239
0.00566589
0.0044525
0.00502376
0.00485042
0.00429782
0.00533161
0.00346669
0.00585697
0.00250016
0.00643703
0.00135459
0.00705638
0.00758817
0.00840003
4.06693e-10
0.00840002
4.08646e-09
0.00840003
1.01521e-08
0.00839999
3.96351e-08
0.00840012
7.743e-08
0.00839955
2.61325e-07
0.00840109
4.99312e-07
0.00839649
1.62101e-06
0.00840612
3.20487e-06
0.0083876
9.83636e-06
0.00841038
2.25046e-05
0.00838065
6.74576e-05
0.00838958
0.000204788
0.00835234
0.000747042
0.00829673
0.00361395
0.00764969
0.00493918
0.00704906
0.00467754
0.0064911
0.00476061
0.00592585
0.00501791
0.00531091
0.00546537
0.0046156
0.00602668
0.00380549
0.00666679
0.00284015
0.00740198
0.00162665
0.00826944
0.00921428
0.00840003
6.39134e-10
0.00840004
3.14681e-09
0.0084
1.33325e-08
0.00840008
3.09658e-08
0.00839983
9.73658e-08
0.00840055
2.14233e-07
0.00839855
6.06122e-07
0.00840367
1.37231e-06
0.00839197
3.70226e-06
0.00841474
8.9261e-06
0.0083801
2.37876e-05
0.00841976
6.45295e-05
0.0083922
0.00020046
0.00844712
0.000706953
0.00879238
0.00325396
0.00811167
0.0056225
0.00741125
0.00537932
0.00684772
0.00532453
0.00627987
0.00558594
0.00569574
0.0060496
0.00503336
0.00668899
0.00428934
0.00741052
0.00338454
0.00830635
0.0021036
0.00954971
0.0113171
0.00840003
5.2893e-10
0.00840001
2.95423e-09
0.00840009
1.10403e-08
0.00839992
2.8968e-08
0.00840032
8.16981e-08
0.00839951
1.91287e-07
0.00840158
5.1562e-07
0.0083975
1.17733e-06
0.00840669
3.18629e-06
0.00839182
7.33611e-06
0.00842246
2.00714e-05
0.00839711
5.16025e-05
0.00847756
0.000156211
0.00863919
0.000523555
0.00963076
0.00225486
0.00890346
0.00635209
0.00795256
0.00633165
0.00738278
0.00589504
0.00678238
0.00618665
0.00621733
0.00661481
0.00562614
0.00728008
0.00498225
0.00805414
0.00414862
0.00913945
0.00293575
0.0107618
0.0142518
0.00840003
4.12998e-10
0.00840002
2.82371e-09
0.00840006
8.88851e-09
0.00839995
2.72802e-08
0.00840027
6.75341e-08
0.00839946
1.74017e-07
0.00840175
4.37191e-07
0.00839674
1.04474e-06
0.00840948
2.70903e-06
0.00838591
6.36289e-06
0.00843011
1.68832e-05
0.00838479
4.33547e-05
0.00846268
0.000126855
0.00854056
0.000416047
0.00907847
0.00172039
0.00897743
0.00644932
0.00851749
0.00679043
0.0078558
0.00655712
0.00732896
0.00671352
0.0068226
0.00712107
0.00636566
0.00773676
0.00587351
0.00854582
0.00543489
0.00957732
0.00538119
0.0108142
0.0113626
0.00826829
0.00840003
3.31902e-10
0.00840003
2.6685e-09
0.00840001
7.82318e-09
0.00840007
2.64227e-08
0.00839999
5.79017e-08
0.00840004
1.76222e-07
0.0084002
3.60385e-07
0.00839922
1.07976e-06
0.00840204
2.21814e-06
0.00839653
6.51661e-06
0.00840698
1.44725e-05
0.00840121
4.12591e-05
0.00841903
0.000112864
0.00845807
0.000371455
0.00872896
0.00144917
0.00885221
0.00631881
0.00858903
0.00705253
0.00811705
0.00702854
0.00771591
0.00711442
0.00732082
0.00751593
0.00697265
0.00808449
0.00669545
0.00882224
0.00658548
0.00968611
0.00696368
0.0104344
0.0104691
0.00785341
0.00840003
4.40136e-10
0.00840004
2.09594e-09
0.00840001
9.01954e-09
0.00840008
2.04758e-08
0.00839988
6.63826e-08
0.00840044
1.39068e-07
0.00839899
4.13147e-07
0.00840284
8.78562e-07
0.00839414
2.48488e-06
0.00841413
5.549e-06
0.00837834
1.52146e-05
0.00843208
3.76423e-05
0.00838123
0.000109015
0.00845194
0.000342989
0.00858951
0.00128591
0.00890039
0.00600523
0.00862432
0.00732841
0.00829338
0.00735955
0.00801003
0.00739711
0.00775097
0.00777417
0.00752167
0.00831311
0.00740571
0.00893716
0.00755132
0.00953881
0.00799416
0.00998914
0.00993659
0.00852302
0.00840003
3.41444e-10
0.00840002
2.38959e-09
0.00840004
7.46883e-09
0.0084
2.32032e-08
0.00840013
5.59801e-08
0.00839975
1.50513e-07
0.00840082
3.60316e-07
0.00839808
9.15615e-07
0.00840509
2.26357e-06
0.00839041
5.61312e-06
0.00841874
1.43437e-05
0.00837882
3.66909e-05
0.00842971
0.000102628
0.00841623
0.000319005
0.00856716
0.00115132
0.00922239
0.00533801
0.00892594
0.00762495
0.00858695
0.00769805
0.00832823
0.00765608
0.00815472
0.00794683
0.00804522
0.00842086
0.00806212
0.00891892
0.00824937
0.00934974
0.0086293
0.00960686
0.00949109
0.00906964
0.00840003
2.97389e-10
0.00840003
2.09534e-09
0.00840002
6.75913e-09
0.00840007
2.04827e-08
0.00839997
5.02007e-08
0.00840017
1.38993e-07
0.00839993
3.11905e-07
0.00840002
8.81488e-07
0.00840078
1.90126e-06
0.00839885
5.46276e-06
0.00840437
1.21307e-05
0.00840371
3.44066e-05
0.00841622
8.85957e-05
0.00846305
0.000274805
0.00866414
0.00094868
0.0099453
0.00404642
0.00947848
0.00809141
0.00906551
0.00811061
0.00874038
0.00798042
0.0085675
0.00811915
0.00851674
0.00847047
0.00857896
0.00885516
0.00877389
0.00915145
0.00909533
0.00928256
0.00911606
0.00946574
0.00840003
2.90806e-10
0.00840003
1.57508e-09
0.00840004
6.11406e-09
0.00840002
1.53682e-08
0.00840005
4.51148e-08
0.00840006
1.01742e-07
0.0084
2.82942e-07
0.00840065
6.24825e-07
0.0083992
1.70598e-06
0.0084049
3.84679e-06
0.00839756
1.02748e-05
0.00842202
2.46285e-05
0.00842736
6.684e-05
0.00852515
0.000189157
0.00884322
0.000621076
0.0104039
0.00248552
0.0101289
0.00836085
0.00976356
0.0084747
0.0092537
0.00848967
0.00902245
0.00834939
0.0089627
0.00852759
0.00902208
0.00879395
0.00919297
0.00897792
0.00945992
0.00901114
0.00881418
0.00975654
0.00840003
1.99794e-10
0.00840003
1.48388e-09
0.00840005
4.46352e-09
0.0084
1.44745e-08
0.00840013
3.34938e-08
0.00839985
9.35242e-08
0.00840064
2.13904e-07
0.00839908
5.62889e-07
0.00840334
1.33064e-06
0.00839534
3.33413e-06
0.00841503
8.28053e-06
0.00838787
2.05347e-05
0.00844501
5.39254e-05
0.0084325
0.000150393
0.00861432
0.000479553
0.00924405
0.00183019
0.0102146
0.00738766
0.00998555
0.00870217
0.00968085
0.00879261
0.00942961
0.00859903
0.00935561
0.00859988
0.00940488
0.00874148
0.0095425
0.00883621
0.00975376
0.00879457
0.00856373
0.0099969
0.00840003
1.93472e-10
0.00840003
1.15797e-09
0.00840002
4.13912e-09
0.00840006
1.13544e-08
0.00839997
3.06519e-08
0.00840022
7.56592e-08
0.00839968
1.92541e-07
0.00840118
4.64299e-07
0.00839816
1.17899e-06
0.00840626
2.84152e-06
0.00839127
7.24206e-06
0.00842358
1.7801e-05
0.00838617
4.66955e-05
0.0084602
0.000127428
0.00849919
0.000395366
0.00892402
0.00142616
0.0102181
0.00607884
0.0101648
0.00875367
0.00997205
0.00898389
0.00975265
0.00881696
0.00968347
0.00866619
0.00972608
0.00869521
0.00983905
0.00871834
0.0100036
0.00862308
0.00835881
0.0102001
0.00840003
1.67651e-10
0.00840003
9.43502e-10
0.00840002
3.57801e-09
0.00840006
9.19529e-09
0.00839999
2.63277e-08
0.00840018
6.18044e-08
0.00839982
1.63475e-07
0.0084008
3.88976e-07
0.00839906
9.76439e-07
0.00840383
2.422e-06
0.00839568
5.874e-06
0.00841683
1.52033e-05
0.00839448
3.77075e-05
0.00845985
0.000103347
0.00850857
0.000304986
0.00891007
0.00104599
0.010803
0.00417006
0.0105917
0.00896217
0.0104538
0.00912016
0.0101956
0.009073
0.010032
0.00882652
0.0100236
0.0086984
0.0101054
0.00862989
0.0102355
0.00848444
0.00820156
0.010383
0.00840003
1.12495e-10
0.00840003
7.88053e-10
0.00840004
2.51633e-09
0.00840002
7.73438e-09
0.00840008
1.87443e-08
0.00839996
5.08087e-08
0.00840033
1.17229e-07
0.00839966
3.10032e-07
0.00840173
7.15135e-07
0.0083983
1.85854e-06
0.00840895
4.36298e-06
0.00839416
1.12084e-05
0.00843724
2.73985e-05
0.00842126
7.25673e-05
0.00856953
0.000202913
0.00893502
0.000650714
0.0106275
0.00248145
0.0111515
0.00842948
0.0109158
0.00935274
0.0106243
0.00936109
0.0104021
0.0090442
0.01033
0.00876395
0.0103655
0.00858537
0.0104729
0.00836433
0.00809803
0.0105629
0.00840003
1.02669e-10
0.00840003
5.81617e-10
0.00840003
2.15646e-09
0.00840003
5.67359e-09
0.00840005
1.58958e-08
0.00840002
3.73979e-08
0.00840009
1.00025e-07
0.00840012
2.27934e-07
0.00840009
6.04534e-07
0.00840114
1.37964e-06
0.00839966
3.6377e-06
0.00840712
8.4667e-06
0.00840363
2.2153e-05
0.00843195
5.50831e-05
0.00847066
0.000154053
0.0086565
0.000471673
0.00939445
0.00173412
0.011073
0.00674006
0.0111129
0.00930721
0.0109528
0.00951581
0.0107104
0.00928094
0.0106253
0.00883943
0.0106325
0.00856672
0.0106934
0.00828948
0.00801289
0.0107613
0.00840003
6.82033e-11
0.00840003
5.02766e-10
0.00840003
1.53179e-09
0.00840003
4.89801e-09
0.00840005
1.14608e-08
0.0084
3.1906e-08
0.00840018
7.25423e-08
0.00839982
1.93187e-07
0.00840103
4.46711e-07
0.00839875
1.15328e-06
0.00840584
2.74144e-06
0.00839366
6.91993e-06
0.00842696
1.71448e-05
0.00839065
4.3775e-05
0.00848778
0.000117028
0.00855369
0.000347588
0.00912523
0.00119183
0.0113167
0.00452655
0.0114051
0.00921153
0.011332
0.00958193
0.0111292
0.00947595
0.0109262
0.00903246
0.0108904
0.0085886
0.0109022
0.00826186
0.00792359
0.0109697
0.00840003
5.70514e-11
0.00840003
3.38492e-10
0.00840003
1.22156e-09
0.00840004
3.30256e-09
0.00840002
9.04328e-09
0.00840007
2.16964e-08
0.00839998
5.66516e-08
0.00840034
1.32071e-07
0.00839969
3.42457e-07
0.00840194
7.89257e-07
0.00839836
2.05578e-06
0.0084106
4.77625e-06
0.00839449
1.23914e-05
0.00844513
2.98532e-05
0.00843012
7.94228e-05
0.00861005
0.000219341
0.00906718
0.00069913
0.0110164
0.00258142
0.0118435
0.00836839
0.011684
0.00973219
0.0114756
0.00967448
0.0112398
0.00925629
0.0111565
0.00865509
0.0111294
0.00826845
0.00782276
0.0112013
0.00840003
4.21398e-11
0.00840003
2.5107e-10
0.00840003
9.14421e-10
0.00840004
2.46348e-09
0.00840002
6.72941e-09
0.00840006
1.64911e-08
0.00840001
4.13209e-08
0.00840016
1.02357e-07
0.00840005
2.44894e-07
0.00840039
6.25816e-07
0.00840099
1.44518e-06
0.0084009
3.80205e-06
0.00840674
8.68153e-06
0.00840927
2.32781e-05
0.00843515
5.62448e-05
0.00849686
0.000157837
0.00871729
0.00047441
0.00957782
0.00171475
0.0116837
0.00624249
0.0118058
0.00959731
0.0118363
0.00962527
0.0116398
0.00943362
0.0114388
0.0088351
0.0114113
0.00826559
0.00772387
0.011478
0.00840003
2.9653e-11
0.00840003
1.91446e-10
0.00840003
6.37717e-10
0.00840003
1.8673e-09
0.00840004
4.71566e-09
0.00840002
1.21834e-08
0.00840009
2.98101e-08
0.00839999
7.30652e-08
0.00840034
1.81789e-07
0.00839995
4.30661e-07
0.0084013
1.10387e-06
0.0084007
2.5474e-06
0.00840516
6.69502e-06
0.00840792
1.54775e-05
0.0084316
4.12052e-05
0.00846793
0.00010433
0.00865291
0.000305285
0.00934614
0.00100566
0.011899
0.00366556
0.0122513
0.00922757
0.0119735
0.00988224
0.0118959
0.00948937
0.0117711
0.00893458
0.0117477
0.00825685
0.0076263
0.0118113
0.00840003
2.02438e-11
0.00840003
1.3498e-10
0.00840003
4.50025e-10
0.00840003
1.31578e-09
0.00840003
3.32876e-09
0.00840005
8.61916e-09
0.00840003
2.0663e-08
0.0084001
5.23657e-08
0.00840006
1.2376e-07
0.00840027
3.1361e-07
0.00840058
7.36233e-07
0.00840069
1.86406e-06
0.00840439
4.42557e-06
0.00840465
1.11652e-05
0.008424
2.73419e-05
0.00845121
7.08253e-05
0.00856352
0.000193682
0.00895884
0.000603247
0.0104388
0.002178
0.0122652
0.00736763
0.0121887
0.00993506
0.0120973
0.00955105
0.0120704
0.00893127
0.0120947
0.00819932
0.00748493
0.0122054
0.00840003
1.47595e-11
0.00840003
9.34145e-11
0.00840003
3.23991e-10
0.00840003
9.09026e-10
0.00840003
2.3954e-09
0.00840004
5.98029e-09
0.00840002
1.47789e-08
0.00840011
3.66954e-08
0.00839999
8.80875e-08
0.00840042
2.21494e-07
0.00839995
5.21994e-07
0.00840158
1.33199e-06
0.00840095
3.10807e-06
0.00840639
8.05567e-06
0.00840965
1.90448e-05
0.00843848
5.00823e-05
0.0084838
0.000130377
0.00870855
0.000391088
0.00951426
0.00135162
0.0120661
0.0047767
0.012442
0.00952559
0.0123773
0.0095786
0.0123853
0.00888262
0.0124697
0.00807235
0.00728637
0.0126331
0.00840003
1.02991e-11
0.00840003
6.14152e-11
0.00840003
2.22731e-10
0.00840003
6.00193e-10
0.00840003
1.63877e-09
0.00840003
3.94158e-09
0.00840003
1.01079e-08
0.00840007
2.39789e-08
0.00840001
5.98742e-08
0.00840033
1.4346e-07
0.0083998
3.51998e-07
0.00840212
8.54052e-07
0.00839863
2.07505e-06
0.00841223
5.09203e-06
0.00839631
1.24059e-05
0.00845459
3.12002e-05
0.00844537
7.99264e-05
0.00866737
0.000224338
0.00925766
0.000714191
0.0114285
0.00258957
0.0125896
0.00830767
0.012687
0.00942447
0.0127381
0.00878104
0.0129049
0.00786981
0.00703364
0.0131267
0.00840003
6.71673e-12
0.00840003
4.20264e-11
0.00840003
1.45744e-10
0.00840003
4.10339e-10
0.00840003
1.07392e-09
0.00840003
2.68428e-09
0.00840004
6.6822e-09
0.00840004
1.61793e-08
0.00840005
4.00417e-08
0.00840014
9.59906e-08
0.00840001
2.38087e-07
0.008401
5.69266e-07
0.00839944
1.41395e-06
0.0084066
3.39859e-06
0.00839712
8.48883e-06
0.00843249
2.08601e-05
0.00841651
5.36555e-05
0.00853853
0.000145216
0.00875239
0.000447331
0.00971998
0.00161968
0.0121928
0.00573621
0.012744
0.00879416
0.0129894
0.00849134
0.0132718
0.00754834
0.00676582
0.0135134
0.00840003
4.43138e-12
0.00840003
2.63221e-11
0.00840003
9.5069e-11
0.00840003
2.5693e-10
0.00840003
6.95743e-10
0.00840003
1.6729e-09
0.00840004
4.28933e-09
0.00840003
9.99162e-09
0.00840005
2.54521e-08
0.00840011
5.861e-08
0.00840003
1.48424e-07
0.00840073
3.45743e-07
0.00839968
8.56705e-07
0.00840497
2.04198e-06
0.0083983
4.99666e-06
0.00842682
1.21993e-05
0.00841293
3.05168e-05
0.00851826
7.95608e-05
0.00868136
0.000230434
0.00952895
0.000767528
0.0122175
0.0029284
0.0127712
0.00810699
0.0132426
0.0079896
0.0135165
0.00725211
0.00656149
0.0137234
0.00840003
2.76338e-12
0.00840003
1.70137e-11
0.00840003
5.93604e-11
0.00840003
1.65953e-10
0.00840003
4.3202e-10
0.00840003
1.0775e-09
0.00840004
2.66735e-09
0.00840002
6.39648e-09
0.00840007
1.57776e-08
0.00840001
3.71557e-08
0.0084002
9.22614e-08
0.00840009
2.15193e-07
0.00840044
5.35171e-07
0.00840127
1.25027e-06
0.00840126
3.09152e-06
0.00840814
7.39854e-06
0.00841419
1.84976e-05
0.00844358
4.70392e-05
0.00853318
0.000131776
0.00885914
0.000419099
0.0100619
0.00165035
0.0117516
0.00624336
0.0127115
0.00701885
0.0133474
0.00661554
0.00624012
0.0136912
0.00840003
1.47774e-12
0.00840003
1.21293e-11
0.00840003
3.44133e-11
0.00840003
1.18504e-10
0.00840003
2.58139e-10
0.00840003
7.64749e-10
0.00840004
1.60285e-09
0.00840002
4.55439e-09
0.00840007
9.66217e-09
0.00839998
2.63782e-08
0.00840021
5.82833e-08
0.00839985
1.50307e-07
0.00840065
3.54479e-07
0.00839978
8.50949e-07
0.00840144
2.1549e-06
0.00840092
4.95862e-06
0.00840799
1.30353e-05
0.00840905
3.19907e-05
0.00845338
9.03359e-05
0.00855467
0.000280512
0.00906578
0.00106942
0.0104362
0.00463076
0.0116308
0.00583887
0.0126054
0.0056649
0.00574548
0.0131243
0.00840003
1.46976e-12
0.00840003
6.88498e-12
0.00840003
2.97549e-11
0.00840003
6.68382e-11
0.00840003
2.15337e-10
0.00840003
4.42795e-10
0.00840003
1.33539e-09
0.00840004
2.71602e-09
0.00840002
7.89006e-09
0.00840008
1.66659e-08
0.0083999
4.56919e-08
0.00840043
1.0325e-07
0.00839914
2.61139e-07
0.00840266
6.40909e-07
0.00839503
1.50027e-06
0.00841257
3.92997e-06
0.0083821
9.11923e-06
0.00842958
2.45645e-05
0.00839146
6.58957e-05
0.00847762
0.000206289
0.00869278
0.000760106
0.00950459
0.00354428
0.0106028
0.00479392
0.0115812
0.00473381
0.00514672
0.0122045
0.00840003
6.23377e-13
0.00840003
6.08807e-12
0.00840003
1.48186e-11
0.00840003
5.96495e-11
0.00840003
1.13101e-10
0.00840003
3.82539e-10
0.00840003
7.35705e-10
0.00840002
2.28499e-09
0.00840005
4.71791e-09
0.00839999
1.32052e-08
0.00840014
3.01971e-08
0.00839985
7.58823e-08
0.00840027
1.95671e-07
0.00839973
4.32022e-07
0.0083996
1.26003e-06
0.0084
2.57425e-06
0.00839885
7.81423e-06
0.00839706
1.75667e-05
0.00840545
5.26304e-05
0.00841657
0.000158291
0.00852163
0.000584942
0.00898812
0.00277695
0.00981328
0.00404521
0.0104897
0.00411156
0.00435725
0.0112927
0.00840003
7.31865e-13
0.00840003
3.074e-12
0.00840003
1.42829e-11
0.00840003
3.04231e-11
0.00840003
1.05412e-10
0.00840003
1.99695e-10
0.00840003
6.76322e-10
0.00840004
1.19608e-09
0.00840001
4.15193e-09
0.00840008
7.37578e-09
0.00839991
2.50257e-08
0.00840032
4.68056e-08
0.00839941
1.47904e-07
0.00840157
3.10983e-07
0.00839659
8.77674e-07
0.0084067
2.04408e-06
0.00838699
5.4146e-06
0.00841622
1.37617e-05
0.00837667
3.90167e-05
0.00842346
0.000119999
0.00847271
0.000440899
0.00882923
0.00209205
0.0094136
0.00352961
0.00990865
0.00366841
0.003752
0.0105347
0.00840003
4.36924e-13
0.00840003
2.50211e-12
0.00840003
9.74017e-12
0.00840003
2.42914e-11
0.00840003
7.15337e-11
0.00840003
1.7148e-10
0.00840003
4.12639e-10
0.00840003
1.15488e-09
0.00840003
2.28096e-09
0.00840001
7.47336e-09
0.00840008
1.27775e-08
0.00839983
4.75822e-08
0.00840053
7.24725e-08
0.00839857
2.96347e-07
0.00840352
4.40445e-07
0.00839192
1.80773e-06
0.00841534
2.99013e-06
0.00837631
1.06761e-05
0.00842341
2.43447e-05
0.0083972
8.04396e-05
0.00848368
0.000281192
0.00891387
0.00134225
0.00920407
0.00323976
0.00949304
0.00338756
0.00328347
0.009968
0.00840003
1.90159e-13
0.00840003
2.5375e-12
0.00840003
5.12932e-12
0.00840003
2.47569e-11
0.00840003
3.90323e-11
0.00840003
1.59812e-10
0.00840003
2.57902e-10
0.00840002
9.49159e-10
0.00840004
1.67732e-09
0.0084
5.49131e-09
0.00840006
1.1018e-08
0.00839997
3.06774e-08
0.00839992
7.37927e-08
0.00840027
1.69618e-07
0.0083984
4.78831e-07
0.00840235
9.88879e-07
0.00839318
2.99988e-06
0.00840427
6.60436e-06
0.00839194
1.9432e-05
0.00840221
5.61313e-05
0.00843172
0.000195733
0.00871433
0.000895502
0.008918
0.00292101
0.00912915
0.00314577
0.00291326
0.00951169
0.00840003
4.00521e-13
0.00840003
1.29332e-12
0.00840003
7.69649e-12
0.00840003
1.27664e-11
0.00840003
5.41555e-11
0.00840003
8.77925e-11
0.00840003
3.23343e-10
0.00840003
5.59338e-10
0.00840002
1.90822e-09
0.00840006
3.59091e-09
0.00839994
1.05331e-08
0.00840025
2.38731e-08
0.00839938
5.76749e-08
0.00840159
1.55675e-07
0.00839619
3.23535e-07
0.00840846
9.6873e-07
0.00838287
1.97557e-06
0.00842088
5.83362e-06
0.00836961
1.44279e-05
0.00840774
4.41563e-05
0.00839387
0.000149139
0.00848496
0.000671648
0.00869026
0.00253261
0.00885327
0.00293711
0.00254912
0.00925306
0.00840003
2.89431e-13
0.00840003
1.31737e-12
0.00840003
5.67215e-12
0.00840003
1.28276e-11
0.00840003
4.2439e-11
0.00840003
8.06026e-11
0.00840003
2.69194e-10
0.00840003
4.66999e-10
0.00840004
1.61148e-09
0.00840001
2.68008e-09
0.00840004
9.79576e-09
0.00840001
1.57361e-08
0.00839983
5.78758e-08
0.00840038
9.88829e-08
0.00839801
3.33538e-07
0.00840317
6.41948e-07
0.0083907
1.89831e-06
0.00840698
4.254e-06
0.00838352
1.21921e-05
0.00839335
3.44587e-05
0.00838322
0.000118161
0.00840747
0.000529435
0.00855749
0.00220812
0.00881056
0.00262565
0.00226866
0.00916603
0.00840003
1.13862e-13
0.00840003
1.77589e-12
0.00840003
2.92306e-12
0.00840003
1.65766e-11
0.00840003
2.37282e-11
0.00840003
9.92401e-11
0.00840003
1.7245e-10
0.00840002
5.44138e-10
0.00840005
1.20052e-09
0.00839999
2.7547e-09
0.00840011
8.19607e-09
0.00839983
1.37933e-08
0.00840043
5.3615e-08
0.00839904
6.99915e-08
0.00840156
3.41424e-07
0.00839545
3.79363e-07
0.0084056
2.03693e-06
0.00838407
2.82932e-06
0.00840778
1.11975e-05
0.00837258
2.76006e-05
0.00837635
9.75915e-05
0.00836883
0.000433151
0.00848826
0.00191851
0.00882881
0.00222966
0.00203177
0.0091447
0.00840003
1.32167e-13
0.00840003
1.24834e-12
0.00840003
3.16659e-12
0.00840003
1.23632e-11
0.00840003
2.25647e-11
0.00840003
8.10933e-11
0.00840003
1.34768e-10
0.00840003
5.03129e-10
0.00840002
7.76189e-10
0.00840003
3.10707e-09
0.00840003
4.57938e-09
0.00839992
1.85619e-08
0.00840024
2.91499e-08
0.00839896
1.02453e-07
0.00840208
1.95225e-07
0.00839373
5.55976e-07
0.00840894
1.26624e-06
0.00838086
3.31574e-06
0.00840729
8.52214e-06
0.00837261
2.50516e-05
0.00837201
8.29362e-05
0.00835685
0.00036416
0.00843906
0.00166697
0.00882553
0.00181382
0.00179926
0.00912651
0.00840003
2.67886e-13
0.00840003
3.81235e-13
0.00840003
4.92635e-12
0.00840003
3.54579e-12
0.00840003
3.40593e-11
0.00840003
2.79554e-11
0.00840003
1.93913e-10
0.00840004
2.00874e-10
0.00840002
1.06735e-09
0.00840006
1.57122e-09
0.00839996
5.48838e-09
0.00840016
1.18063e-08
0.00839971
2.85143e-08
0.00840025
8.91019e-08
0.00839907
1.36939e-07
0.0083996
6.33573e-07
0.00839636
7.58712e-07
0.00839951
3.64023e-06
0.00838346
6.36271e-06
0.00838975
2.29082e-05
0.00837253
7.10525e-05
0.0083715
0.000302923
0.0084473
0.00140373
0.00877271
0.00151329
0.00154084
0.00907133
0.00840003
9.38345e-14
0.00840003
8.5312e-13
0.00840003
2.11412e-12
0.00840003
8.24575e-12
0.00840003
1.47874e-11
0.00840003
5.51947e-11
0.00840003
8.25708e-11
0.00840002
3.41457e-10
0.00840004
4.43365e-10
0.00839999
2.13195e-09
0.0084001
2.39591e-09
0.00839985
1.29285e-08
0.00840037
1.41161e-08
0.00839916
7.62823e-08
0.00840115
1.03252e-07
0.00839628
4.2978e-07
0.00840353
8.02742e-07
0.00838648
2.51415e-06
0.00840424
6.21462e-06
0.0083713
1.9345e-05
0.00838996
6.24175e-05
0.00838558
0.000249509
0.00844122
0.00116074
0.00872975
0.00125667
0.00129336
0.00901296
0.00840003
2.94442e-15
0.00840003
9.57156e-13
0.00840003
4.70715e-13
0.00840003
9.34508e-12
0.00840003
5.40892e-12
0.00840003
5.33439e-11
0.00840003
5.59608e-11
0.00840003
2.69437e-10
0.00840004
4.80603e-10
0.00840002
1.20373e-09
0.00840002
4.00692e-09
0.00840002
5.41107e-09
0.00839982
3.0594e-08
0.00840034
2.01526e-08
0.00839811
2.15764e-07
0.00840275
1.02879e-07
0.00839098
1.32093e-06
0.0084063
1.06314e-06
0.00838231
6.67983e-06
0.00838923
1.41947e-05
0.0083925
5.27821e-05
0.00838965
0.000202861
0.00842913
0.000945373
0.00869268
0.00102192
0.001061
0.00895437
0.00840003
1.86523e-13
0.00840003
1.5737e-14
0.00840003
3.20773e-12
0.00840003
5.51702e-14
0.00840003
2.23195e-11
0.00840003
-2.10172e-12
0.00840003
1.27985e-10
0.00840003
2.57839e-11
0.00840002
6.62671e-10
0.00840005
4.70016e-10
0.00839998
3.03787e-09
0.00840005
5.32637e-09
0.00839995
1.50801e-08
0.00839967
4.92145e-08
0.0084004
5.94367e-08
0.00839723
3.77085e-07
0.00840172
3.44699e-07
0.00839274
2.25739e-06
0.00839487
3.03123e-06
0.00838635
1.34914e-05
0.00839583
4.02497e-05
0.00839147
0.000160994
0.0084224
0.000754733
0.00865831
0.000808219
0.000843862
0.00889512
0.00840003
-7.06243e-14
0.00840003
8.91729e-13
0.00840003
-5.05307e-13
0.00840003
8.64013e-12
0.00840003
-2.73473e-12
0.00840003
4.92696e-11
0.00840003
-1.74357e-11
0.00840002
2.6941e-10
0.00840004
2.0834e-11
0.0084
1.22529e-09
0.00840009
8.40223e-10
0.00839989
6.32689e-09
0.00840019
1.13376e-08
0.00839958
2.2688e-08
0.00839995
1.19996e-07
0.00839888
6.61792e-08
0.00839914
8.21081e-07
0.0083949
6.71727e-07
0.00839942
4.06906e-06
0.00838369
7.48052e-06
0.00838779
3.02476e-05
0.00839489
0.000123313
0.00842307
0.000584314
0.00863005
0.000615006
0.000643251
0.00883899
0.00840003
5.18985e-14
0.00840003
1.65464e-13
0.00840003
1.08825e-12
0.00840003
1.78968e-12
0.00840003
7.84905e-12
0.00840003
1.46882e-11
0.00840003
3.69708e-11
0.00840004
1.1533e-10
0.00840002
1.36181e-10
0.00840006
8.25929e-10
0.00839997
7.893e-10
0.00840013
5.27537e-09
0.0083998
3.40001e-09
0.0084001
3.91787e-08
0.00839955
1.0184e-08
0.00839922
2.47806e-07
0.00839846
1.07107e-07
0.008399
1.28667e-06
0.00839063
1.33408e-06
0.00839723
7.27987e-06
0.00838414
2.04147e-05
0.00840418
9.03574e-05
0.00843303
0.000426642
0.00861003
0.000440162
0.000460184
0.00878692
0.00840003
4.46927e-15
0.00840003
2.12849e-13
0.00840003
2.72368e-13
0.00840003
2.11036e-12
0.00840003
1.6583e-12
0.00840003
1.36563e-11
0.00840003
7.83914e-12
0.00840003
7.70529e-11
0.00840002
6.84953e-11
0.00840005
4.3192e-10
0.00839994
3.74495e-10
0.00840024
2.63855e-09
0.00839946
1.93984e-09
0.00840136
1.53614e-08
0.00839684
1.52673e-08
0.00840721
9.45528e-08
0.00838497
1.65643e-07
0.0084222
5.08609e-07
0.00836665
1.4343e-06
0.00841952
3.95826e-06
0.00837074
1.40702e-05
0.00841428
5.8774e-05
0.00844509
0.000279485
0.00859444
0.000281867
0.000294385
0.00873771
0.00840003
1.08847e-13
0.00840003
-2.71113e-13
0.00840003
1.78298e-12
0.00840003
-2.5931e-12
0.00840003
1.15641e-11
0.00840003
-1.34744e-11
0.00840003
6.20709e-11
0.00840003
-7.22931e-11
0.00840002
3.1224e-10
0.00840006
-1.90897e-10
0.00839994
1.10961e-09
0.00840024
5.96403e-10
0.00839948
2.47865e-09
0.00840125
1.26578e-08
0.00839711
-7.01429e-09
0.00840621
1.23501e-07
0.00838684
-9.36847e-08
0.00841815
6.81251e-07
0.00837139
2.53217e-07
0.00841498
2.86867e-06
0.00837497
6.0086e-06
0.00841779
2.98031e-05
0.0084548
0.00013874
0.0085825
0.000136537
0.000142465
0.00869777
0.00840003
0.00840003
0.00840003
0.00840003
0.00840003
0.00840003
0.00840003
0.00840003
0.00840004
0.00840001
0.00840004
0.0084
0.00839989
0.00840027
0.00839843
0.00840276
0.00839188
0.00840893
0.00838481
0.00840179
0.00838157
0.00841809
0.00846256
0.0085768
0.00867485
0.00392378
0.004341
0.00147519
0.00243588
-0.000802798
0.0022721
-0.00172894
0.000924634
-0.00237641
0.00064562
-0.0026915
0.000314335
-0.00278135
9.00911e-05
-0.00288959
0.000108956
-0.00301921
0.000130564
-0.00311858
0.000100394
-0.00317029
5.08436e-05
-0.00319003
1.80651e-05
-0.00319165
-6.45977e-07
-0.00317933
-1.51034e-05
-0.00314594
-3.63123e-05
-0.00309177
-5.67992e-05
-0.00301773
-7.6191e-05
-0.00292355
-9.5617e-05
-0.00281756
-0.000106764
-0.00270224
-0.000116235
-0.00257748
-0.000125626
-0.00244366
-0.000134603
-0.0023008
-0.000144146
-0.00214839
-0.000153796
-0.0019874
-0.000163307
-0.00181728
-0.000172574
-0.00163597
-0.000184193
-0.00144526
-0.000193739
-0.00124848
-0.000199809
-0.00104828
-0.000203212
-0.000845244
-0.000205979
-0.000639349
-0.000208946
-0.000429248
-0.000212868
-0.000215514
-0.000216166
6.75992e-06
-0.00022573
0.000227994
-0.00022234
0.000441006
-0.000214999
0.000647723
-0.000208303
0.000850216
-0.000203511
0.00104776
-0.000198406
0.00123921
-0.000191783
0.00142434
-0.000184979
0.00160374
-0.000178964
0.00178105
-0.00017644
0.00195758
-0.000175197
0.00212931
-0.000169705
0.0022943
-0.000162551
0.00245293
-0.000156212
0.00260566
-0.000149758
0.00275339
-0.000144134
0.00289526
-0.000138122
0.00303215
-0.000132566
0.00316332
-0.000126907
0.00328928
-0.000121455
0.00341011
-0.000116058
0.00352536
-0.000110838
0.00363585
-0.000105623
0.00374134
-0.000100722
0.00384174
-9.57598e-05
0.00393725
-9.11283e-05
0.00402769
-8.64462e-05
0.0041138
-8.20813e-05
0.00419476
-7.77026e-05
0.00427173
-7.35584e-05
0.0043439
-6.94788e-05
0.00441183
-6.55379e-05
0.0044756
-6.16971e-05
0.00453506
-5.79608e-05
0.0045907
-5.43091e-05
0.00464229