/*--------------------------------*- C++ -*----------------------------------*\
  =========                 |
  \\      /  F ield         | OpenFOAM: The Open Source CFD Toolbox
   \\    /   O peration     | Website:  https://openfoam.org
    \\  /    A nd           | Version:  10
     \\/     M anipulation  |
\*---------------------------------------------------------------------------*/
FoamFile
{
    format      ascii;
    class       volVectorField;
    location    "9.5";
    object      U;
}
// * * * * * * * * * * * * * * * * * * * * * * * * * * * * * * * * * * * * * //

dimensions      [0 1 -1 0 0 0 0];

internalField   nonuniform List<vector> 
5250
(
(2.99999 1.30763e-08 0)
(2.99998 1.10715e-07 0)
(2.99995 2.43138e-07 0)
(2.99988 1.02175e-06 0)
(2.9997 1.91783e-06 0)
(2.99927 5.15123e-06 0)
(2.99817 1.2495e-05 0)
(2.99553 2.66573e-05 0)
(2.98879 7.73783e-05 0)
(2.97204 0.000165097 0)
(2.9275 0.000439297 0)
(2.80331 0.00116239 0)
(2.4378 0.00313761 0)
(1.44557 0.00939921 0)
(0.631114 0.0217714 0)
(0.553641 0.0227732 0)
(0.572934 0.0237202 0)
(0.55993 0.0252924 0)
(0.504707 0.0270782 0)
(0.418253 0.0291867 0)
(0.337525 0.0317496 0)
(0.268929 0.0346826 0)
(0.198957 0.0377841 0)
(0.119466 0.041436 0)
(0.052528 0.0466667 0)
(2.99999 2.09311e-08 0)
(2.99998 2.53423e-07 0)
(2.99995 6.11155e-07 0)
(2.99988 2.37345e-06 0)
(2.9997 4.90853e-06 0)
(2.99928 1.55159e-05 0)
(2.99819 2.94115e-05 0)
(2.99558 9.7993e-05 0)
(2.9889 0.000179391 0)
(2.97234 0.000586694 0)
(2.92834 0.00124004 0)
(2.80551 0.00364503 0)
(2.44461 0.00972063 0)
(1.46054 0.0290277 0)
(0.64053 0.0658764 0)
(0.55267 0.0657748 0)
(0.572335 0.0657823 0)
(0.559818 0.068208 0)
(0.504736 0.0711821 0)
(0.418516 0.0750592 0)
(0.337726 0.0795835 0)
(0.268483 0.0843528 0)
(0.197473 0.0887899 0)
(0.116627 0.093155 0)
(0.0491755 0.0975335 0)
(2.99999 2.29705e-08 0)
(2.99998 4.53419e-07 0)
(2.99995 7.89792e-07 0)
(2.99988 4.4154e-06 0)
(2.99971 6.17527e-06 0)
(2.99929 2.94006e-05 0)
(2.99824 3.89426e-05 0)
(2.99565 0.000181982 0)
(2.98919 0.000263404 0)
(2.97293 0.00103858 0)
(2.93002 0.00203058 0)
(2.81047 0.00622593 0)
(2.45869 0.0165573 0)
(1.49375 0.0493472 0)
(0.662156 0.113496 0)
(0.55191 0.111285 0)
(0.573083 0.110207 0)
(0.562326 0.114724 0)
(0.508091 0.120365 0)
(0.422824 0.127911 0)
(0.342312 0.136266 0)
(0.272544 0.144939 0)
(0.200528 0.153221 0)
(0.118225 0.160841 0)
(0.0488339 0.166627 0)
(2.99999 9.50009e-08 0)
(2.99998 4.93089e-07 0)
(2.99996 1.87195e-06 0)
(2.99989 4.83737e-06 0)
(2.99972 1.35352e-05 0)
(2.9993 3.10435e-05 0)
(2.99831 8.69865e-05 0)
(2.99577 0.000187779 0)
(2.98962 0.000537331 0)
(2.97381 0.00118491 0)
(2.93267 0.00326646 0)
(2.81766 0.00830447 0)
(2.4806 0.0235805 0)
(1.54459 0.0687487 0)
(0.695485 0.161907 0)
(0.550188 0.156179 0)
(0.574909 0.153524 0)
(0.567651 0.160465 0)
(0.51495 0.16904 0)
(0.431325 0.180545 0)
(0.351363 0.193081 0)
(0.281292 0.206191 0)
(0.208202 0.219073 0)
(0.123668 0.230734 0)
(0.0507123 0.238434 0)
(3 1.23668e-07 0)
(2.99998 5.51112e-07 0)
(2.99996 2.57026e-06 0)
(2.99989 5.43127e-06 0)
(2.99973 1.88886e-05 0)
(2.99935 3.72752e-05 0)
(2.99837 0.000116988 0)
(2.99603 0.000237441 0)
(2.99003 0.000694578 0)
(2.9752 0.0015347 0)
(2.93598 0.00419354 0)
(2.82732 0.0106526 0)
(2.5096 0.030202 0)
(1.61375 0.0876576 0)
(0.740505 0.211987 0)
(0.546867 0.200718 0)
(0.577716 0.195842 0)
(0.575738 0.205255 0)
(0.525068 0.216765 0)
(0.443687 0.232258 0)
(0.364587 0.249236 0)
(0.294401 0.267285 0)
(0.220139 0.285509 0)
(0.132502 0.302236 0)
(0.0544449 0.312811 0)
(3 1.01361e-07 0)
(2.99999 8.82511e-07 0)
(2.99996 2.3923e-06 0)
(2.9999 8.59454e-06 0)
(2.99975 1.81249e-05 0)
(2.99939 5.63426e-05 0)
(2.99848 0.000116602 0)
(2.99625 0.000342543 0)
(2.9907 0.000740597 0)
(2.97673 0.00205076 0)
(2.94024 0.00484779 0)
(2.83944 0.0132658 0)
(2.54497 0.0363925 0)
(1.7033 0.106067 0)
(0.797568 0.264307 0)
(0.541963 0.245721 0)
(0.582198 0.237727 0)
(0.58735 0.249515 0)
(0.539064 0.263942 0)
(0.460543 0.283632 0)
(0.382739 0.30564 0)
(0.312791 0.32964 0)
(0.237425 0.354709 0)
(0.145855 0.378667 0)
(0.0606604 0.394486 0)
(3 1.54383e-07 0)
(2.99999 9.18823e-07 0)
(2.99996 3.21919e-06 0)
(2.99991 8.96399e-06 0)
(2.99977 2.38874e-05 0)
(2.99943 5.85947e-05 0)
(2.99861 0.000153558 0)
(2.99655 0.000358109 0)
(2.99145 0.000953293 0)
(2.97861 0.00223501 0)
(2.94537 0.0059075 0)
(2.85352 0.0151808 0)
(2.58763 0.0425481 0)
(1.81329 0.123039 0)
(0.869081 0.317815 0)
(0.53776 0.291241 0)
(0.589951 0.279556 0)
(0.603793 0.293389 0)
(0.558069 0.310535 0)
(0.483054 0.334574 0)
(0.407152 0.362294 0)
(0.338051 0.393552 0)
(0.2621 0.427614 0)
(0.166178 0.462404 0)
(0.0710804 0.48841 0)
(3 1.58236e-07 0)
(2.99999 1.01887e-06 0)
(2.99997 3.47689e-06 0)
(2.99992 9.98735e-06 0)
(2.99979 2.59719e-05 0)
(2.99949 6.66973e-05 0)
(2.99873 0.000164059 0)
(2.99692 0.000418295 0)
(2.99226 0.00100853 0)
(2.98086 0.00260174 0)
(2.95105 0.00641819 0)
(2.86995 0.0170632 0)
(2.63576 0.0470008 0)
(1.9455 0.136339 0)
(0.957713 0.366128 0)
(0.53993 0.336097 0)
(0.604676 0.321672 0)
(0.627465 0.336502 0)
(0.583982 0.356006 0)
(0.512993 0.384675 0)
(0.43969 0.418946 0)
(0.372418 0.459003 0)
(0.297343 0.504735 0)
(0.198117 0.555804 0)
(0.0894284 0.602646 0)
(3 1.56476e-07 0)
(2.99999 1.08863e-06 0)
(2.99997 3.54236e-06 0)
(2.99993 1.06467e-05 0)
(2.99982 2.64315e-05 0)
(2.99955 7.16612e-05 0)
(2.9989 0.000167232 0)
(2.99725 0.000450397 0)
(2.99327 0.0010385 0)
(2.98312 0.0027852 0)
(2.95741 0.00667586 0)
(2.8875 0.0179979 0)
(2.68766 0.0491099 0)
(2.09513 0.143119 0)
(1.06667 0.403254 0)
(0.560232 0.38417 0)
(0.631252 0.37039 0)
(0.660931 0.381317 0)
(0.619549 0.401995 0)
(0.552953 0.434114 0)
(0.482918 0.475601 0)
(0.418764 0.524945 0)
(0.347769 0.584805 0)
(0.250822 0.661491 0)
(0.124024 0.75153 0)
(3 1.73732e-07 0)
(2.99999 9.13748e-07 0)
(2.99997 3.64837e-06 0)
(2.99994 8.98917e-06 0)
(2.99984 2.68407e-05 0)
(2.99961 6.08431e-05 0)
(2.99905 0.000168286 0)
(2.99764 0.000381673 0)
(2.99421 0.00102886 0)
(2.98556 0.00239988 0)
(2.96373 0.00633458 0)
(2.90549 0.0159056 0)
(2.74091 0.0440739 0)
(2.25904 0.126159 0)
(1.21449 0.371648 0)
(0.626344 0.41548 0)
(0.680522 0.422857 0)
(0.708603 0.426543 0)
(0.668994 0.449447 0)
(0.606323 0.483206 0)
(0.539721 0.531171 0)
(0.480041 0.589104 0)
(0.420925 0.667601 0)
(0.341546 0.786645 0)
(0.191216 0.993523 0)
(3 1.40122e-07 0)
(2.99999 8.57844e-07 0)
(2.99998 2.94748e-06 0)
(2.99995 8.34415e-06 0)
(2.99986 2.20133e-05 0)
(2.99966 5.40694e-05 0)
(2.99917 0.000140312 0)
(2.99797 0.000327449 0)
(2.99495 0.00086295 0)
(2.98755 0.00198982 0)
(2.96866 0.00525317 0)
(2.91902 0.0128875 0)
(2.77959 0.0349913 0)
(2.372 0.097728 0)
(1.3563 0.291552 0)
(0.683226 0.446919 0)
(0.709761 0.477865 0)
(0.740538 0.476742 0)
(0.716777 0.498405 0)
(0.664231 0.531822 0)
(0.606522 0.582255 0)
(0.558627 0.647799 0)
(0.528702 0.74182 0)
(0.52767 0.887633 0)
(0.563122 1.12955 0)
(3 1.09879e-07 0)
(2.99999 8.13762e-07 0)
(2.99998 2.46545e-06 0)
(2.99995 7.94653e-06 0)
(2.99988 1.84981e-05 0)
(2.99971 5.17696e-05 0)
(2.99927 0.000117494 0)
(2.99824 0.000313326 0)
(2.99559 0.000722123 0)
(2.98922 0.00187833 0)
(2.97282 0.00447718 0)
(2.93013 0.0116312 0)
(2.8111 0.0302355 0)
(2.46332 0.0846521 0)
(1.52669 0.248985 0)
(0.772266 0.497378 0)
(0.721897 0.525998 0)
(0.75273 0.525399 0)
(0.750935 0.543023 0)
(0.716024 0.576625 0)
(0.675414 0.626619 0)
(0.646405 0.696261 0)
(0.647081 0.794923 0)
(0.700034 0.932922 0)
(0.825946 1.11095 0)
(3 1.13154e-07 0)
(2.99999 7.06579e-07 0)
(2.99998 2.49349e-06 0)
(2.99996 6.9371e-06 0)
(2.9999 1.84173e-05 0)
(2.99975 4.66555e-05 0)
(2.99939 0.000114623 0)
(2.99847 0.00028941 0)
(2.99626 0.00069448 0)
(2.99067 0.00176654 0)
(2.9768 0.0042918 0)
(2.94039 0.0109844 0)
(2.84027 0.0286985 0)
(2.54908 0.0798164 0)
(1.7254 0.232242 0)
(0.895055 0.541968 0)
(0.73111 0.556717 0)
(0.762101 0.560273 0)
(0.778158 0.576246 0)
(0.762149 0.612394 0)
(0.740585 0.662867 0)
(0.733274 0.731373 0)
(0.756125 0.822273 0)
(0.828157 0.933543 0)
(0.967027 1.04258 0)
(3 1.16337e-07 0)
(2.99999 6.69088e-07 0)
(2.99999 2.45777e-06 0)
(2.99997 6.52454e-06 0)
(2.99991 1.82315e-05 0)
(2.99979 4.32659e-05 0)
(2.99948 0.000115184 0)
(2.99873 0.000267505 0)
(2.99683 0.000705516 0)
(2.99221 0.00164931 0)
(2.98049 0.00431781 0)
(2.95049 0.0104989 0)
(2.86828 0.0280715 0)
(2.63179 0.0768672 0)
(1.94178 0.223222 0)
(1.04562 0.575893 0)
(0.750177 0.584239 0)
(0.777804 0.58827 0)
(0.806068 0.600808 0)
(0.807282 0.638278 0)
(0.80136 0.689423 0)
(0.810224 0.753099 0)
(0.846612 0.829132 0)
(0.922116 0.913572 0)
(1.05198 0.983985 0)
(3 9.56276e-08 0)
(3 6.71349e-07 0)
(2.99999 2.13438e-06 0)
(2.99997 6.56173e-06 0)
(2.99993 1.59558e-05 0)
(2.99983 4.35345e-05 0)
(2.99957 0.000101015 0)
(2.99896 0.000270349 0)
(2.99741 0.000624897 0)
(2.99368 0.0016583 0)
(2.98417 0.00391453 0)
(2.96021 0.0102716 0)
(2.89558 0.0260997 0)
(2.71189 0.0724744 0)
(2.17105 0.208871 0)
(1.23133 0.582227 0)
(0.802121 0.615933 0)
(0.811306 0.622064 0)
(0.842034 0.62672 0)
(0.85597 0.659229 0)
(0.859521 0.70732 0)
(0.877022 0.764 0)
(0.919782 0.826298 0)
(0.993743 0.890089 0)
(1.11016 0.940123 0)
(3 8.70551e-08 0)
(3 5.46611e-07 0)
(2.99999 1.91913e-06 0)
(2.99998 5.33324e-06 0)
(2.99994 1.42225e-05 0)
(2.99986 3.58286e-05 0)
(2.99967 8.87798e-05 0)
(2.99916 0.000224135 0)
(2.99798 0.000537337 0)
(2.99496 0.00137849 0)
(2.98767 0.00329539 0)
(2.96899 0.00849293 0)
(2.92022 0.0213726 0)
(2.78486 0.0580163 0)
(2.39148 0.165091 0)
(1.46616 0.488176 0)
(0.902945 0.630518 0)
(0.866716 0.654311 0)
(0.887192 0.661366 0)
(0.908849 0.682128 0)
(0.91724 0.721511 0)
(0.937278 0.769475 0)
(0.980827 0.820163 0)
(1.05068 0.868898 0)
(1.15322 0.90565 0)
(3 7.2797e-08 0)
(3 4.52332e-07 0)
(2.99999 1.56188e-06 0)
(2.99998 4.40696e-06 0)
(2.99996 1.15811e-05 0)
(2.99989 2.88011e-05 0)
(2.99973 7.30776e-05 0)
(2.99934 0.000174693 0)
(2.99837 0.000444941 0)
(2.99598 0.0010489 0)
(2.9901 0.00268578 0)
(2.97528 0.00643202 0)
(2.93673 0.0165228 0)
(2.83082 0.0428703 0)
(2.52458 0.118969 0)
(1.6973 0.353753 0)
(1.00644 0.656042 0)
(0.905614 0.687804 0)
(0.921482 0.700495 0)
(0.949855 0.708465 0)
(0.967982 0.73597 0)
(0.99072 0.773986 0)
(1.03277 0.81418 0)
(1.09703 0.851085 0)
(1.18669 0.877561 0)
(3 5.85156e-08 0)
(3 3.91998e-07 0)
(2.99999 1.27449e-06 0)
(2.99999 3.83045e-06 0)
(2.99996 9.49509e-06 0)
(2.99991 2.50848e-05 0)
(2.99979 6.01292e-05 0)
(2.99947 0.000152239 0)
(2.99871 0.000370735 0)
(2.99682 0.000912342 0)
(2.99216 0.00227558 0)
(2.98049 0.00556312 0)
(2.95051 0.0141302 0)
(2.86879 0.0365856 0)
(2.63535 0.100611 0)
(1.96204 0.293338 0)
(1.16513 0.689311 0)
(0.937816 0.720461 0)
(0.946117 0.731891 0)
(0.978342 0.732088 0)
(1.00871 0.748094 0)
(1.03624 0.777245 0)
(1.07671 0.808627 0)
(1.13511 0.835948 0)
(1.21344 0.854384 0)
(3 5.3701e-08 0)
(3 3.13073e-07 0)
(3 1.15155e-06 0)
(2.99999 3.06121e-06 0)
(2.99997 8.51104e-06 0)
(2.99993 2.04858e-05 0)
(2.99983 5.32343e-05 0)
(2.9996 0.000127187 0)
(2.999 0.000322426 0)
(2.99757 0.000783316 0)
(2.99397 0.00195295 0)
(2.98515 0.00484835 0)
(2.96258 0.0121517 0)
(2.90246 0.0314504 0)
(2.73379 0.0855954 0)
(2.23711 0.24701 0)
(1.38228 0.666408 0)
(1.00335 0.742402 0)
(0.983287 0.752493 0)
(1.00742 0.752386 0)
(1.04472 0.758891 0)
(1.07707 0.779434 0)
(1.11511 0.802947 0)
(1.16735 0.821867 0)
(1.23524 0.833692 0)
(3 4.15755e-08 0)
(3 2.56936e-07 0)
(3 9.04908e-07 0)
(2.99999 2.50946e-06 0)
(2.99998 6.69416e-06 0)
(2.99995 1.6691e-05 0)
(2.99988 4.16701e-05 0)
(2.9997 0.000103586 0)
(2.99926 0.000250883 0)
(2.99818 0.000633333 0)
(2.99554 0.00151052 0)
(2.989 0.0038638 0)
(2.97263 0.00935813 0)
(2.93009 0.0242308 0)
(2.8132 0.0641185 0)
(2.47704 0.181712 0)
(1.65661 0.53253 0)
(1.113 0.745518 0)
(1.03521 0.767997 0)
(1.04547 0.774944 0)
(1.08043 0.773948 0)
(1.11486 0.783664 0)
(1.14941 0.797971 0)
(1.19524 0.809314 0)
(1.25338 0.813599 0)
(3 3.18799e-08 0)
(3 2.02471e-07 0)
(3 6.88822e-07 0)
(2.99999 1.97657e-06 0)
(2.99998 5.09601e-06 0)
(2.99996 1.29909e-05 0)
(2.99991 3.19265e-05 0)
(2.99977 7.91083e-05 0)
(2.99945 0.000193578 0)
(2.99862 0.000474658 0)
(2.99666 0.00116809 0)
(2.99169 0.00285471 0)
(2.97954 0.00708227 0)
(2.94796 0.0176608 0)
(2.86268 0.0459442 0)
(2.61985 0.12564 0)
(1.94044 0.372121 0)
(1.2496 0.750186 0)
(1.07525 0.78915 0)
(1.07551 0.799173 0)
(1.10644 0.793262 0)
(1.1444 0.790797 0)
(1.17843 0.795151 0)
(1.21843 0.799078 0)
(1.26665 0.794306 0)
(3 2.53868e-08 0)
(3 1.61089e-07 0)
(3 5.47771e-07 0)
(3 1.57004e-06 0)
(2.99999 4.06092e-06 0)
(2.99997 1.02943e-05 0)
(2.99993 2.56269e-05 0)
(2.99983 6.25647e-05 0)
(2.99959 0.000156144 0)
(2.99899 0.000376081 0)
(2.99753 0.00094602 0)
(2.99392 0.00227275 0)
(2.98496 0.00574888 0)
(2.96231 0.0141218 0)
(2.90184 0.036695 0)
(2.73289 0.0989322 0)
(2.23777 0.286855 0)
(1.45735 0.724927 0)
(1.13448 0.810192 0)
(1.10897 0.817317 0)
(1.129 0.811416 0)
(1.1666 0.799974 0)
(1.2019 0.794719 0)
(1.23623 0.789229 0)
(1.27395 0.774208 0)
(3 1.85942e-08 0)
(3 1.24695e-07 0)
(3 4.07325e-07 0)
(3 1.21349e-06 0)
(2.99999 3.03156e-06 0)
(2.99998 7.92971e-06 0)
(2.99995 1.90931e-05 0)
(2.99988 4.81279e-05 0)
(2.99971 0.000116574 0)
(2.99928 0.000287357 0)
(2.99824 0.000707192 0)
(2.99569 0.00172304 0)
(2.98941 0.00430872 0)
(2.97369 0.0105791 0)
(2.93313 0.0270552 0)
(2.8225 0.0716352 0)
(2.50449 0.202741 0)
(1.74423 0.579502 0)
(1.2426 0.806492 0)
(1.15497 0.825601 0)
(1.15872 0.825148 0)
(1.18808 0.808712 0)
(1.22092 0.792707 0)
(1.24806 0.77498 0)
(1.27495 0.749023 0)
(3 1.465e-08 0)
(3 8.70372e-08 0)
(3 3.1494e-07 0)
(3 8.46945e-07 0)
(2.99999 2.32165e-06 0)
(2.99999 5.60433e-06 0)
(2.99996 1.44116e-05 0)
(2.99991 3.43785e-05 0)
(2.99979 8.63442e-05 0)
(2.99949 0.000207244 0)
(2.99872 0.000513379 0)
(2.99693 0.00125133 0)
(2.99234 0.00306249 0)
(2.98124 0.00760272 0)
(2.9525 0.0188537 0)
(2.87565 0.0489357 0)
(2.65878 0.133071 0)
(2.04922 0.392451 0)
(1.38629 0.795953 0)
(1.19133 0.840491 0)
(1.18093 0.836292 0)
(1.20057 0.816241 0)
(1.22977 0.78692 0)
(1.25163 0.754969 0)
(1.27018 0.717772 0)
(3 1.0622e-08 0)
(3 6.54546e-08 0)
(3 2.29375e-07 0)
(3 6.38983e-07 0)
(3 1.69015e-06 0)
(2.99999 4.23077e-06 0)
(2.99997 1.05041e-05 0)
(2.99994 2.58924e-05 0)
(2.99985 6.2996e-05 0)
(2.99963 0.000155965 0)
(2.99911 0.00037615 0)
(2.99781 0.000936042 0)
(2.9947 0.00225803 0)
(2.98685 0.00564372 0)
(2.96736 0.0138981 0)
(2.91608 0.0356016 0)
(2.77473 0.0953702 0)
(2.36459 0.274682 0)
(1.62218 0.705971 0)
(1.2583 0.837499 0)
(1.20775 0.838125 0)
(1.21209 0.814519 0)
(1.23086 0.775988 0)
(1.24798 0.731034 0)
(1.26104 0.683258 0)
(3 7.40004e-09 0)
(3 4.82526e-08 0)
(3 1.601e-07 0)
(3 4.69119e-07 0)
(3 1.18075e-06 0)
(2.99999 3.06159e-06 0)
(2.99998 7.40261e-06 0)
(2.99996 1.84415e-05 0)
(2.99989 4.47898e-05 0)
(2.99975 0.000109267 0)
(2.99937 0.000269451 0)
(2.99849 0.000645894 0)
(2.99626 0.00162221 0)
(2.99093 0.00386118 0)
(2.97741 0.00978661 0)
(2.94301 0.0241156 0)
(2.85022 0.0636106 0)
(2.5855 0.176219 0)
(1.90989 0.508246 0)
(1.36044 0.815704 0)
(1.22764 0.83617 0)
(1.21484 0.802049 0)
(1.22473 0.755427 0)
(1.23694 0.700953 0)
(1.24843 0.645743 0)
(3 5.17819e-09 0)
(3 3.37497e-08 0)
(3 1.1411e-07 0)
(3 3.26972e-07 0)
(3 8.42619e-07 0)
(2.99999 2.14377e-06 0)
(2.99999 5.212e-06 0)
(2.99997 1.30745e-05 0)
(2.99993 3.11429e-05 0)
(2.99982 7.85884e-05 0)
(2.99956 0.000184859 0)
(2.99894 0.000469062 0)
(2.99738 0.00110362 0)
(2.99365 0.00280381 0)
(2.98421 0.00669493 0)
(2.96061 0.0169956 0)
(2.89784 0.0430488 0)
(2.7226 0.116786 0)
(2.22142 0.339981 0)
(1.52667 0.768735 0)
(1.24147 0.833206 0)
(1.20052 0.787528 0)
(1.20744 0.726121 0)
(1.2195 0.66412 0)
(1.23271 0.604346 0)
(3 3.71421e-09 0)
(3 2.2874e-08 0)
(3 8.05773e-08 0)
(3 2.21833e-07 0)
(3 5.93317e-07 0)
(3 1.45714e-06 0)
(2.99999 3.65758e-06 0)
(2.99998 8.90911e-06 0)
(2.99995 2.17341e-05 0)
(2.99988 5.35808e-05 0)
(2.9997 0.000128302 0)
(2.99926 0.000320659 0)
(2.99821 0.000759019 0)
(2.99559 0.0019197 0)
(2.98922 0.00455291 0)
(2.97321 0.0115592 0)
(2.9321 0.0286522 0)
(2.82039 0.0765159 0)
(2.50023 0.216381 0)
(1.77753 0.594308 0)
(1.28885 0.793609 0)
(1.17864 0.757601 0)
(1.17998 0.686539 0)
(1.19714 0.620398 0)
(1.21551 0.559768 0)
(3 2.52123e-09 0)
(3 1.52455e-08 0)
(3 5.40992e-08 0)
(3 1.4808e-07 0)
(3 3.96945e-07 0)
(3 9.69592e-07 0)
(2.99999 2.45549e-06 0)
(2.99998 5.87311e-06 0)
(2.99996 1.46005e-05 0)
(2.99991 3.49836e-05 0)
(2.99978 8.61352e-05 0)
(2.99947 0.000207673 0)
(2.99871 0.000508015 0)
(2.99681 0.00123308 0)
(2.99224 0.00301336 0)
(2.98066 0.00740911 0)
(2.95142 0.0183723 0)
(2.87244 0.047448 0)
(2.64982 0.128991 0)
(2.03834 0.378345 0)
(1.35128 0.753618 0)
(1.12549 0.724847 0)
(1.12787 0.644574 0)
(1.16103 0.573877 0)
(1.19377 0.516157 0)
(3 1.65042e-09 0)
(3 1.00681e-08 0)
(3 3.53233e-08 0)
(3 9.77054e-08 0)
(3 2.58838e-07 0)
(3 6.37147e-07 0)
(3 1.60358e-06 0)
(2.99999 3.8259e-06 0)
(2.99997 9.57016e-06 0)
(2.99993 2.26015e-05 0)
(2.99984 5.64658e-05 0)
(2.99961 0.000133729 0)
(2.99906 0.000331354 0)
(2.99768 0.000793583 0)
(2.99437 0.0019566 0)
(2.98599 0.0047587 0)
(2.96524 0.0118077 0)
(2.91026 0.0299955 0)
(2.75934 0.080486 0)
(2.3284 0.233715 0)
(1.49744 0.604108 0)
(1.08116 0.655237 0)
(1.06639 0.594027 0)
(1.11688 0.532043 0)
(1.17342 0.48312 0)
(3 1.06144e-09 0)
(3 6.35377e-09 0)
(3 2.25387e-08 0)
(3 6.14786e-08 0)
(3 1.63781e-07 0)
(3 3.98574e-07 0)
(3 1.00792e-06 0)
(2.99999 2.36895e-06 0)
(2.99998 5.96111e-06 0)
(2.99995 1.38014e-05 0)
(2.99988 3.46867e-05 0)
(2.9997 8.05531e-05 0)
(2.99926 0.000199625 0)
(2.99816 0.000469961 0)
(2.99554 0.00114793 0)
(2.98886 0.00275244 0)
(2.97235 0.00671988 0)
(2.92888 0.0165793 0)
(2.80907 0.0429159 0)
(2.46741 0.117393 0)
(1.62265 0.341794 0)
(1.02411 0.541895 0)
(0.971937 0.521895 0)
(1.0469 0.486226 0)
(1.13309 0.457224 0)
(3 6.21443e-10 0)
(3 4.25509e-09 0)
(3 1.35859e-08 0)
(3 4.12263e-08 0)
(3 9.96792e-08 0)
(3 2.66611e-07 0)
(3 6.16474e-07 0)
(2.99999 1.58342e-06 0)
(2.99998 3.66991e-06 0)
(2.99996 9.18066e-06 0)
(2.9999 2.16967e-05 0)
(2.99975 5.2733e-05 0)
(2.99939 0.00012802 0)
(2.99847 0.000302243 0)
(2.99627 0.000751587 0)
(2.99063 0.00176131 0)
(2.9767 0.00441372 0)
(2.94005 0.0106979 0)
(2.83887 0.0276568 0)
(2.54627 0.0743362 0)
(1.74385 0.213365 0)
(0.980682 0.459819 0)
(0.846845 0.444922 0)
(0.950412 0.428384 0)
(1.06861 0.428086 0)
(3 4.27073e-10 0)
(3 2.77581e-09 0)
(3 9.31127e-09 0)
(3 2.68832e-08 0)
(3 6.86877e-08 0)
(3 1.75295e-07 0)
(3 4.26499e-07 0)
(2.99999 1.05612e-06 0)
(2.99999 2.54805e-06 0)
(2.99996 6.25806e-06 0)
(2.99991 1.51019e-05 0)
(2.99978 3.68692e-05 0)
(2.99947 8.92766e-05 0)
(2.99868 0.000216902 0)
(2.99676 0.000528334 0)
(2.9919 0.00128346 0)
(2.97979 0.00314987 0)
(2.94805 0.00782213 0)
(2.86102 0.0201401 0)
(2.60729 0.0548811 0)
(1.87736 0.156939 0)
(0.974388 0.395681 0)
(0.7129 0.364775 0)
(0.850788 0.359174 0)
(0.999294 0.387277 0)
(3 3.02576e-10 0)
(3 1.89732e-09 0)
(3 6.49464e-09 0)
(3 1.84328e-08 0)
(3 4.79033e-08 0)
(3 1.20283e-07 0)
(3 3.02579e-07 0)
(2.99999 7.29708e-07 0)
(2.99999 1.84692e-06 0)
(2.99997 4.36289e-06 0)
(2.99992 1.11277e-05 0)
(2.99981 2.619e-05 0)
(2.99954 6.70446e-05 0)
(2.99883 0.000156802 0)
(2.99715 0.000404283 0)
(2.99282 0.00094509 0)
(2.98214 0.00244054 0)
(2.95415 0.00590176 0)
(2.87764 0.0155977 0)
(2.65526 0.0423919 0)
(1.99586 0.122323 0)
(0.991531 0.33684 0)
(0.597967 0.297438 0)
(0.771868 0.301832 0)
(0.944248 0.34238 0)
(3 1.98357e-10 0)
(3 1.3101e-09 0)
(3 4.19399e-09 0)
(3 1.29027e-08 0)
(3 3.14732e-08 0)
(3 8.38033e-08 0)
(3 2.0399e-07 0)
(3 5.02187e-07 0)
(2.99999 1.28394e-06 0)
(2.99997 2.97949e-06 0)
(2.99993 8.011e-06 0)
(2.99983 1.77811e-05 0)
(2.99958 5.00386e-05 0)
(2.99896 0.000107638 0)
(2.99741 0.00031232 0)
(2.9936 0.000669741 0)
(2.98392 0.00191269 0)
(2.95899 0.00442296 0)
(2.89127 0.0122407 0)
(2.69429 0.0331699 0)
(2.10571 0.0978357 0)
(1.03127 0.286543 0)
(0.52746 0.253938 0)
(0.725405 0.266314 0)
(0.902558 0.299904 0)
(3 1.64856e-10 0)
(3 7.98398e-10 0)
(3 3.46987e-09 0)
(3 7.82544e-09 0)
(3 2.56379e-08 0)
(3 5.35628e-08 0)
(3 1.57568e-07 0)
(3 3.40577e-07 0)
(2.99999 9.26696e-07 0)
(2.99997 2.15486e-06 0)
(2.99994 5.44426e-06 0)
(2.99985 1.36911e-05 0)
(2.99961 3.17656e-05 0)
(2.99905 8.79326e-05 0)
(2.99762 0.000190053 0)
(2.99415 0.000555367 0)
(2.98527 0.00120387 0)
(2.96276 0.00341579 0)
(2.90161 0.00845339 0)
(2.72631 0.0239454 0)
(2.20178 0.0705865 0)
(1.08518 0.216457 0)
(0.495229 0.219346 0)
(0.696476 0.241337 0)
(0.867579 0.263572 0)
(3 8.50138e-11 0)
(3 7.34844e-10 0)
(3 2.11871e-09 0)
(3 7.10017e-09 0)
(3 1.59097e-08 0)
(3 4.78836e-08 0)
(3 9.63885e-08 0)
(3 3.04911e-07 0)
(2.99999 5.67554e-07 0)
(2.99998 1.87458e-06 0)
(2.99994 3.4179e-06 0)
(2.99985 1.12812e-05 0)
(2.99964 2.11255e-05 0)
(2.9991 6.65503e-05 0)
(2.9978 0.000132716 0)
(2.99445 0.000397149 0)
(2.9863 0.00085025 0)
(2.96506 0.0024131 0)
(2.90835 0.00578652 0)
(2.74639 0.0163697 0)
(2.26241 0.0471494 0)
(1.13505 0.144296 0)
(0.483399 0.198198 0)
(0.676432 0.227846 0)
(0.836568 0.235984 0)
(3 8.76904e-11 0)
(3 5.58342e-10 0)
(3 1.88466e-09 0)
(3 5.45766e-09 0)
(3 1.36187e-08 0)
(3 3.59015e-08 0)
(3 8.48503e-08 0)
(3 2.18694e-07 0)
(2.99999 5.24086e-07 0)
(2.99998 1.31477e-06 0)
(2.99994 3.14845e-06 0)
(2.99986 7.89728e-06 0)
(2.99966 1.91977e-05 0)
(2.99915 4.68315e-05 0)
(2.9979 0.000116683 0)
(2.99475 0.000280849 0)
(2.98696 0.000715478 0)
(2.96685 0.00175428 0)
(2.91332 0.00455841 0)
(2.76051 0.012273 0)
(2.30575 0.0352337 0)
(1.19322 0.106327 0)
(0.503112 0.185207 0)
(0.66526 0.216892 0)
(0.809316 0.207198 0)
(3 1.00939e-10 0)
(3 3.8753e-10 0)
(3 1.9867e-09 0)
(3 3.80158e-09 0)
(3 1.4348e-08 0)
(3 2.5094e-08 0)
(3 8.79526e-08 0)
(3 1.52176e-07 0)
(2.99999 5.21654e-07 0)
(2.99998 9.2739e-07 0)
(2.99995 3.00603e-06 0)
(2.99987 5.85427e-06 0)
(2.99967 1.69731e-05 0)
(2.99918 3.76495e-05 0)
(2.998 9.60202e-05 0)
(2.99495 0.000236491 0)
(2.98753 0.000561394 0)
(2.96826 0.00143 0)
(2.91712 0.00361814 0)
(2.77183 0.00969369 0)
(2.33955 0.027779 0)
(1.24924 0.084624 0)
(0.537797 0.166351 0)
(0.65798 0.199666 0)
(0.784004 0.180521 0)
(3 6.08327e-11 0)
(3 4.53537e-10 0)
(3 1.27358e-09 0)
(3 4.31033e-09 0)
(3 9.75528e-09 0)
(3 2.64236e-08 0)
(3 6.53747e-08 0)
(3 1.48652e-07 0)
(2.99999 4.17022e-07 0)
(2.99998 7.93281e-07 0)
(2.99995 2.66284e-06 0)
(2.99987 4.26736e-06 0)
(2.99968 1.64577e-05 0)
(2.99921 2.39361e-05 0)
(2.99806 9.92333e-05 0)
(2.99513 0.000144436 0)
(2.98795 0.00057123 0)
(2.96942 0.00100007 0)
(2.92012 0.00318875 0)
(2.78079 0.00768729 0)
(2.36694 0.0227042 0)
(1.29916 0.0695989 0)
(0.575931 0.147841 0)
(0.654588 0.175718 0)
(0.765481 0.159766 0)
(3 3.56444e-11 0)
(3 4.49168e-10 0)
(3 9.0768e-10 0)
(3 4.29657e-09 0)
(3 6.89036e-09 0)
(3 2.67074e-08 0)
(3 4.56899e-08 0)
(3 1.55343e-07 0)
(2.99999 2.95965e-07 0)
(2.99998 8.67191e-07 0)
(2.99995 1.91541e-06 0)
(2.99988 4.75602e-06 0)
(2.99969 1.23995e-05 0)
(2.99925 2.48716e-05 0)
(2.9981 7.98893e-05 0)
(2.99534 0.00013302 0)
(2.98824 0.000482852 0)
(2.97044 0.000878588 0)
(2.92267 0.00269572 0)
(2.78795 0.00659538 0)
(2.39038 0.0192542 0)
(1.34489 0.0589086 0)
(0.611809 0.131255 0)
(0.652863 0.146925 0)
(0.753864 0.141379 0)
(3 5.5413e-11 0)
(3 2.20535e-10 0)
(3 1.16875e-09 0)
(3 2.23968e-09 0)
(3 8.15309e-09 0)
(3 1.60476e-08 0)
(3 4.66143e-08 0)
(3 1.04407e-07 0)
(2.99999 2.5665e-07 0)
(2.99998 6.95384e-07 0)
(2.99995 1.38254e-06 0)
(2.99988 4.52605e-06 0)
(2.9997 7.80443e-06 0)
(2.99927 2.89283e-05 0)
(2.99815 4.40202e-05 0)
(2.99547 0.000179379 0)
(2.98857 0.000271908 0)
(2.97125 0.00100598 0)
(2.92494 0.00203894 0)
(2.79425 0.00603341 0)
(2.41045 0.0166043 0)
(1.3881 0.0500798 0)
(0.640638 0.114478 0)
(0.650145 0.120907 0)
(0.747849 0.123169 0)
(3 4.86133e-11 0)
(3 1.71497e-10 0)
(3 1.00538e-09 0)
(3 1.69163e-09 0)
(3 6.99912e-09 0)
(3 1.24324e-08 0)
(3 3.88254e-08 0)
(3 8.17333e-08 0)
(2.99999 2.05991e-07 0)
(2.99998 5.53959e-07 0)
(2.99995 1.05482e-06 0)
(2.99988 3.67064e-06 0)
(2.99971 5.56966e-06 0)
(2.99928 2.45773e-05 0)
(2.99822 3.01896e-05 0)
(2.99553 0.000157665 0)
(2.98892 0.00020412 0)
(2.97191 0.000887404 0)
(2.92683 0.00172129 0)
(2.80013 0.00533721 0)
(2.4269 0.0144796 0)
(1.42644 0.0420359 0)
(0.664122 0.0971163 0)
(0.646553 0.100767 0)
(0.742971 0.104828 0)
(3 1.74578e-11 0)
(3 2.46753e-10 0)
(3 4.13655e-10 0)
(3 2.41579e-09 0)
(3 3.17883e-09 0)
(3 1.46799e-08 0)
(3 2.20099e-08 0)
(3 7.9242e-08 0)
(2.99999 1.49562e-07 0)
(2.99998 4.13637e-07 0)
(2.99995 1.05605e-06 0)
(2.99988 2.02149e-06 0)
(2.99972 7.2013e-06 0)
(2.99929 1.00856e-05 0)
(2.99827 4.92852e-05 0)
(2.99562 5.66968e-05 0)
(2.98918 0.000314907 0)
(2.97251 0.000469395 0)
(2.92862 0.00176925 0)
(2.80504 0.00425745 0)
(2.4413 0.012511 0)
(1.45783 0.0348739 0)
(0.683799 0.0808925 0)
(0.64316 0.0829728 0)
(0.738704 0.0873947 0)
(3 2.51245e-11 0)
(3 1.19934e-10 0)
(3 5.07907e-10 0)
(3 1.10686e-09 0)
(3 3.73842e-09 0)
(3 6.87626e-09 0)
(3 2.39617e-08 0)
(3 3.94529e-08 0)
(2.99999 1.42498e-07 0)
(2.99998 2.28717e-07 0)
(2.99995 8.7459e-07 0)
(2.99989 1.39034e-06 0)
(2.99972 5.20803e-06 0)
(2.99931 9.46009e-06 0)
(2.99826 3.01382e-05 0)
(2.99575 6.68376e-05 0)
(2.98927 0.000186567 0)
(2.97312 0.000461205 0)
(2.93005 0.00125852 0)
(2.80904 0.0034909 0)
(2.45365 0.0100895 0)
(1.48404 0.0283543 0)
(0.700952 0.0660586 0)
(0.640332 0.0666333 0)
(0.734765 0.0707983 0)
(3 1.21401e-11 0)
(3 1.23657e-10 0)
(3 3.2204e-10 0)
(3 1.09419e-09 0)
(3 2.43001e-09 0)
(3 6.53033e-09 0)
(3 1.44395e-08 0)
(3 3.96409e-08 0)
(2.99999 8.19086e-08 0)
(2.99998 2.32489e-07 0)
(2.99996 4.63284e-07 0)
(2.99989 1.52813e-06 0)
(2.99973 2.85419e-06 0)
(2.99931 9.01089e-06 0)
(2.99831 1.95749e-05 0)
(2.99575 5.39971e-05 0)
(2.98951 0.000129533 0)
(2.97342 0.000361247 0)
(2.93115 0.000906635 0)
(2.81261 0.0026225 0)
(2.46291 0.00761918 0)
(1.50657 0.022324 0)
(0.715671 0.0525215 0)
(0.638169 0.0517987 0)
(0.731193 0.0552927 0)
(3 -3.4434e-12 0)
(3 1.49201e-10 0)
(3 4.2256e-11 0)
(3 1.49766e-09 0)
(3 5.00841e-10 0)
(3 9.04534e-09 0)
(3 2.92012e-09 0)
(3 5.03424e-08 0)
(2.99999 2.4592e-08 0)
(2.99998 2.63268e-07 0)
(2.99996 2.4152e-07 0)
(2.99989 1.28628e-06 0)
(2.99972 2.1736e-06 0)
(2.99933 6.18988e-06 0)
(2.9983 1.91095e-05 0)
(2.99584 2.83748e-05 0)
(2.98953 0.000133142 0)
(2.97377 0.000202524 0)
(2.93196 0.000742349 0)
(2.81475 0.00184929 0)
(2.47086 0.00547424 0)
(1.52499 0.0169187 0)
(0.728263 0.0399408 0)
(0.636749 0.0383525 0)
(0.728108 0.0409736 0)
(3 4.59151e-12 0)
(3 6.06834e-11 0)
(3 1.48406e-10 0)
(3 5.99549e-10 0)
(3 1.04301e-09 0)
(3 4.21412e-09 0)
(3 4.68412e-09 0)
(3 2.96444e-08 0)
(2.99999 1.85131e-08 0)
(2.99998 1.97021e-07 0)
(2.99996 8.40689e-08 0)
(2.99989 1.24562e-06 0)
(2.99973 3.03095e-07 0)
(2.99932 8.53542e-06 0)
(2.99833 1.0463e-06 0)
(2.99584 5.10096e-05 0)
(2.98965 2.63884e-05 0)
(2.97391 0.000253269 0)
(2.93259 0.000377114 0)
(2.81646 0.00143112 0)
(2.47639 0.00375831 0)
(1.53933 0.0119359 0)
(0.73789 0.0280402 0)
(0.635736 0.0261924 0)
(0.725382 0.0279893 0)
(3 1.77937e-11 0)
(3 -2.43253e-11 0)
(3 3.06343e-10 0)
(3 -2.37102e-10 0)
(3 1.96315e-09 0)
(3 -9.199e-10 0)
(3 1.09315e-08 0)
(3 -1.25071e-09 0)
(2.99999 5.91492e-08 0)
(2.99998 2.33452e-08 0)
(2.99996 2.34325e-07 0)
(2.99989 4.2922e-07 0)
(2.99973 7.40777e-07 0)
(2.99933 3.70992e-06 0)
(2.99834 1.25812e-06 0)
(2.99586 2.87591e-05 0)
(2.9897 4.08766e-06 0)
(2.97406 0.000166808 0)
(2.93296 0.000182737 0)
(2.8176 0.000862203 0)
(2.48006 0.00219053 0)
(1.54884 0.00711127 0)
(0.744399 0.0166547 0)
(0.634992 0.0151373 0)
(0.723287 0.016148 0)
(3 1.60538e-11 0)
(3 -4.62346e-11 0)
(3 2.80192e-10 0)
(3 -4.15603e-10 0)
(3 1.79502e-09 0)
(3 -1.7969e-09 0)
(3 9.08145e-09 0)
(3 -7.0699e-09 0)
(2.99999 4.25089e-08 0)
(2.99998 -3.90159e-09 0)
(2.99996 1.16229e-07 0)
(2.99989 2.33106e-07 0)
(2.99973 -2.04268e-09 0)
(2.99932 2.69019e-06 0)
(2.99835 -3.41455e-06 0)
(2.99584 2.2727e-05 0)
(2.98977 -2.70437e-05 0)
(2.97407 0.000109773 0)
(2.93314 -1.78356e-05 0)
(2.8183 0.000362774 0)
(2.48158 0.000651305 0)
(1.55412 0.00239652 0)
(0.747719 0.00555437 0)
(0.634623 0.00497286 0)
(0.722035 0.00534369 0)
(1.11338 0.996802 0)
(0.986355 0.706321 0)
(0.063887 0.418703 0)
(-0.423738 0.0172236 0)
(-0.553329 -0.0109948 0)
(-0.688599 -0.0239876 0)
(-0.735761 -0.0124424 0)
(-0.772541 0.00971047 0)
(-0.820574 0.0176549 0)
(-0.867806 0.0155988 0)
(-0.901548 0.00815819 0)
(-0.917148 0.00200977 0)
(-0.918567 -0.00228875 0)
(-0.912241 -0.00489592 0)
(-0.899999 -0.00552113 0)
(-0.879399 -0.00591024 0)
(-0.850148 -0.00715797 0)
(-0.814171 -0.00850663 0)
(-0.774573 -0.00930229 0)
(-0.732673 -0.00980977 0)
(-0.689274 -0.0102549 0)
(-0.644724 -0.0106688 0)
(-0.599106 -0.0111584 0)
(-0.552612 -0.0116897 0)
(-0.505335 -0.0122604 0)
(-0.457377 -0.0130083 0)
(-0.408171 -0.0144694 0)
(-0.358061 -0.0159458 0)
(-0.30825 -0.0170851 0)
(-0.258943 -0.0180193 0)
(-0.210406 -0.0191223 0)
(-0.162589 -0.0202205 0)
(-0.115127 -0.0211963 0)
(-0.0681246 -0.0222012 0)
(-0.0236728 -0.0245163 0)
(0.0272517 -0.0247239 0)
(0.07422 -0.0231981 0)
(0.117929 -0.0218883 0)
(0.160882 -0.0212285 0)
(0.202142 -0.0205814 0)
(0.242147 -0.0197807 0)
(0.280014 -0.018967 0)
(0.316094 -0.0183522 0)
(0.353286 -0.0183001 0)
(0.391437 -0.0185027 0)
(0.428346 -0.0179466 0)
(0.46386 -0.0171452 0)
(0.498382 -0.0164948 0)
(0.532088 -0.0159056 0)
(0.565078 -0.0154063 0)
(0.597326 -0.0148741 0)
(0.628932 -0.0143743 0)
(0.659871 -0.0138689 0)
(0.690201 -0.013378 0)
(0.719923 -0.0128935 0)
(0.749054 -0.0124204 0)
(0.777619 -0.0119506 0)
(0.805626 -0.0115017 0)
(0.833082 -0.0110514 0)
(0.860016 -0.0106231 0)
(0.88643 -0.0101945 0)
(0.912349 -0.00978585 0)
(0.937769 -0.00937815 0)
(0.962718 -0.00898486 0)
(0.987191 -0.00859687 0)
(1.01121 -0.00821754 0)
(1.03476 -0.00784478 0)
(1.05787 -0.00747798 0)
(1.08052 -0.00711605 0)
(1.10273 -0.00675961 0)
(1.12449 -0.00640714 0)
(1.1458 -0.00606067 0)
(1.16667 -0.00571882 0)
(1.1871 -0.00538452 0)
(1.2071 -0.00505695 0)
(1.22669 -0.00473906 0)
(1.24586 -0.00442913 0)
(1.26463 -0.00413026 0)
(1.28302 -0.0038409 0)
(1.30102 -0.0035617 0)
(1.31864 -0.00329191 0)
(1.33589 -0.00303126 0)
(1.35276 -0.00278024 0)
(1.36925 -0.00254032 0)
(1.38535 -0.00231552 0)
(1.40104 -0.00210072 0)