/*--------------------------------*- C++ -*----------------------------------*\
  =========                 |
  \\      /  F ield         | OpenFOAM: The Open Source CFD Toolbox
   \\    /   O peration     | Website:  https://openfoam.org
    \\  /    A nd           | Version:  10
     \\/     M anipulation  |
\*---------------------------------------------------------------------------*/
FoamFile
{
    format      ascii;
    class       volScalarField;
    location    "0.34";
    object      Exp1;
}
// * * * * * * * * * * * * * * * * * * * * * * * * * * * * * * * * * * * * * //

dimensions      [0 0 0 0 0 0 0];

internalField   uniform 0;

boundaryField
{
    frontAndBack
    {
        type            empty;
    }
    inlet
    {
        type            calculated;
        value           uniform 0;
    }
    outlet
    {
        type            calculated;
        value           uniform 0;
    }
    substrate
    {
        type            calculated;
        value           nonuniform List<scalar> 
400
(
2.05509e-07
6.15389e-07
1.0226e-06
1.42593e-06
1.82432e-06
2.21685e-06
2.60267e-06
2.98107e-06
3.35139e-06
3.71306e-06
4.0656e-06
4.40859e-06
4.74168e-06
5.06457e-06
5.37705e-06
5.67893e-06
5.97009e-06
6.25046e-06
6.51999e-06
6.77869e-06
7.02659e-06
7.26375e-06
7.49027e-06
7.70625e-06
7.91184e-06
8.10718e-06
8.29243e-06
8.46779e-06
8.63342e-06
8.78953e-06
8.93632e-06
9.074e-06
9.20278e-06
9.32286e-06
9.43447e-06
9.53782e-06
9.63311e-06
9.72057e-06
9.8004e-06
9.87281e-06
9.93801e-06
9.99619e-06
1.00476e-05
1.00923e-05
1.01307e-05
1.01627e-05
1.01888e-05
1.0209e-05
1.02234e-05
1.02324e-05
1.0236e-05
1.02345e-05
1.02279e-05
1.02164e-05
1.02003e-05
1.01796e-05
1.01545e-05
1.01251e-05
1.00916e-05
1.00542e-05
1.00129e-05
9.96791e-06
9.91936e-06
9.86737e-06
9.81208e-06
9.7536e-06
9.69206e-06
9.62757e-06
9.56026e-06
9.49024e-06
9.41763e-06
9.34254e-06
9.26507e-06
9.18534e-06
9.10345e-06
9.01951e-06
8.93362e-06
8.84588e-06
8.75639e-06
8.66524e-06
8.57254e-06
8.47837e-06
8.38283e-06
8.28602e-06
8.18801e-06
8.0889e-06
7.98877e-06
7.8877e-06
7.78579e-06
7.6831e-06
7.57972e-06
7.47573e-06
7.3712e-06
7.2662e-06
7.16082e-06
7.05512e-06
6.94916e-06
6.84302e-06
6.73677e-06
6.63047e-06
6.52417e-06
6.41795e-06
6.31185e-06
6.20595e-06
6.10029e-06
5.99493e-06
5.88993e-06
5.78533e-06
5.68118e-06
5.57753e-06
5.47443e-06
5.37192e-06
5.27004e-06
5.16885e-06
5.06836e-06
4.96863e-06
4.86969e-06
4.77158e-06
4.67432e-06
4.57796e-06
4.48251e-06
4.38802e-06
4.2945e-06
4.20198e-06
4.11048e-06
4.02004e-06
3.93067e-06
3.84238e-06
3.75521e-06
3.66916e-06
3.58425e-06
3.50049e-06
3.41791e-06
3.33651e-06
3.25629e-06
3.17728e-06
3.09948e-06
3.02289e-06
2.94753e-06
2.87339e-06
2.80049e-06
2.72881e-06
2.65838e-06
2.58918e-06
2.52121e-06
2.45448e-06
2.38898e-06
2.32471e-06
2.26167e-06
2.19985e-06
2.13924e-06
2.07985e-06
2.02165e-06
1.96466e-06
1.90885e-06
1.85422e-06
1.80076e-06
1.74846e-06
1.69731e-06
1.6473e-06
1.59841e-06
1.55064e-06
1.50398e-06
1.4584e-06
1.4139e-06
1.37046e-06
1.32808e-06
1.28673e-06
1.2464e-06
1.20708e-06
1.16875e-06
1.1314e-06
1.09501e-06
1.05956e-06
1.02505e-06
9.91458e-07
9.58763e-07
9.26951e-07
8.96009e-07
8.65918e-07
8.36665e-07
8.08232e-07
7.80603e-07
7.53763e-07
7.27697e-07
7.02387e-07
6.77818e-07
6.53975e-07
6.30841e-07
6.08402e-07
5.86641e-07
5.65544e-07
5.45096e-07
5.2528e-07
5.06083e-07
4.87489e-07
4.69484e-07
4.52053e-07
4.35183e-07
4.18859e-07
4.03066e-07
3.87792e-07
3.73023e-07
3.58746e-07
3.44947e-07
3.31613e-07
3.18733e-07
3.06292e-07
2.9428e-07
2.82683e-07
2.71491e-07
2.60691e-07
2.50273e-07
2.40224e-07
2.30534e-07
2.21193e-07
2.12189e-07
2.03513e-07
1.95155e-07
1.87104e-07
1.79351e-07
1.71887e-07
1.64702e-07
1.57788e-07
1.51135e-07
1.44736e-07
1.38582e-07
1.32665e-07
1.26976e-07
1.21509e-07
1.16256e-07
1.1121e-07
1.06362e-07
1.01708e-07
9.72389e-08
9.29493e-08
8.88328e-08
8.48831e-08
8.10942e-08
7.74604e-08
7.39761e-08
7.06357e-08
6.7434e-08
6.43659e-08
6.14264e-08
5.86106e-08
5.5914e-08
5.33319e-08
5.08601e-08
4.84942e-08
4.62303e-08
4.40642e-08
4.19923e-08
4.00108e-08
3.81162e-08
3.63049e-08
3.45738e-08
3.29194e-08
3.13388e-08
2.9829e-08
2.8387e-08
2.70101e-08
2.56956e-08
2.44409e-08
2.32435e-08
2.2101e-08
2.10112e-08
1.99717e-08
1.89804e-08
1.80353e-08
1.71344e-08
1.62758e-08
1.54576e-08
1.46782e-08
1.39357e-08
1.32286e-08
1.25553e-08
1.19143e-08
1.13042e-08
1.07236e-08
1.01712e-08
9.6456e-09
9.14571e-09
8.67034e-09
8.21834e-09
7.78866e-09
7.38026e-09
6.99216e-09
6.62341e-09
6.27311e-09
5.9404e-09
5.62444e-09
5.32445e-09
5.03966e-09
4.76936e-09
4.51285e-09
4.26947e-09
4.03859e-09
3.8196e-09
3.61193e-09
3.41502e-09
3.22834e-09
3.05141e-09
2.88372e-09
2.72484e-09
2.57432e-09
2.43175e-09
2.29672e-09
2.16886e-09
2.04781e-09
1.93323e-09
1.82478e-09
1.72216e-09
1.62507e-09
1.53323e-09
1.44636e-09
1.36421e-09
1.28654e-09
1.21311e-09
1.1437e-09
1.07811e-09
1.01613e-09
9.57577e-10
9.02265e-10
8.50025e-10
8.00694e-10
7.54118e-10
7.10149e-10
6.68648e-10
6.29483e-10
5.92528e-10
5.57663e-10
5.24776e-10
4.93758e-10
4.6451e-10
4.36933e-10
4.10936e-10
3.86432e-10
3.6334e-10
3.41581e-10
3.21082e-10
3.01772e-10
2.83586e-10
2.6646e-10
2.50336e-10
2.35157e-10
2.2087e-10
2.07425e-10
1.94774e-10
1.82872e-10
1.71677e-10
1.61148e-10
1.51248e-10
1.4194e-10
1.33191e-10
1.24969e-10
1.17243e-10
1.09984e-10
1.03167e-10
9.67643e-11
9.07533e-11
8.5111e-11
7.98159e-11
7.48479e-11
7.01881e-11
6.58185e-11
6.17224e-11
5.78838e-11
5.42878e-11
5.09205e-11
4.77685e-11
4.48195e-11
4.20618e-11
3.94845e-11
3.70773e-11
3.48305e-11
3.27352e-11
3.07829e-11
2.89657e-11
2.72762e-11
2.57075e-11
2.42533e-11
2.29075e-11
2.16647e-11
2.05197e-11
1.94678e-11
1.85046e-11
1.76262e-11
1.68287e-11
1.6109e-11
1.5464e-11
1.4891e-11
1.43876e-11
1.39517e-11
1.35814e-11
1.32752e-11
1.30318e-11
1.28501e-11
1.27295e-11
1.26692e-11
)
;
    }
    Wall
    {
        type            calculated;
        value           nonuniform List<scalar> 
400
(
2.05509e-07
6.15394e-07
1.02261e-06
1.42595e-06
1.82434e-06
2.21687e-06
2.6027e-06
2.98109e-06
3.3514e-06
3.71307e-06
4.06561e-06
4.40859e-06
4.74166e-06
5.06455e-06
5.37701e-06
5.67889e-06
5.97004e-06
6.2504e-06
6.51992e-06
6.77861e-06
7.0265e-06
7.26365e-06
7.49016e-06
7.70614e-06
7.91171e-06
8.10705e-06
8.29229e-06
8.46764e-06
8.63326e-06
8.78937e-06
8.93615e-06
9.07382e-06
9.20259e-06
9.32267e-06
9.43427e-06
9.53761e-06
9.6329e-06
9.72036e-06
9.80018e-06
9.87259e-06
9.93778e-06
9.99596e-06
1.00473e-05
1.00921e-05
1.01304e-05
1.01625e-05
1.01885e-05
1.02087e-05
1.02232e-05
1.02321e-05
1.02358e-05
1.02342e-05
1.02276e-05
1.02161e-05
1.02e-05
1.01793e-05
1.01542e-05
1.01248e-05
1.00913e-05
1.00539e-05
1.00126e-05
9.96763e-06
9.91908e-06
9.8671e-06
9.8118e-06
9.75332e-06
9.69178e-06
9.62729e-06
9.55998e-06
9.48997e-06
9.41735e-06
9.34226e-06
9.2648e-06
9.18507e-06
9.10318e-06
9.01924e-06
8.93335e-06
8.84561e-06
8.75612e-06
8.66498e-06
8.57228e-06
8.47811e-06
8.38258e-06
8.28576e-06
8.18776e-06
8.08865e-06
7.98852e-06
7.88746e-06
7.78554e-06
7.68286e-06
7.57949e-06
7.4755e-06
7.37097e-06
7.26598e-06
7.1606e-06
7.0549e-06
6.94894e-06
6.84281e-06
6.73656e-06
6.63026e-06
6.52397e-06
6.41774e-06
6.31166e-06
6.20576e-06
6.1001e-06
5.99475e-06
5.88974e-06
5.78514e-06
5.681e-06
5.57735e-06
5.47426e-06
5.37175e-06
5.26988e-06
5.16868e-06
5.0682e-06
4.96848e-06
4.86954e-06
4.77143e-06
4.67418e-06
4.57781e-06
4.48237e-06
4.38788e-06
4.29436e-06
4.20184e-06
4.11035e-06
4.01991e-06
3.93054e-06
3.84226e-06
3.75509e-06
3.66904e-06
3.58413e-06
3.50038e-06
3.4178e-06
3.3364e-06
3.25619e-06
3.17718e-06
3.09938e-06
3.0228e-06
2.94744e-06
2.8733e-06
2.8004e-06
2.72873e-06
2.65829e-06
2.5891e-06
2.52113e-06
2.4544e-06
2.38891e-06
2.32464e-06
2.2616e-06
2.19978e-06
2.13918e-06
2.07978e-06
2.02159e-06
1.9646e-06
1.90879e-06
1.85416e-06
1.80071e-06
1.74841e-06
1.69726e-06
1.64725e-06
1.59836e-06
1.5506e-06
1.50393e-06
1.45835e-06
1.41386e-06
1.37042e-06
1.32804e-06
1.28669e-06
1.24636e-06
1.20704e-06
1.16871e-06
1.13136e-06
1.09498e-06
1.05953e-06
1.02502e-06
9.9143e-07
9.58735e-07
9.26925e-07
8.95983e-07
8.65894e-07
8.36641e-07
8.08209e-07
7.80581e-07
7.53742e-07
7.27676e-07
7.02367e-07
6.77799e-07
6.53957e-07
6.30824e-07
6.08385e-07
5.86625e-07
5.65529e-07
5.45081e-07
5.25266e-07
5.06069e-07
4.87476e-07
4.69472e-07
4.52042e-07
4.35172e-07
4.18848e-07
4.03056e-07
3.87782e-07
3.73014e-07
3.58737e-07
3.44938e-07
3.31605e-07
3.18725e-07
3.06285e-07
2.94272e-07
2.82676e-07
2.71484e-07
2.60685e-07
2.50267e-07
2.40218e-07
2.30529e-07
2.21188e-07
2.12184e-07
2.03509e-07
1.9515e-07
1.87099e-07
1.79347e-07
1.71883e-07
1.64698e-07
1.57784e-07
1.51132e-07
1.44733e-07
1.38579e-07
1.32662e-07
1.26974e-07
1.21507e-07
1.16254e-07
1.11207e-07
1.0636e-07
1.01706e-07
9.72369e-08
9.29475e-08
8.8831e-08
8.48814e-08
8.10926e-08
7.74589e-08
7.39747e-08
7.06344e-08
6.74328e-08
6.43647e-08
6.14253e-08
5.86096e-08
5.5913e-08
5.3331e-08
5.08592e-08
4.84934e-08
4.62295e-08
4.40635e-08
4.19916e-08
4.00102e-08
3.81156e-08
3.63044e-08
3.45732e-08
3.29189e-08
3.13383e-08
2.98285e-08
2.83866e-08
2.70097e-08
2.56952e-08
2.44405e-08
2.32432e-08
2.21007e-08
2.10109e-08
1.99714e-08
1.89801e-08
1.80351e-08
1.71342e-08
1.62756e-08
1.54574e-08
1.4678e-08
1.39355e-08
1.32284e-08
1.25552e-08
1.19142e-08
1.13041e-08
1.07235e-08
1.0171e-08
9.6455e-09
9.14562e-09
8.67025e-09
8.21827e-09
7.78859e-09
7.3802e-09
6.9921e-09
6.62336e-09
6.27306e-09
5.94035e-09
5.6244e-09
5.32441e-09
5.03962e-09
4.76933e-09
4.51282e-09
4.26944e-09
4.03856e-09
3.81958e-09
3.6119e-09
3.415e-09
3.22833e-09
3.05139e-09
2.88371e-09
2.72483e-09
2.57431e-09
2.43174e-09
2.29671e-09
2.16885e-09
2.04781e-09
1.93322e-09
1.82478e-09
1.72216e-09
1.62507e-09
1.53323e-09
1.44636e-09
1.36421e-09
1.28654e-09
1.21311e-09
1.1437e-09
1.07811e-09
1.01613e-09
9.57577e-10
9.02266e-10
8.50026e-10
8.00695e-10
7.54119e-10
7.1015e-10
6.68649e-10
6.29484e-10
5.92529e-10
5.57664e-10
5.24777e-10
4.9376e-10
4.64511e-10
4.36934e-10
4.10938e-10
3.86434e-10
3.63342e-10
3.41583e-10
3.21084e-10
3.01774e-10
2.83588e-10
2.66462e-10
2.50338e-10
2.35159e-10
2.20872e-10
2.07426e-10
1.94775e-10
1.82873e-10
1.71678e-10
1.61149e-10
1.51249e-10
1.41941e-10
1.33192e-10
1.2497e-10
1.17244e-10
1.09985e-10
1.03168e-10
9.67654e-11
9.07543e-11
8.51119e-11
7.98168e-11
7.48488e-11
7.01889e-11
6.58193e-11
6.17232e-11
5.78845e-11
5.42886e-11
5.09212e-11
4.77692e-11
4.48201e-11
4.20624e-11
3.94851e-11
3.70778e-11
3.48311e-11
3.27357e-11
3.07834e-11
2.89661e-11
2.72766e-11
2.57079e-11
2.42537e-11
2.29079e-11
2.16651e-11
2.05201e-11
1.94682e-11
1.8505e-11
1.76265e-11
1.6829e-11
1.61093e-11
1.54643e-11
1.48913e-11
1.43879e-11
1.3952e-11
1.35817e-11
1.32755e-11
1.30321e-11
1.28504e-11
1.27297e-11
1.26694e-11
)
;
    }
}


// ************************************************************************* //
