/*--------------------------------*- C++ -*----------------------------------*\
  =========                 |
  \\      /  F ield         | OpenFOAM: The Open Source CFD Toolbox
   \\    /   O peration     | Website:  https://openfoam.org
    \\  /    A nd           | Version:  10
     \\/     M anipulation  |
\*---------------------------------------------------------------------------*/
FoamFile
{
    format      ascii;
    class       volScalarField;
    location    "0.34";
    object      growth;
}
// * * * * * * * * * * * * * * * * * * * * * * * * * * * * * * * * * * * * * //

dimensions      [0 0 0 0 0 0 0];

internalField   uniform 0;

boundaryField
{
    frontAndBack
    {
        type            empty;
    }
    inlet
    {
        type            calculated;
        value           uniform 0;
    }
    outlet
    {
        type            calculated;
        value           uniform 0;
    }
    substrate
    {
        type            calculated;
        value           nonuniform List<scalar> 
400
(
0.734673
0.712424
0.691346
0.670897
0.650824
0.630999
0.611363
0.591892
0.572583
0.553447
0.534501
0.515768
0.497274
0.479045
0.461108
0.443488
0.426209
0.409292
0.392757
0.376622
0.360902
0.345609
0.330752
0.31634
0.302378
0.288868
0.275813
0.263212
0.251062
0.23936
0.2281
0.217276
0.206881
0.196906
0.187342
0.178179
0.169407
0.161016
0.152993
0.145328
0.138008
0.131023
0.124361
0.118009
0.111957
0.106192
0.100704
0.0954817
0.0905134
0.0857888
0.0812975
0.0770295
0.0729748
0.0691239
0.0654675
0.0619968
0.0587032
0.0555783
0.0526141
0.049803
0.0471376
0.0446108
0.0422158
0.0399461
0.0377955
0.0357581
0.0338282
0.0320003
0.0302694
0.0286303
0.0270785
0.0256094
0.0242188
0.0229026
0.0216569
0.0204781
0.0193627
0.0183073
0.0173087
0.0163641
0.0154705
0.0146252
0.0138257
0.0130694
0.0123542
0.0116779
0.0110382
0.0104334
0.00986142
0.00932061
0.00880927
0.0083258
0.0078687
0.00743655
0.00702801
0.00664178
0.00627667
0.00593152
0.00560526
0.00529685
0.00500534
0.00472979
0.00446934
0.00422317
0.0039905
0.0037706
0.00356276
0.00336632
0.00318068
0.00300522
0.00283941
0.00268271
0.00253462
0.00239467
0.00226242
0.00213744
0.00201934
0.00190774
0.00180228
0.00170263
0.00160846
0.00151948
0.0014354
0.00135595
0.00128088
0.00120995
0.00114293
0.00107961
0.00101978
0.000963245
0.000909833
0.000859368
0.000811689
0.000766643
0.000724084
0.000683875
0.000645888
0.00061
0.000576096
0.000544065
0.000513806
0.00048522
0.000458216
0.000432705
0.000408607
0.000385843
0.000364339
0.000344026
0.000324838
0.000306714
0.000289594
0.000273423
0.000258149
0.000243723
0.000230097
0.000217227
0.000205072
0.000193592
0.00018275
0.000172511
0.00016284
0.000153708
0.000145083
0.000136939
0.000129247
0.000121985
0.000115126
0.000108651
0.000102536
9.67617e-05
9.131e-05
8.61627e-05
8.13027e-05
7.67143e-05
7.23824e-05
6.82926e-05
6.44316e-05
6.07868e-05
5.7346e-05
5.40979e-05
5.10319e-05
4.81378e-05
4.54061e-05
4.28277e-05
4.03941e-05
3.80973e-05
3.59295e-05
3.38838e-05
3.19531e-05
3.01312e-05
2.84119e-05
2.67895e-05
2.52587e-05
2.38142e-05
2.24514e-05
2.11656e-05
1.99524e-05
1.8808e-05
1.77283e-05
1.67098e-05
1.5749e-05
1.48428e-05
1.39879e-05
1.31817e-05
1.24213e-05
1.17042e-05
1.10278e-05
1.03901e-05
9.78864e-06
9.22154e-06
8.68682e-06
8.18266e-06
7.70733e-06
7.25921e-06
6.83676e-06
6.43852e-06
6.06313e-06
5.7093e-06
5.3758e-06
5.06148e-06
4.76526e-06
4.4861e-06
4.22304e-06
3.97516e-06
3.74161e-06
3.52155e-06
3.31423e-06
3.11892e-06
2.93493e-06
2.76162e-06
2.59837e-06
2.44462e-06
2.29981e-06
2.16344e-06
2.03501e-06
1.91409e-06
1.80022e-06
1.69302e-06
1.59209e-06
1.49707e-06
1.40763e-06
1.32344e-06
1.2442e-06
1.16962e-06
1.09943e-06
1.03338e-06
9.71228e-07
9.12748e-07
8.57727e-07
8.05964e-07
7.57269e-07
7.11463e-07
6.68378e-07
6.27856e-07
5.89746e-07
5.53907e-07
5.20207e-07
4.88519e-07
4.58727e-07
4.30719e-07
4.04389e-07
3.79639e-07
3.56376e-07
3.34513e-07
3.13966e-07
2.94657e-07
2.76514e-07
2.59468e-07
2.43453e-07
2.28408e-07
2.14275e-07
2.01001e-07
1.88533e-07
1.76824e-07
1.65829e-07
1.55505e-07
1.45811e-07
1.36711e-07
1.28167e-07
1.20148e-07
1.12621e-07
1.05556e-07
9.89267e-08
9.27055e-08
8.68682e-08
8.13915e-08
7.62536e-08
7.14338e-08
6.6913e-08
6.26728e-08
5.86963e-08
5.49673e-08
5.14707e-08
4.81923e-08
4.51188e-08
4.22376e-08
3.95369e-08
3.70056e-08
3.46334e-08
3.24103e-08
3.03272e-08
2.83755e-08
2.6547e-08
2.48341e-08
2.32297e-08
2.17269e-08
2.03195e-08
1.90016e-08
1.77676e-08
1.66122e-08
1.55305e-08
1.45179e-08
1.35701e-08
1.2683e-08
1.18528e-08
1.1076e-08
1.03491e-08
9.66901e-09
9.03279e-09
8.43766e-09
7.881e-09
7.36038e-09
6.87352e-09
6.41827e-09
5.9926e-09
5.59465e-09
5.22264e-09
4.87491e-09
4.5499e-09
4.24616e-09
3.96233e-09
3.69712e-09
3.44935e-09
3.21787e-09
3.00165e-09
2.79969e-09
2.61107e-09
2.43494e-09
2.27047e-09
2.11691e-09
1.97356e-09
1.83974e-09
1.71483e-09
1.59826e-09
1.48948e-09
1.38797e-09
1.29326e-09
1.20491e-09
1.12249e-09
1.04562e-09
9.73929e-10
9.07077e-10
8.44744e-10
7.8663e-10
7.32458e-10
6.81965e-10
6.34907e-10
5.91057e-10
5.50202e-10
5.12141e-10
4.7669e-10
4.43674e-10
4.12932e-10
3.84311e-10
3.57671e-10
3.32878e-10
3.09811e-10
2.88355e-10
2.68401e-10
2.49851e-10
2.3261e-10
2.16593e-10
2.01719e-10
1.87911e-10
1.75101e-10
1.63222e-10
1.52216e-10
1.42024e-10
1.32596e-10
1.23882e-10
1.15838e-10
1.08422e-10
1.01597e-10
9.5326e-11
8.95774e-11
8.43211e-11
7.95298e-11
7.51784e-11
7.12443e-11
6.77068e-11
6.45475e-11
6.17496e-11
5.92986e-11
5.71816e-11
5.53873e-11
5.39063e-11
5.27308e-11
5.18546e-11
5.1273e-11
5.09829e-11
)
;
    }
    Wall
    {
        type            calculated;
        value           nonuniform List<scalar> 
400
(
0.734672
0.712424
0.691346
0.670898
0.650824
0.630999
0.611363
0.591892
0.572583
0.553447
0.534501
0.515768
0.497274
0.479046
0.461109
0.443489
0.42621
0.409294
0.39276
0.376625
0.360905
0.345612
0.330756
0.316344
0.302382
0.288873
0.275818
0.263217
0.251067
0.239365
0.228105
0.217281
0.206886
0.196911
0.187347
0.178184
0.169412
0.161021
0.152998
0.145333
0.138013
0.131028
0.124366
0.118014
0.111961
0.106197
0.100709
0.0954859
0.0905174
0.0857927
0.0813013
0.0770332
0.0729783
0.0691273
0.0654708
0.062
0.0587063
0.0555812
0.0526169
0.0498057
0.0471402
0.0446132
0.0422181
0.0399484
0.0377977
0.0357602
0.0338302
0.0320022
0.0302711
0.028632
0.0270801
0.0256109
0.0242202
0.0229039
0.0216582
0.0204793
0.0193638
0.0183084
0.0173098
0.0163651
0.0154714
0.014626
0.0138265
0.0130702
0.0123549
0.0116785
0.0110389
0.010434
0.00986197
0.00932113
0.00880975
0.00832625
0.00786913
0.00743695
0.00702838
0.00664213
0.00627699
0.00593182
0.00560554
0.00529712
0.00500558
0.00473002
0.00446956
0.00422337
0.00399069
0.00377077
0.00356292
0.00336647
0.00318081
0.00300535
0.00283953
0.00268282
0.00253472
0.00239477
0.00226251
0.00213753
0.00201942
0.00190781
0.00180234
0.00170268
0.00160851
0.00151953
0.00143545
0.00135599
0.00128092
0.00120999
0.00114297
0.00107964
0.0010198
0.000963271
0.000909857
0.000859391
0.00081171
0.000766662
0.000724101
0.000683891
0.000645903
0.000610014
0.000576108
0.000544077
0.000513816
0.00048523
0.000458224
0.000432713
0.000408614
0.000385849
0.000364345
0.000344031
0.000324843
0.000306718
0.000289598
0.000273427
0.000258153
0.000243726
0.0002301
0.00021723
0.000205075
0.000193595
0.000182752
0.000172512
0.000162842
0.000153709
0.000145085
0.00013694
0.000129249
0.000121986
0.000115127
0.000108651
0.000102536
9.67625e-05
9.13107e-05
8.61633e-05
8.13033e-05
7.67148e-05
7.23828e-05
6.8293e-05
6.4432e-05
6.07871e-05
5.73463e-05
5.40982e-05
5.10322e-05
4.81381e-05
4.54063e-05
4.28279e-05
4.03943e-05
3.80975e-05
3.59297e-05
3.38839e-05
3.19532e-05
3.01313e-05
2.8412e-05
2.67896e-05
2.52588e-05
2.38143e-05
2.24515e-05
2.11656e-05
1.99525e-05
1.8808e-05
1.77283e-05
1.67098e-05
1.57491e-05
1.48428e-05
1.3988e-05
1.31818e-05
1.24214e-05
1.17042e-05
1.10279e-05
1.03901e-05
9.78868e-06
9.22158e-06
8.68686e-06
8.18269e-06
7.70736e-06
7.25924e-06
6.83678e-06
6.43855e-06
6.06316e-06
5.70932e-06
5.37582e-06
5.0615e-06
4.76528e-06
4.48612e-06
4.22306e-06
3.97518e-06
3.74162e-06
3.52157e-06
3.31425e-06
3.11893e-06
2.93494e-06
2.76163e-06
2.59839e-06
2.44463e-06
2.29982e-06
2.16345e-06
2.03503e-06
1.9141e-06
1.80023e-06
1.69303e-06
1.5921e-06
1.49708e-06
1.40764e-06
1.32345e-06
1.24421e-06
1.16963e-06
1.09944e-06
1.03339e-06
9.71235e-07
9.12755e-07
8.57734e-07
8.0597e-07
7.57275e-07
7.11469e-07
6.68384e-07
6.27861e-07
5.89751e-07
5.53912e-07
5.20211e-07
4.88524e-07
4.58731e-07
4.30723e-07
4.04393e-07
3.79643e-07
3.5638e-07
3.34516e-07
3.13969e-07
2.9466e-07
2.76517e-07
2.59471e-07
2.43455e-07
2.2841e-07
2.14277e-07
2.01003e-07
1.88535e-07
1.76826e-07
1.65831e-07
1.55507e-07
1.45813e-07
1.36712e-07
1.28169e-07
1.2015e-07
1.12622e-07
1.05558e-07
9.8928e-08
9.27068e-08
8.68694e-08
8.13926e-08
7.62546e-08
7.14348e-08
6.69139e-08
6.26737e-08
5.86971e-08
5.49681e-08
5.14715e-08
4.81931e-08
4.51195e-08
4.22383e-08
3.95375e-08
3.70062e-08
3.46339e-08
3.24108e-08
3.03277e-08
2.8376e-08
2.65474e-08
2.48345e-08
2.32301e-08
2.17273e-08
2.03199e-08
1.9002e-08
1.77679e-08
1.66125e-08
1.55308e-08
1.45182e-08
1.35704e-08
1.26833e-08
1.18531e-08
1.10762e-08
1.03493e-08
9.66921e-09
9.03298e-09
8.43783e-09
7.88116e-09
7.36054e-09
6.87367e-09
6.4184e-09
5.99273e-09
5.59477e-09
5.22275e-09
4.87501e-09
4.55e-09
4.24626e-09
3.96242e-09
3.69721e-09
3.44943e-09
3.21795e-09
3.00172e-09
2.79976e-09
2.61114e-09
2.435e-09
2.27053e-09
2.11697e-09
1.97361e-09
1.83978e-09
1.71488e-09
1.5983e-09
1.48951e-09
1.38801e-09
1.2933e-09
1.20494e-09
1.12252e-09
1.04565e-09
9.73957e-10
9.07103e-10
8.44767e-10
7.86653e-10
7.32479e-10
6.81984e-10
6.34926e-10
5.91075e-10
5.50218e-10
5.12157e-10
4.76704e-10
4.43688e-10
4.12945e-10
3.84323e-10
3.57682e-10
3.32889e-10
3.09821e-10
2.88364e-10
2.6841e-10
2.49859e-10
2.32618e-10
2.166e-10
2.01725e-10
1.87917e-10
1.75107e-10
1.63228e-10
1.52221e-10
1.42029e-10
1.326e-10
1.23886e-10
1.15842e-10
1.08426e-10
1.016e-10
9.53293e-11
8.95805e-11
8.4324e-11
7.95325e-11
7.5181e-11
7.12468e-11
6.77092e-11
6.45497e-11
6.17518e-11
5.93007e-11
5.71836e-11
5.53893e-11
5.39083e-11
5.27328e-11
5.18565e-11
5.12744e-11
5.0984e-11
)
;
    }
}


// ************************************************************************* //
