/*--------------------------------*- C++ -*----------------------------------*\
  =========                 |
  \\      /  F ield         | OpenFOAM: The Open Source CFD Toolbox
   \\    /   O peration     | Website:  https://openfoam.org
    \\  /    A nd           | Version:  10
     \\/     M anipulation  |
\*---------------------------------------------------------------------------*/
FoamFile
{
    format      ascii;
    class       volScalarField;
    location    "0.34";
    object      N1;
}
// * * * * * * * * * * * * * * * * * * * * * * * * * * * * * * * * * * * * * //

dimensions      [0 0 0 0 0 0 0];

internalField   nonuniform List<scalar> 
8000
(
1.56e-06
4.67325e-06
7.76851e-06
1.08365e-05
1.38691e-05
1.68592e-05
1.98004e-05
2.2687e-05
2.55141e-05
2.82772e-05
3.09724e-05
3.35966e-05
3.61469e-05
3.86209e-05
4.10169e-05
4.33333e-05
4.5569e-05
4.77234e-05
4.9796e-05
5.17867e-05
5.36956e-05
5.5523e-05
5.72696e-05
5.89361e-05
6.05234e-05
6.20326e-05
6.34648e-05
6.48214e-05
6.61036e-05
6.73129e-05
6.84507e-05
6.95187e-05
7.05183e-05
7.14511e-05
7.23187e-05
7.31228e-05
7.38649e-05
7.45466e-05
7.51695e-05
7.57352e-05
7.62452e-05
7.67011e-05
7.71044e-05
7.74566e-05
7.77591e-05
7.80134e-05
7.82209e-05
7.83831e-05
7.85012e-05
7.85765e-05
7.86106e-05
7.86044e-05
7.85595e-05
7.84769e-05
7.83579e-05
7.82036e-05
7.80153e-05
7.7794e-05
7.75409e-05
7.7257e-05
7.69434e-05
7.66012e-05
7.62313e-05
7.58349e-05
7.54128e-05
7.4966e-05
7.44955e-05
7.40023e-05
7.34872e-05
7.29511e-05
7.23949e-05
7.18195e-05
7.12257e-05
7.06144e-05
6.99865e-05
6.93426e-05
6.86836e-05
6.80103e-05
6.73234e-05
6.66238e-05
6.59121e-05
6.5189e-05
6.44554e-05
6.37118e-05
6.2959e-05
6.21976e-05
6.14284e-05
6.06519e-05
5.98689e-05
5.90798e-05
5.82854e-05
5.74862e-05
5.66829e-05
5.58759e-05
5.50659e-05
5.42535e-05
5.3439e-05
5.26231e-05
5.18064e-05
5.09891e-05
5.0172e-05
4.93553e-05
4.85397e-05
4.77255e-05
4.69131e-05
4.61031e-05
4.52957e-05
4.44914e-05
4.36906e-05
4.28937e-05
4.21009e-05
4.13127e-05
4.05293e-05
3.97511e-05
3.89785e-05
3.82116e-05
3.74507e-05
3.66963e-05
3.59484e-05
3.52073e-05
3.44733e-05
3.37467e-05
3.30275e-05
3.2316e-05
3.16124e-05
3.09169e-05
3.02296e-05
2.95506e-05
2.88802e-05
2.82184e-05
2.75655e-05
2.69214e-05
2.62863e-05
2.56602e-05
2.50433e-05
2.44357e-05
2.38374e-05
2.32484e-05
2.26688e-05
2.20986e-05
2.15379e-05
2.09867e-05
2.0445e-05
1.99128e-05
1.93901e-05
1.88769e-05
1.83732e-05
1.78789e-05
1.73941e-05
1.69186e-05
1.64525e-05
1.59957e-05
1.55482e-05
1.51098e-05
1.46806e-05
1.42605e-05
1.38493e-05
1.34471e-05
1.30537e-05
1.26691e-05
1.22931e-05
1.19257e-05
1.15668e-05
1.12163e-05
1.08741e-05
1.054e-05
1.0214e-05
9.896e-06
9.58584e-06
9.28343e-06
8.98865e-06
8.70139e-06
8.42152e-06
8.14894e-06
7.88352e-06
7.62514e-06
7.37369e-06
7.12904e-06
6.89106e-06
6.65964e-06
6.43466e-06
6.21598e-06
6.0035e-06
5.79708e-06
5.5966e-06
5.40195e-06
5.21299e-06
5.02962e-06
4.8517e-06
4.67912e-06
4.51177e-06
4.34951e-06
4.19225e-06
4.03985e-06
3.8922e-06
3.7492e-06
3.61073e-06
3.47667e-06
3.34692e-06
3.22138e-06
3.09992e-06
2.98245e-06
2.86887e-06
2.75906e-06
2.65293e-06
2.55039e-06
2.45132e-06
2.35565e-06
2.26326e-06
2.17407e-06
2.088e-06
2.00494e-06
1.92481e-06
1.84753e-06
1.773e-06
1.70116e-06
1.63192e-06
1.56519e-06
1.50091e-06
1.43899e-06
1.37936e-06
1.32195e-06
1.2667e-06
1.21352e-06
1.16236e-06
1.11314e-06
1.06581e-06
1.0203e-06
9.76557e-07
9.34511e-07
8.9411e-07
8.55296e-07
8.18017e-07
7.82219e-07
7.47849e-07
7.14859e-07
6.832e-07
6.52823e-07
6.23683e-07
5.95736e-07
5.68939e-07
5.43249e-07
5.18625e-07
4.95029e-07
4.72421e-07
4.50765e-07
4.30026e-07
4.10168e-07
3.91157e-07
3.72962e-07
3.5555e-07
3.38891e-07
3.22957e-07
3.07717e-07
2.93146e-07
2.79216e-07
2.65902e-07
2.53178e-07
2.41022e-07
2.2941e-07
2.1832e-07
2.07731e-07
1.97621e-07
1.87971e-07
1.78762e-07
1.69976e-07
1.61594e-07
1.53599e-07
1.45975e-07
1.38707e-07
1.31778e-07
1.25175e-07
1.18882e-07
1.12887e-07
1.07177e-07
1.01739e-07
9.65609e-08
9.16313e-08
8.6939e-08
8.24736e-08
7.82248e-08
7.41828e-08
7.03383e-08
6.66822e-08
6.3206e-08
5.99014e-08
5.67605e-08
5.37757e-08
5.09397e-08
4.82456e-08
4.56867e-08
4.32567e-08
4.09495e-08
3.87593e-08
3.66804e-08
3.47077e-08
3.28359e-08
3.10602e-08
2.9376e-08
2.77788e-08
2.62644e-08
2.48287e-08
2.34679e-08
2.21783e-08
2.09563e-08
1.97987e-08
1.87022e-08
1.76637e-08
1.66804e-08
1.57494e-08
1.48682e-08
1.40341e-08
1.32449e-08
1.24982e-08
1.17918e-08
1.11237e-08
1.04919e-08
9.89458e-09
9.32985e-09
8.79606e-09
8.29159e-09
7.81492e-09
7.36458e-09
6.93919e-09
6.53742e-09
6.15802e-09
5.79981e-09
5.46165e-09
5.14247e-09
4.84126e-09
4.55704e-09
4.2889e-09
4.03597e-09
3.79742e-09
3.57247e-09
3.36038e-09
3.16045e-09
2.97199e-09
2.7944e-09
2.62705e-09
2.46939e-09
2.32089e-09
2.18102e-09
2.04931e-09
1.9253e-09
1.80856e-09
1.69868e-09
1.59527e-09
1.49798e-09
1.40644e-09
1.32034e-09
1.23937e-09
1.16322e-09
1.09164e-09
1.02435e-09
9.61116e-10
9.01695e-10
8.45872e-10
7.93439e-10
7.442e-10
6.9797e-10
6.54575e-10
6.13852e-10
5.75644e-10
5.39806e-10
5.062e-10
4.74697e-10
4.45175e-10
4.1752e-10
3.91622e-10
3.6738e-10
3.447e-10
3.23491e-10
3.03669e-10
2.85156e-10
2.67876e-10
2.51761e-10
2.36746e-10
2.22771e-10
2.09777e-10
1.97713e-10
1.86528e-10
1.76178e-10
1.6662e-10
1.57814e-10
1.49724e-10
1.42316e-10
1.3556e-10
1.29427e-10
1.23892e-10
1.18931e-10
1.14525e-10
1.10653e-10
1.073e-10
1.04453e-10
1.02098e-10
1.00226e-10
9.88285e-11
9.79004e-11
9.74372e-11
1.57596e-06
4.72252e-06
7.8537e-06
1.09606e-05
1.40351e-05
1.707e-05
2.00589e-05
2.2996e-05
2.5876e-05
2.86944e-05
3.14471e-05
3.41305e-05
3.67417e-05
3.9278e-05
4.17374e-05
4.4118e-05
4.64187e-05
4.86383e-05
5.07763e-05
5.28322e-05
5.48061e-05
5.66979e-05
5.85082e-05
6.02374e-05
6.18864e-05
6.34559e-05
6.49472e-05
6.63612e-05
6.76992e-05
6.89627e-05
7.01528e-05
7.12712e-05
7.23192e-05
7.32985e-05
7.42106e-05
7.5057e-05
7.58393e-05
7.65592e-05
7.72181e-05
7.78177e-05
7.83596e-05
7.88452e-05
7.92762e-05
7.9654e-05
7.99801e-05
8.02561e-05
8.04833e-05
8.06632e-05
8.07972e-05
8.08867e-05
8.0933e-05
8.09375e-05
8.09014e-05
8.08261e-05
8.07127e-05
8.05625e-05
8.03767e-05
8.01566e-05
7.99031e-05
7.96176e-05
7.9301e-05
7.89545e-05
7.85792e-05
7.8176e-05
7.77461e-05
7.72904e-05
7.681e-05
7.63058e-05
7.57787e-05
7.52297e-05
7.46598e-05
7.40698e-05
7.34606e-05
7.28332e-05
7.21883e-05
7.15267e-05
7.08495e-05
7.01572e-05
6.94509e-05
6.87311e-05
6.79988e-05
6.72547e-05
6.64994e-05
6.57338e-05
6.49586e-05
6.41744e-05
6.3382e-05
6.2582e-05
6.17751e-05
6.0962e-05
6.01432e-05
5.93195e-05
5.84914e-05
5.76594e-05
5.68243e-05
5.59866e-05
5.51467e-05
5.43054e-05
5.3463e-05
5.26202e-05
5.17773e-05
5.0935e-05
5.00937e-05
4.92538e-05
4.84158e-05
4.75801e-05
4.67472e-05
4.59174e-05
4.50912e-05
4.42689e-05
4.3451e-05
4.26377e-05
4.18294e-05
4.10264e-05
4.02291e-05
3.94378e-05
3.86527e-05
3.78741e-05
3.71024e-05
3.63376e-05
3.55802e-05
3.48303e-05
3.40881e-05
3.33538e-05
3.26277e-05
3.19099e-05
3.12006e-05
3.04999e-05
2.9808e-05
2.91251e-05
2.84511e-05
2.77864e-05
2.71309e-05
2.64848e-05
2.58481e-05
2.5221e-05
2.46035e-05
2.39956e-05
2.33974e-05
2.28089e-05
2.22302e-05
2.16613e-05
2.11022e-05
2.05529e-05
2.00134e-05
1.94837e-05
1.89638e-05
1.84537e-05
1.79533e-05
1.74625e-05
1.69815e-05
1.651e-05
1.60481e-05
1.55956e-05
1.51526e-05
1.4719e-05
1.42946e-05
1.38795e-05
1.34734e-05
1.30764e-05
1.26884e-05
1.23092e-05
1.19387e-05
1.1577e-05
1.12237e-05
1.08789e-05
1.05425e-05
1.02142e-05
9.89409e-06
9.58195e-06
9.27769e-06
8.98119e-06
8.69233e-06
8.41098e-06
8.13703e-06
7.87035e-06
7.61081e-06
7.35829e-06
7.11266e-06
6.8738e-06
6.64158e-06
6.41587e-06
6.19655e-06
5.9835e-06
5.77657e-06
5.57566e-06
5.38063e-06
5.19136e-06
5.00772e-06
4.8296e-06
4.65686e-06
4.48939e-06
4.32706e-06
4.16976e-06
4.01737e-06
3.86977e-06
3.72684e-06
3.58848e-06
3.45456e-06
3.32497e-06
3.19961e-06
3.07836e-06
2.96112e-06
2.84779e-06
2.73825e-06
2.6324e-06
2.53015e-06
2.4314e-06
2.33604e-06
2.24399e-06
2.15514e-06
2.06941e-06
1.98671e-06
1.90694e-06
1.83002e-06
1.75587e-06
1.6844e-06
1.61552e-06
1.54917e-06
1.48526e-06
1.42372e-06
1.36447e-06
1.30743e-06
1.25255e-06
1.19974e-06
1.14894e-06
1.10009e-06
1.05312e-06
1.00796e-06
9.64564e-07
9.22863e-07
8.82802e-07
8.44324e-07
8.07374e-07
7.71899e-07
7.37848e-07
7.0517e-07
6.73817e-07
6.4374e-07
6.14895e-07
5.87235e-07
5.60719e-07
5.35303e-07
5.10948e-07
4.87614e-07
4.65262e-07
4.43855e-07
4.23358e-07
4.03736e-07
3.84956e-07
3.66984e-07
3.4979e-07
3.33342e-07
3.17613e-07
3.02573e-07
2.88195e-07
2.74453e-07
2.6132e-07
2.48773e-07
2.36788e-07
2.25341e-07
2.14411e-07
2.03976e-07
1.94016e-07
1.84511e-07
1.75442e-07
1.6679e-07
1.58539e-07
1.5067e-07
1.43167e-07
1.36016e-07
1.292e-07
1.22705e-07
1.16518e-07
1.10624e-07
1.05011e-07
9.96662e-08
9.4578e-08
8.97349e-08
8.51258e-08
8.07404e-08
7.65684e-08
7.26003e-08
6.88267e-08
6.52387e-08
6.18278e-08
5.85858e-08
5.5505e-08
5.25778e-08
4.97971e-08
4.71559e-08
4.46478e-08
4.22664e-08
4.00057e-08
3.786e-08
3.58238e-08
3.38918e-08
3.2059e-08
3.03206e-08
2.86721e-08
2.7109e-08
2.56271e-08
2.42226e-08
2.28915e-08
2.16303e-08
2.04354e-08
1.93036e-08
1.82317e-08
1.72168e-08
1.62559e-08
1.53463e-08
1.44855e-08
1.36708e-08
1.29001e-08
1.2171e-08
1.14815e-08
1.08293e-08
1.02128e-08
9.62988e-09
9.07892e-09
8.55824e-09
8.06624e-09
7.60141e-09
7.16234e-09
6.74765e-09
6.35605e-09
5.98632e-09
5.63729e-09
5.30784e-09
4.99694e-09
4.70359e-09
4.42682e-09
4.16576e-09
3.91954e-09
3.68736e-09
3.46845e-09
3.26208e-09
3.06757e-09
2.88426e-09
2.71153e-09
2.54881e-09
2.39552e-09
2.25116e-09
2.11521e-09
1.98721e-09
1.86672e-09
1.7533e-09
1.64657e-09
1.54615e-09
1.45167e-09
1.3628e-09
1.27922e-09
1.20063e-09
1.12675e-09
1.05729e-09
9.92023e-10
9.30692e-10
8.73074e-10
8.18954e-10
7.68132e-10
7.20415e-10
6.75625e-10
6.33592e-10
5.94155e-10
5.57165e-10
5.22479e-10
4.89963e-10
4.59491e-10
4.30946e-10
4.04216e-10
3.79195e-10
3.55785e-10
3.33894e-10
3.13435e-10
2.94326e-10
2.76491e-10
2.59858e-10
2.4436e-10
2.29934e-10
2.16523e-10
2.04071e-10
1.92527e-10
1.81844e-10
1.71978e-10
1.62889e-10
1.54539e-10
1.46893e-10
1.39919e-10
1.33589e-10
1.27876e-10
1.22756e-10
1.18207e-10
1.14211e-10
1.10751e-10
1.07812e-10
1.05381e-10
1.03449e-10
1.02007e-10
1.01049e-10
1.00571e-10
1.5916e-06
4.77013e-06
7.93492e-06
1.10775e-05
1.419e-05
1.72654e-05
2.02971e-05
2.32792e-05
2.62064e-05
2.9074e-05
3.18778e-05
3.46139e-05
3.72792e-05
3.98708e-05
4.23865e-05
4.48243e-05
4.71826e-05
4.94603e-05
5.16564e-05
5.37704e-05
5.5802e-05
5.77511e-05
5.96181e-05
6.14032e-05
6.31071e-05
6.47305e-05
6.62744e-05
6.77397e-05
6.91277e-05
7.04394e-05
7.16763e-05
7.28398e-05
7.39312e-05
7.49521e-05
7.59039e-05
7.67883e-05
7.76067e-05
7.83608e-05
7.9052e-05
7.96821e-05
8.02525e-05
8.07649e-05
8.12208e-05
8.16216e-05
8.1969e-05
8.22645e-05
8.25095e-05
8.27055e-05
8.28539e-05
8.29561e-05
8.30136e-05
8.30276e-05
8.29996e-05
8.29308e-05
8.28226e-05
8.26762e-05
8.24928e-05
8.22737e-05
8.20201e-05
8.17331e-05
8.1414e-05
8.10637e-05
8.06835e-05
8.02745e-05
7.98377e-05
7.93741e-05
7.88848e-05
7.83708e-05
7.78331e-05
7.72726e-05
7.66904e-05
7.60874e-05
7.54644e-05
7.48225e-05
7.41624e-05
7.34852e-05
7.27915e-05
7.20824e-05
7.13586e-05
7.06209e-05
6.98701e-05
6.9107e-05
6.83324e-05
6.75471e-05
6.67518e-05
6.59472e-05
6.5134e-05
6.43129e-05
6.34847e-05
6.265e-05
6.18094e-05
6.09637e-05
6.01133e-05
5.9259e-05
5.84014e-05
5.7541e-05
5.66784e-05
5.58142e-05
5.49489e-05
5.40831e-05
5.32173e-05
5.23519e-05
5.14875e-05
5.06246e-05
4.97636e-05
4.89049e-05
4.80491e-05
4.71964e-05
4.63474e-05
4.55025e-05
4.46619e-05
4.38262e-05
4.29955e-05
4.21703e-05
4.1351e-05
4.05377e-05
3.97308e-05
3.89307e-05
3.81375e-05
3.73515e-05
3.6573e-05
3.58023e-05
3.50395e-05
3.42848e-05
3.35385e-05
3.28007e-05
3.20716e-05
3.13515e-05
3.06403e-05
2.99383e-05
2.92456e-05
2.85623e-05
2.78886e-05
2.72245e-05
2.65701e-05
2.59254e-05
2.52907e-05
2.46658e-05
2.40509e-05
2.34461e-05
2.28512e-05
2.22664e-05
2.16917e-05
2.11271e-05
2.05726e-05
2.00281e-05
1.94937e-05
1.89693e-05
1.84549e-05
1.79504e-05
1.74559e-05
1.69713e-05
1.64965e-05
1.60314e-05
1.5576e-05
1.51303e-05
1.46941e-05
1.42673e-05
1.38499e-05
1.34419e-05
1.3043e-05
1.26532e-05
1.22724e-05
1.19005e-05
1.15374e-05
1.11829e-05
1.08371e-05
1.04997e-05
1.01706e-05
9.84974e-06
9.53698e-06
9.23219e-06
8.93526e-06
8.64605e-06
8.36444e-06
8.09031e-06
7.82351e-06
7.56394e-06
7.31145e-06
7.06591e-06
6.8272e-06
6.59519e-06
6.36974e-06
6.15073e-06
5.93802e-06
5.73149e-06
5.53101e-06
5.33645e-06
5.14768e-06
4.96458e-06
4.78701e-06
4.61486e-06
4.448e-06
4.2863e-06
4.12965e-06
3.97793e-06
3.83101e-06
3.68877e-06
3.55111e-06
3.4179e-06
3.28904e-06
3.1644e-06
3.04389e-06
2.92738e-06
2.81478e-06
2.70598e-06
2.60087e-06
2.49936e-06
2.40134e-06
2.30671e-06
2.21538e-06
2.12725e-06
2.04224e-06
1.96024e-06
1.88117e-06
1.80494e-06
1.73148e-06
1.66068e-06
1.59247e-06
1.52678e-06
1.46351e-06
1.4026e-06
1.34398e-06
1.28756e-06
1.23327e-06
1.18105e-06
1.13084e-06
1.08255e-06
1.03613e-06
9.91524e-07
9.48657e-07
9.07476e-07
8.67923e-07
8.2994e-07
7.93474e-07
7.58472e-07
7.2488e-07
6.9265e-07
6.61733e-07
6.32081e-07
6.03649e-07
5.76391e-07
5.50265e-07
5.25229e-07
5.01243e-07
4.78266e-07
4.56261e-07
4.35191e-07
4.15021e-07
3.95715e-07
3.77241e-07
3.59567e-07
3.4266e-07
3.26491e-07
3.1103e-07
2.9625e-07
2.82124e-07
2.68624e-07
2.55727e-07
2.43406e-07
2.3164e-07
2.20404e-07
2.09677e-07
1.99439e-07
1.89668e-07
1.80346e-07
1.71452e-07
1.6297e-07
1.54881e-07
1.47169e-07
1.39818e-07
1.32811e-07
1.26135e-07
1.19775e-07
1.13716e-07
1.07946e-07
1.02452e-07
9.72215e-08
9.2243e-08
8.75052e-08
8.29972e-08
7.87086e-08
7.46295e-08
7.07504e-08
6.70621e-08
6.35559e-08
6.02234e-08
5.70564e-08
5.40474e-08
5.11889e-08
4.8474e-08
4.58957e-08
4.34478e-08
4.11239e-08
3.89183e-08
3.68251e-08
3.48391e-08
3.29551e-08
3.11681e-08
2.94735e-08
2.78667e-08
2.63435e-08
2.48996e-08
2.35314e-08
2.22349e-08
2.10066e-08
1.98432e-08
1.87413e-08
1.7698e-08
1.67103e-08
1.57753e-08
1.48903e-08
1.4053e-08
1.32607e-08
1.25112e-08
1.18024e-08
1.1132e-08
1.04982e-08
9.89905e-09
9.33269e-09
8.79745e-09
8.2917e-09
7.81388e-09
7.36254e-09
6.93625e-09
6.53371e-09
6.15365e-09
5.79486e-09
5.45621e-09
5.13662e-09
4.83506e-09
4.55056e-09
4.2822e-09
4.0291e-09
3.79043e-09
3.5654e-09
3.35326e-09
3.15331e-09
2.96488e-09
2.78732e-09
2.62005e-09
2.46248e-09
2.31408e-09
2.17433e-09
2.04276e-09
1.9189e-09
1.80231e-09
1.6926e-09
1.58936e-09
1.49225e-09
1.40089e-09
1.31498e-09
1.23419e-09
1.15824e-09
1.08685e-09
1.01975e-09
9.56706e-10
8.97478e-10
8.41846e-10
7.89603e-10
7.40552e-10
6.9451e-10
6.51302e-10
6.10763e-10
5.72739e-10
5.37083e-10
5.03658e-10
4.72335e-10
4.42992e-10
4.15514e-10
3.89794e-10
3.6573e-10
3.43227e-10
3.22196e-10
3.02553e-10
2.84219e-10
2.67121e-10
2.5119e-10
2.36362e-10
2.22575e-10
2.09775e-10
1.97908e-10
1.86927e-10
1.76786e-10
1.67442e-10
1.58859e-10
1.50999e-10
1.4383e-10
1.37323e-10
1.31451e-10
1.26187e-10
1.21512e-10
1.17404e-10
1.13847e-10
1.10825e-10
1.08327e-10
1.06341e-10
1.04858e-10
1.03873e-10
1.03382e-10
1.60624e-06
4.81444e-06
8.00997e-06
1.11848e-05
1.43313e-05
1.74425e-05
2.0512e-05
2.35338e-05
2.65026e-05
2.94134e-05
3.22618e-05
3.50441e-05
3.77567e-05
4.03968e-05
4.29618e-05
4.54496e-05
4.78583e-05
5.01867e-05
5.24337e-05
5.45986e-05
5.66808e-05
5.86802e-05
6.05968e-05
6.2431e-05
6.41831e-05
6.58538e-05
6.74439e-05
6.89543e-05
7.0386e-05
7.17403e-05
7.30183e-05
7.42215e-05
7.53511e-05
7.64085e-05
7.73954e-05
7.83132e-05
7.91635e-05
7.99477e-05
8.06675e-05
8.13245e-05
8.19201e-05
8.24561e-05
8.2934e-05
8.33553e-05
8.37215e-05
8.40342e-05
8.42949e-05
8.45051e-05
8.46663e-05
8.47798e-05
8.48472e-05
8.48698e-05
8.48489e-05
8.47861e-05
8.46824e-05
8.45394e-05
8.43582e-05
8.41402e-05
8.38865e-05
8.35983e-05
8.32769e-05
8.29235e-05
8.25391e-05
8.21249e-05
8.1682e-05
8.12115e-05
8.07144e-05
8.01918e-05
7.96448e-05
7.90742e-05
7.84812e-05
7.78667e-05
7.72317e-05
7.6577e-05
7.59037e-05
7.52125e-05
7.45045e-05
7.37805e-05
7.30412e-05
7.22877e-05
7.15207e-05
7.0741e-05
6.99494e-05
6.91467e-05
6.83336e-05
6.7511e-05
6.66795e-05
6.58399e-05
6.49929e-05
6.41391e-05
6.32793e-05
6.24141e-05
6.15442e-05
6.06702e-05
5.97927e-05
5.89123e-05
5.80296e-05
5.71453e-05
5.62598e-05
5.53737e-05
5.44876e-05
5.36019e-05
5.27172e-05
5.18339e-05
5.09526e-05
5.00737e-05
4.91976e-05
4.83249e-05
4.74558e-05
4.65908e-05
4.57303e-05
4.48747e-05
4.40243e-05
4.31796e-05
4.23407e-05
4.15081e-05
4.0682e-05
3.98628e-05
3.90507e-05
3.8246e-05
3.7449e-05
3.66598e-05
3.58788e-05
3.51061e-05
3.4342e-05
3.35866e-05
3.28401e-05
3.21027e-05
3.13746e-05
3.06558e-05
2.99465e-05
2.92469e-05
2.85571e-05
2.7877e-05
2.7207e-05
2.65469e-05
2.5897e-05
2.52572e-05
2.46276e-05
2.40082e-05
2.33991e-05
2.28003e-05
2.22119e-05
2.16337e-05
2.10659e-05
2.05083e-05
1.99611e-05
1.94242e-05
1.88974e-05
1.83809e-05
1.78746e-05
1.73783e-05
1.68921e-05
1.64159e-05
1.59496e-05
1.54932e-05
1.50465e-05
1.46095e-05
1.41821e-05
1.37642e-05
1.33558e-05
1.29567e-05
1.25667e-05
1.21859e-05
1.18141e-05
1.14512e-05
1.1097e-05
1.07515e-05
1.04145e-05
1.0086e-05
9.76573e-06
9.45364e-06
9.14958e-06
8.85344e-06
8.56508e-06
8.28436e-06
8.01117e-06
7.74537e-06
7.48682e-06
7.2354e-06
6.99096e-06
6.75339e-06
6.52253e-06
6.29827e-06
6.08046e-06
5.86898e-06
5.66369e-06
5.46446e-06
5.27116e-06
5.08367e-06
4.90184e-06
4.72556e-06
4.5547e-06
4.38912e-06
4.22871e-06
4.07335e-06
3.9229e-06
3.77726e-06
3.63629e-06
3.49989e-06
3.36793e-06
3.24031e-06
3.1169e-06
2.9976e-06
2.8823e-06
2.77089e-06
2.66326e-06
2.55931e-06
2.45894e-06
2.36204e-06
2.26852e-06
2.17828e-06
2.09122e-06
2.00726e-06
1.92629e-06
1.84824e-06
1.77301e-06
1.70051e-06
1.63067e-06
1.5634e-06
1.49862e-06
1.43625e-06
1.37621e-06
1.31844e-06
1.26285e-06
1.20938e-06
1.15796e-06
1.10852e-06
1.06099e-06
1.01531e-06
9.71413e-07
9.29244e-07
8.88742e-07
8.49848e-07
8.12508e-07
7.76665e-07
7.42268e-07
7.09265e-07
6.77606e-07
6.47243e-07
6.18129e-07
5.90217e-07
5.63465e-07
5.37828e-07
5.13266e-07
4.89738e-07
4.67205e-07
4.4563e-07
4.24976e-07
4.05207e-07
3.8629e-07
3.68191e-07
3.50879e-07
3.34322e-07
3.18491e-07
3.03356e-07
2.88891e-07
2.75068e-07
2.61861e-07
2.49245e-07
2.37196e-07
2.25691e-07
2.14707e-07
2.04223e-07
1.94218e-07
1.84672e-07
1.75565e-07
1.66879e-07
1.58596e-07
1.50699e-07
1.43171e-07
1.35997e-07
1.29161e-07
1.22648e-07
1.16444e-07
1.10535e-07
1.04909e-07
9.95535e-08
9.44556e-08
8.96041e-08
8.4988e-08
8.05965e-08
7.64196e-08
7.24475e-08
6.86707e-08
6.50804e-08
6.16679e-08
5.8425e-08
5.53438e-08
5.24168e-08
4.96367e-08
4.69966e-08
4.44899e-08
4.21103e-08
3.98518e-08
3.77084e-08
3.56748e-08
3.37456e-08
3.19158e-08
3.01805e-08
2.85351e-08
2.69753e-08
2.54969e-08
2.40958e-08
2.27682e-08
2.15105e-08
2.03191e-08
1.91909e-08
1.81225e-08
1.71111e-08
1.61536e-08
1.52475e-08
1.439e-08
1.35788e-08
1.28113e-08
1.20855e-08
1.13991e-08
1.075e-08
1.01365e-08
9.55655e-09
9.00847e-09
8.49058e-09
8.00131e-09
7.53913e-09
7.10263e-09
6.69043e-09
6.30125e-09
5.93385e-09
5.58708e-09
5.25982e-09
4.95103e-09
4.65971e-09
4.38491e-09
4.12574e-09
3.88134e-09
3.65091e-09
3.43369e-09
3.22895e-09
3.03599e-09
2.85418e-09
2.68289e-09
2.52155e-09
2.36958e-09
2.22649e-09
2.09175e-09
1.96492e-09
1.84554e-09
1.7332e-09
1.62749e-09
1.52804e-09
1.43449e-09
1.34652e-09
1.26379e-09
1.18602e-09
1.11292e-09
1.04421e-09
9.79654e-10
9.19004e-10
8.62038e-10
8.08542e-10
7.58315e-10
7.11168e-10
6.66924e-10
6.25413e-10
5.86476e-10
5.49965e-10
5.15739e-10
4.83664e-10
4.53617e-10
4.2548e-10
3.99143e-10
3.74502e-10
3.51459e-10
3.29924e-10
3.0981e-10
2.91036e-10
2.73528e-10
2.57215e-10
2.42031e-10
2.27914e-10
2.14806e-10
2.02655e-10
1.9141e-10
1.81026e-10
1.71458e-10
1.62669e-10
1.54621e-10
1.4728e-10
1.40617e-10
1.34603e-10
1.29214e-10
1.24426e-10
1.2022e-10
1.16577e-10
1.13484e-10
1.10925e-10
1.08891e-10
1.07373e-10
1.06365e-10
1.05861e-10
1.61938e-06
4.85414e-06
8.07695e-06
1.12801e-05
1.44564e-05
1.75988e-05
2.0701e-05
2.3757e-05
2.67614e-05
2.97093e-05
3.25962e-05
3.5418e-05
3.81713e-05
4.08529e-05
4.34601e-05
4.59907e-05
4.84428e-05
5.08147e-05
5.31053e-05
5.53138e-05
5.74394e-05
5.94819e-05
6.14412e-05
6.33174e-05
6.5111e-05
6.68223e-05
6.84521e-05
7.00013e-05
7.14707e-05
7.28616e-05
7.4175e-05
7.54123e-05
7.65748e-05
7.76638e-05
7.86809e-05
7.96276e-05
8.05052e-05
8.13155e-05
8.206e-05
8.27401e-05
8.33577e-05
8.39141e-05
8.44109e-05
8.48499e-05
8.52324e-05
8.556e-05
8.58344e-05
8.60569e-05
8.62291e-05
8.63525e-05
8.64285e-05
8.64585e-05
8.64439e-05
8.63861e-05
8.62866e-05
8.61465e-05
8.59673e-05
8.57501e-05
8.54964e-05
8.52073e-05
8.4884e-05
8.45278e-05
8.41399e-05
8.37212e-05
8.32732e-05
8.27967e-05
8.2293e-05
8.1763e-05
8.1208e-05
8.06288e-05
8.00265e-05
7.94021e-05
7.87567e-05
7.8091e-05
7.74062e-05
7.67032e-05
7.59827e-05
7.52458e-05
7.44934e-05
7.37262e-05
7.29451e-05
7.21511e-05
7.13448e-05
7.05271e-05
6.96988e-05
6.88606e-05
6.80134e-05
6.71577e-05
6.62945e-05
6.54243e-05
6.45479e-05
6.3666e-05
6.27792e-05
6.18881e-05
6.09935e-05
6.00959e-05
5.91959e-05
5.82942e-05
5.73912e-05
5.64877e-05
5.5584e-05
5.46808e-05
5.37786e-05
5.28778e-05
5.1979e-05
5.10826e-05
5.0189e-05
4.92989e-05
4.84124e-05
4.75302e-05
4.66525e-05
4.57798e-05
4.49124e-05
4.40507e-05
4.3195e-05
4.23457e-05
4.15031e-05
4.06674e-05
3.9839e-05
3.90181e-05
3.82051e-05
3.74001e-05
3.66033e-05
3.58151e-05
3.50356e-05
3.4265e-05
3.35035e-05
3.27512e-05
3.20084e-05
3.12751e-05
3.05516e-05
2.98379e-05
2.91341e-05
2.84403e-05
2.77568e-05
2.70834e-05
2.64203e-05
2.57676e-05
2.51253e-05
2.44934e-05
2.3872e-05
2.32612e-05
2.26608e-05
2.2071e-05
2.14917e-05
2.09229e-05
2.03646e-05
1.98168e-05
1.92795e-05
1.87525e-05
1.82359e-05
1.77296e-05
1.72336e-05
1.67478e-05
1.6272e-05
1.58064e-05
1.53507e-05
1.49049e-05
1.44688e-05
1.40425e-05
1.36258e-05
1.32186e-05
1.28208e-05
1.24323e-05
1.2053e-05
1.16827e-05
1.13214e-05
1.09689e-05
1.06251e-05
1.02899e-05
9.96319e-06
9.64479e-06
9.33459e-06
9.03245e-06
8.73826e-06
8.45187e-06
8.17316e-06
7.90198e-06
7.63821e-06
7.3817e-06
7.13232e-06
6.88994e-06
6.65442e-06
6.42562e-06
6.20341e-06
5.98765e-06
5.77821e-06
5.57495e-06
5.37775e-06
5.18646e-06
5.00096e-06
4.82111e-06
4.64679e-06
4.47787e-06
4.31422e-06
4.15571e-06
4.00223e-06
3.85364e-06
3.70982e-06
3.57066e-06
3.43603e-06
3.30583e-06
3.17993e-06
3.05822e-06
2.94058e-06
2.82692e-06
2.71711e-06
2.61106e-06
2.50866e-06
2.4098e-06
2.31439e-06
2.22233e-06
2.13351e-06
2.04785e-06
1.96525e-06
1.88561e-06
1.80886e-06
1.7349e-06
1.66364e-06
1.59501e-06
1.52892e-06
1.46529e-06
1.40404e-06
1.3451e-06
1.28839e-06
1.23384e-06
1.18138e-06
1.13093e-06
1.08244e-06
1.03584e-06
9.91055e-07
9.48034e-07
9.06712e-07
8.67032e-07
8.28937e-07
7.92369e-07
7.57277e-07
7.23607e-07
6.91308e-07
6.6033e-07
6.30627e-07
6.02151e-07
5.74858e-07
5.48703e-07
5.23644e-07
4.99641e-07
4.76652e-07
4.54641e-07
4.33569e-07
4.13401e-07
3.94101e-07
3.75636e-07
3.57974e-07
3.41082e-07
3.24931e-07
3.0949e-07
2.94732e-07
2.8063e-07
2.67155e-07
2.54284e-07
2.41992e-07
2.30254e-07
2.19048e-07
2.08352e-07
1.98145e-07
1.88406e-07
1.79115e-07
1.70253e-07
1.61803e-07
1.53746e-07
1.46066e-07
1.38747e-07
1.31772e-07
1.25127e-07
1.18798e-07
1.1277e-07
1.07031e-07
1.01566e-07
9.63655e-08
9.14159e-08
8.67064e-08
8.22262e-08
7.79648e-08
7.39123e-08
7.00592e-08
6.63963e-08
6.29148e-08
5.96063e-08
5.64628e-08
5.34766e-08
5.06403e-08
4.79469e-08
4.53895e-08
4.29618e-08
4.06575e-08
3.84709e-08
3.63961e-08
3.44279e-08
3.25611e-08
3.07907e-08
2.91121e-08
2.75208e-08
2.60124e-08
2.4583e-08
2.32285e-08
2.19454e-08
2.073e-08
1.95789e-08
1.8489e-08
1.74571e-08
1.64803e-08
1.55558e-08
1.4681e-08
1.38533e-08
1.30704e-08
1.23298e-08
1.16295e-08
1.09674e-08
1.03414e-08
9.74977e-09
9.19061e-09
8.66225e-09
8.16309e-09
7.69157e-09
7.24623e-09
6.8257e-09
6.42865e-09
6.05383e-09
5.70004e-09
5.36617e-09
5.05114e-09
4.75392e-09
4.47357e-09
4.20916e-09
3.95982e-09
3.72473e-09
3.50312e-09
3.29423e-09
3.09738e-09
2.91189e-09
2.73714e-09
2.57253e-09
2.41749e-09
2.2715e-09
2.13405e-09
2.00465e-09
1.88286e-09
1.76824e-09
1.66039e-09
1.55893e-09
1.4635e-09
1.37374e-09
1.28935e-09
1.21e-09
1.13542e-09
1.06532e-09
9.99461e-10
9.37585e-10
8.79467e-10
8.24889e-10
7.73647e-10
7.25547e-10
6.80408e-10
6.38057e-10
5.98334e-10
5.61084e-10
5.26166e-10
4.93443e-10
4.62789e-10
4.34083e-10
4.07213e-10
3.82074e-10
3.58565e-10
3.36594e-10
3.16073e-10
2.9692e-10
2.79058e-10
2.62415e-10
2.46924e-10
2.32522e-10
2.19149e-10
2.06752e-10
1.9528e-10
1.84686e-10
1.74925e-10
1.65958e-10
1.57747e-10
1.50258e-10
1.4346e-10
1.37325e-10
1.31826e-10
1.26942e-10
1.2265e-10
1.18934e-10
1.15778e-10
1.13168e-10
1.11093e-10
1.09544e-10
1.08515e-10
1.08002e-10
1.63072e-06
4.88833e-06
8.13451e-06
1.13619e-05
1.45633e-05
1.7732e-05
2.08616e-05
2.39464e-05
2.69807e-05
2.99596e-05
3.28785e-05
3.57333e-05
3.85205e-05
4.12366e-05
4.38791e-05
4.64454e-05
4.89334e-05
5.13416e-05
5.36687e-05
5.59134e-05
5.80753e-05
6.01538e-05
6.21487e-05
6.406e-05
6.58881e-05
6.76334e-05
6.92964e-05
7.08779e-05
7.23789e-05
7.38003e-05
7.51434e-05
7.64092e-05
7.75992e-05
7.87147e-05
7.97571e-05
8.07279e-05
8.16286e-05
8.24607e-05
8.32258e-05
8.39254e-05
8.45612e-05
8.51348e-05
8.56476e-05
8.61014e-05
8.64976e-05
8.68378e-05
8.71236e-05
8.73565e-05
8.7538e-05
8.76697e-05
8.77529e-05
8.77891e-05
8.77798e-05
8.77264e-05
8.76303e-05
8.74927e-05
8.73152e-05
8.70989e-05
8.68452e-05
8.65553e-05
8.62305e-05
8.5872e-05
8.54811e-05
8.50588e-05
8.46064e-05
8.4125e-05
8.36157e-05
8.30796e-05
8.25179e-05
8.19314e-05
8.13214e-05
8.06888e-05
8.00346e-05
7.93598e-05
7.86654e-05
7.79524e-05
7.72215e-05
7.64739e-05
7.57104e-05
7.49318e-05
7.4139e-05
7.33329e-05
7.25143e-05
7.16841e-05
7.0843e-05
6.99918e-05
6.91313e-05
6.82623e-05
6.73854e-05
6.65015e-05
6.56112e-05
6.47152e-05
6.38143e-05
6.2909e-05
6.2e-05
6.10879e-05
6.01735e-05
5.92572e-05
5.83396e-05
5.74214e-05
5.65031e-05
5.55852e-05
5.46682e-05
5.37528e-05
5.28393e-05
5.19282e-05
5.10201e-05
5.01153e-05
4.92143e-05
4.83176e-05
4.74255e-05
4.65384e-05
4.56568e-05
4.47809e-05
4.39111e-05
4.30478e-05
4.21913e-05
4.13418e-05
4.04998e-05
3.96654e-05
3.88389e-05
3.80206e-05
3.72107e-05
3.64094e-05
3.5617e-05
3.48336e-05
3.40595e-05
3.32948e-05
3.25397e-05
3.17943e-05
3.10587e-05
3.03332e-05
2.96178e-05
2.89125e-05
2.82176e-05
2.75331e-05
2.6859e-05
2.61955e-05
2.55425e-05
2.49002e-05
2.42685e-05
2.36475e-05
2.30372e-05
2.24375e-05
2.18486e-05
2.12704e-05
2.07029e-05
2.0146e-05
1.95997e-05
1.9064e-05
1.85388e-05
1.80241e-05
1.75199e-05
1.7026e-05
1.65423e-05
1.60689e-05
1.56057e-05
1.51525e-05
1.47092e-05
1.42758e-05
1.38522e-05
1.34382e-05
1.30338e-05
1.26388e-05
1.22532e-05
1.18768e-05
1.15095e-05
1.11511e-05
1.08016e-05
1.04609e-05
1.01287e-05
9.80502e-06
9.48967e-06
9.18252e-06
8.88344e-06
8.59229e-06
8.30895e-06
8.03326e-06
7.76511e-06
7.50434e-06
7.25082e-06
7.00441e-06
6.76497e-06
6.53237e-06
6.30647e-06
6.08713e-06
5.87421e-06
5.66758e-06
5.46709e-06
5.27263e-06
5.08404e-06
4.90121e-06
4.724e-06
4.55227e-06
4.3859e-06
4.22476e-06
4.06872e-06
3.91766e-06
3.77146e-06
3.62998e-06
3.49312e-06
3.36075e-06
3.23276e-06
3.10903e-06
2.98944e-06
2.87388e-06
2.76226e-06
2.65444e-06
2.55034e-06
2.44984e-06
2.35284e-06
2.25925e-06
2.16896e-06
2.08187e-06
1.9979e-06
1.91694e-06
1.83891e-06
1.76372e-06
1.69128e-06
1.62151e-06
1.55432e-06
1.48963e-06
1.42737e-06
1.36745e-06
1.3098e-06
1.25434e-06
1.201e-06
1.14972e-06
1.10043e-06
1.05305e-06
1.00752e-06
9.63785e-07
9.21777e-07
8.81437e-07
8.42709e-07
8.05534e-07
7.69858e-07
7.35629e-07
7.02793e-07
6.71301e-07
6.41104e-07
6.12156e-07
5.84409e-07
5.57819e-07
5.32344e-07
5.07942e-07
4.84571e-07
4.62194e-07
4.40772e-07
4.20269e-07
4.00649e-07
3.81877e-07
3.63921e-07
3.46749e-07
3.30329e-07
3.14632e-07
2.99629e-07
2.85292e-07
2.71594e-07
2.58509e-07
2.46012e-07
2.3408e-07
2.22688e-07
2.11814e-07
2.01437e-07
1.91536e-07
1.8209e-07
1.73082e-07
1.64491e-07
1.56301e-07
1.48493e-07
1.41052e-07
1.33961e-07
1.27206e-07
1.20772e-07
1.14644e-07
1.08809e-07
1.03254e-07
9.79665e-08
9.29346e-08
8.81469e-08
8.35922e-08
7.92601e-08
7.51403e-08
7.12232e-08
6.74994e-08
6.396e-08
6.05966e-08
5.74009e-08
5.43651e-08
5.14816e-08
4.87434e-08
4.61436e-08
4.36755e-08
4.1333e-08
3.911e-08
3.70008e-08
3.49999e-08
3.3102e-08
3.13022e-08
2.95957e-08
2.7978e-08
2.64446e-08
2.49914e-08
2.36145e-08
2.231e-08
2.10744e-08
1.99042e-08
1.87961e-08
1.77471e-08
1.67541e-08
1.58142e-08
1.49249e-08
1.40835e-08
1.32875e-08
1.25347e-08
1.18227e-08
1.11496e-08
1.05132e-08
9.91174e-09
9.3433e-09
8.80616e-09
8.2987e-09
7.81935e-09
7.36662e-09
6.9391e-09
6.53545e-09
6.1544e-09
5.79474e-09
5.45532e-09
5.13505e-09
4.8329e-09
4.54789e-09
4.27908e-09
4.0256e-09
3.78661e-09
3.56131e-09
3.34896e-09
3.14883e-09
2.96026e-09
2.78261e-09
2.61527e-09
2.45766e-09
2.30924e-09
2.1695e-09
2.03795e-09
1.91414e-09
1.79762e-09
1.68798e-09
1.58483e-09
1.48781e-09
1.39656e-09
1.31077e-09
1.2301e-09
1.15428e-09
1.08302e-09
1.01606e-09
9.53161e-10
8.94077e-10
8.38593e-10
7.86499e-10
7.37601e-10
6.91712e-10
6.48657e-10
6.08274e-10
5.70406e-10
5.34907e-10
5.01641e-10
4.70477e-10
4.41294e-10
4.13978e-10
3.88421e-10
3.64522e-10
3.42186e-10
3.21324e-10
3.01853e-10
2.83694e-10
2.66775e-10
2.51026e-10
2.36384e-10
2.2279e-10
2.10187e-10
1.98525e-10
1.87754e-10
1.77831e-10
1.68715e-10
1.60367e-10
1.52754e-10
1.45843e-10
1.39606e-10
1.34016e-10
1.29051e-10
1.24688e-10
1.2091e-10
1.17701e-10
1.15048e-10
1.12939e-10
1.11364e-10
1.10318e-10
1.09796e-10
1.64002e-06
4.91636e-06
8.18164e-06
1.14287e-05
1.46505e-05
1.78404e-05
2.09922e-05
2.41e-05
2.71583e-05
3.0162e-05
3.31066e-05
3.59879e-05
3.88022e-05
4.1546e-05
4.42166e-05
4.68115e-05
4.93284e-05
5.17656e-05
5.41217e-05
5.63956e-05
5.85865e-05
6.06937e-05
6.27171e-05
6.46567e-05
6.65124e-05
6.82848e-05
6.99745e-05
7.1582e-05
7.31082e-05
7.45542e-05
7.5921e-05
7.72098e-05
7.84219e-05
7.95586e-05
8.06213e-05
8.16115e-05
8.25306e-05
8.33803e-05
8.4162e-05
8.48773e-05
8.55278e-05
8.61151e-05
8.66408e-05
8.71065e-05
8.75137e-05
8.78641e-05
8.81591e-05
8.84004e-05
8.85894e-05
8.87277e-05
8.88168e-05
8.88581e-05
8.8853e-05
8.88032e-05
8.87098e-05
8.85743e-05
8.83981e-05
8.81825e-05
8.79288e-05
8.76384e-05
8.73124e-05
8.69521e-05
8.65588e-05
8.61336e-05
8.56777e-05
8.51924e-05
8.46786e-05
8.41376e-05
8.35705e-05