/*--------------------------------*- C++ -*----------------------------------*\
  =========                 |
  \\      /  F ield         | OpenFOAM: The Open Source CFD Toolbox
   \\    /   O peration     | Website:  https://openfoam.org
    \\  /    A nd           | Version:  10
     \\/     M anipulation  |
\*---------------------------------------------------------------------------*/
FoamFile
{
    format      ascii;
    class       volScalarField;
    location    "1";
    object      N1;
}
// * * * * * * * * * * * * * * * * * * * * * * * * * * * * * * * * * * * * * //

dimensions      [0 0 0 0 0 0 0];

internalField   nonuniform List<scalar> 
8000
(
3.23425e-16
9.68971e-16
1.61108e-15
2.24799e-15
2.87822e-15
3.50045e-15
4.11354e-15
4.71647e-15
5.30838e-15
5.8885e-15
6.45619e-15
7.01089e-15
7.55216e-15
8.07964e-15
8.59307e-15
9.09224e-15
9.57704e-15
1.00474e-14
1.05033e-14
1.09449e-14
1.13721e-14
1.17852e-14
1.21844e-14
1.25698e-14
1.29417e-14
1.33003e-14
1.36459e-14
1.39789e-14
1.42994e-14
1.46079e-14
1.49047e-14
1.519e-14
1.54643e-14
1.57277e-14
1.59808e-14
1.62237e-14
1.64568e-14
1.66804e-14
1.68949e-14
1.71005e-14
1.72975e-14
1.74862e-14
1.7667e-14
1.78399e-14
1.80054e-14
1.81637e-14
1.8315e-14
1.84596e-14
1.85976e-14
1.87294e-14
1.88551e-14
1.89749e-14
1.9089e-14
1.91976e-14
1.93009e-14
1.93991e-14
1.94923e-14
1.95806e-14
1.96643e-14
1.97435e-14
1.98183e-14
1.98889e-14
1.99553e-14
2.00177e-14
2.00762e-14
2.01309e-14
2.0182e-14
2.02295e-14
2.02735e-14
2.03141e-14
2.03515e-14
2.03856e-14
2.04166e-14
2.04446e-14
2.04695e-14
2.04916e-14
2.05108e-14
2.05273e-14
2.0541e-14
2.05521e-14
2.05606e-14
2.05665e-14
2.057e-14
2.0571e-14
2.05697e-14
2.0566e-14
2.056e-14
2.05518e-14
2.05413e-14
2.05287e-14
2.0514e-14
2.04972e-14
2.04783e-14
2.04574e-14
2.04346e-14
2.04098e-14
2.03831e-14
2.03545e-14
2.0324e-14
2.02918e-14
2.02577e-14
2.02219e-14
2.01844e-14
2.01451e-14
2.01042e-14
2.00617e-14
2.00175e-14
1.99717e-14
1.99244e-14
1.98755e-14
1.98251e-14
1.97732e-14
1.97198e-14
1.9665e-14
1.96088e-14
1.95512e-14
1.94922e-14
1.94318e-14
1.93701e-14
1.93071e-14
1.92428e-14
1.91773e-14
1.91105e-14
1.90425e-14
1.89732e-14
1.89029e-14
1.88313e-14
1.87586e-14
1.86848e-14
1.861e-14
1.8534e-14
1.8457e-14
1.8379e-14
1.82999e-14
1.82199e-14
1.81389e-14
1.8057e-14
1.79741e-14
1.78903e-14
1.78056e-14
1.77201e-14
1.76337e-14
1.75465e-14
1.74585e-14
1.73697e-14
1.72802e-14
1.71898e-14
1.70988e-14
1.70071e-14
1.69146e-14
1.68215e-14
1.67278e-14
1.66334e-14
1.65384e-14
1.64428e-14
1.63466e-14
1.62499e-14
1.61527e-14
1.60549e-14
1.59566e-14
1.58579e-14
1.57587e-14
1.5659e-14
1.5559e-14
1.54585e-14
1.53576e-14
1.52564e-14
1.51548e-14
1.50529e-14
1.49506e-14
1.48481e-14
1.47453e-14
1.46422e-14
1.45388e-14
1.44353e-14
1.43315e-14
1.42275e-14
1.41234e-14
1.4019e-14
1.39146e-14
1.381e-14
1.37052e-14
1.36004e-14
1.34955e-14
1.33906e-14
1.32855e-14
1.31805e-14
1.30754e-14
1.29703e-14
1.28652e-14
1.27602e-14
1.26551e-14
1.25502e-14
1.24453e-14
1.23404e-14
1.22357e-14
1.21311e-14
1.20266e-14
1.19222e-14
1.1818e-14
1.17139e-14
1.161e-14
1.15063e-14
1.14028e-14
1.12995e-14
1.11964e-14
1.10936e-14
1.0991e-14
1.08887e-14
1.07866e-14
1.06848e-14
1.05834e-14
1.04822e-14
1.03813e-14
1.02807e-14
1.01805e-14
1.00807e-14
9.98115e-15
9.882e-15
9.78322e-15
9.68483e-15
9.58683e-15
9.48923e-15
9.39205e-15
9.29528e-15
9.19894e-15
9.10304e-15
9.00758e-15
8.91257e-15
8.81803e-15
8.72395e-15
8.63035e-15
8.53723e-15
8.4446e-15
8.35246e-15
8.26083e-15
8.16971e-15
8.0791e-15
7.98902e-15
7.89947e-15
7.81045e-15
7.72196e-15
7.63403e-15
7.54664e-15
7.45981e-15
7.37355e-15
7.28784e-15
7.20271e-15
7.11815e-15
7.03417e-15
6.95078e-15
6.86797e-15
6.78575e-15
6.70413e-15
6.6231e-15
6.54268e-15
6.46286e-15
6.38365e-15
6.30506e-15
6.22707e-15
6.1497e-15
6.07296e-15
5.99683e-15
5.92133e-15
5.84645e-15
5.7722e-15
5.69858e-15
5.62559e-15
5.55323e-15
5.48151e-15
5.41042e-15
5.33998e-15
5.27016e-15
5.20099e-15
5.13246e-15
5.06456e-15
4.99731e-15
4.9307e-15
4.86473e-15
4.79941e-15
4.73472e-15
4.67068e-15
4.60728e-15
4.54452e-15
4.48241e-15
4.42094e-15
4.3601e-15
4.29991e-15
4.24036e-15
4.18144e-15
4.12317e-15
4.06553e-15
4.00853e-15
3.95217e-15
3.89644e-15
3.84134e-15
3.78688e-15
3.73304e-15
3.67984e-15
3.62726e-15
3.57531e-15
3.52399e-15
3.47328e-15
3.4232e-15
3.37374e-15
3.3249e-15
3.27667e-15
3.22906e-15
3.18206e-15
3.13567e-15
3.08989e-15
3.04471e-15
3.00014e-15
2.95617e-15
2.9128e-15
2.87002e-15
2.82784e-15
2.78626e-15
2.74526e-15
2.70485e-15
2.66503e-15
2.62579e-15
2.58713e-15
2.54906e-15
2.51155e-15
2.47462e-15
2.43826e-15
2.40247e-15
2.36724e-15
2.33258e-15
2.29848e-15
2.26494e-15
2.23195e-15
2.19952e-15
2.16763e-15
2.1363e-15
2.10551e-15
2.07526e-15
2.04556e-15
2.01639e-15
1.98776e-15
1.95966e-15
1.93209e-15
1.90505e-15
1.87853e-15
1.85254e-15
1.82707e-15
1.80212e-15
1.77768e-15
1.75376e-15
1.73035e-15
1.70744e-15
1.68505e-15
1.66316e-15
1.64177e-15
1.62088e-15
1.60049e-15
1.58059e-15
1.56119e-15
1.54228e-15
1.52386e-15
1.50593e-15
1.48848e-15
1.47152e-15
1.45504e-15
1.43904e-15
1.42351e-15
1.40846e-15
1.39389e-15
1.37979e-15
1.36616e-15
1.35301e-15
1.34032e-15
1.32809e-15
1.31633e-15
1.30504e-15
1.29421e-15
1.28384e-15
1.27393e-15
1.26448e-15
1.25548e-15
1.24694e-15
1.23886e-15
1.23123e-15
1.22406e-15
1.21734e-15
1.21107e-15
1.20525e-15
1.19988e-15
1.19496e-15
1.19049e-15
1.18647e-15
1.1829e-15
1.17977e-15
1.17709e-15
1.17486e-15
1.17308e-15
1.17174e-15
1.17085e-15
1.1704e-15
3.26737e-16
9.79192e-16
1.62875e-15
2.27373e-15
2.91265e-15
3.54422e-15
4.16724e-15
4.78071e-15
5.38369e-15
5.97539e-15
6.55513e-15
7.12231e-15
7.67644e-15
8.21713e-15
8.74404e-15
9.25693e-15
9.75564e-15
1.02401e-14
1.07101e-14
1.11659e-14
1.16074e-14
1.20347e-14
1.24479e-14
1.28474e-14
1.32331e-14
1.36055e-14
1.39647e-14
1.4311e-14
1.46447e-14
1.4966e-14
1.52754e-14
1.5573e-14
1.58593e-14
1.61345e-14
1.63989e-14
1.66529e-14
1.68968e-14
1.71308e-14
1.73554e-14
1.75708e-14
1.77773e-14
1.79751e-14
1.81646e-14
1.83461e-14
1.85198e-14
1.86859e-14
1.88448e-14
1.89966e-14
1.91416e-14
1.92801e-14
1.94122e-14
1.95381e-14
1.96581e-14
1.97723e-14
1.9881e-14
1.99843e-14
2.00823e-14
2.01753e-14
2.02634e-14
2.03468e-14
2.04256e-14
2.04999e-14
2.05699e-14
2.06357e-14
2.06974e-14
2.07551e-14
2.0809e-14
2.08592e-14
2.09057e-14
2.09487e-14
2.09882e-14
2.10244e-14
2.10572e-14
2.10869e-14
2.11135e-14
2.1137e-14
2.11576e-14
2.11753e-14
2.11901e-14
2.12022e-14
2.12115e-14
2.12182e-14
2.12223e-14
2.12239e-14
2.1223e-14
2.12196e-14
2.12138e-14
2.12058e-14
2.11954e-14
2.11827e-14
2.11679e-14
2.11508e-14
2.11317e-14
2.11104e-14
2.10871e-14
2.10617e-14
2.10344e-14
2.10051e-14
2.09739e-14
2.09408e-14
2.09059e-14
2.08691e-14
2.08305e-14
2.07902e-14
2.07481e-14
2.07044e-14
2.06589e-14
2.06118e-14
2.05631e-14
2.05127e-14
2.04608e-14
2.04074e-14
2.03524e-14
2.02959e-14
2.02379e-14
2.01785e-14
2.01177e-14
2.00555e-14
1.99919e-14
1.99269e-14
1.98606e-14
1.9793e-14
1.97241e-14
1.9654e-14
1.95826e-14
1.951e-14
1.94362e-14
1.93612e-14
1.92851e-14
1.92078e-14
1.91295e-14
1.905e-14
1.89695e-14
1.8888e-14
1.88054e-14
1.87218e-14
1.86373e-14
1.85517e-14
1.84653e-14
1.83779e-14
1.82897e-14
1.82005e-14
1.81105e-14
1.80197e-14
1.79281e-14
1.78356e-14
1.77424e-14
1.76485e-14
1.75538e-14
1.74584e-14
1.73623e-14
1.72656e-14
1.71681e-14
1.70701e-14
1.69714e-14
1.68722e-14
1.67724e-14
1.6672e-14
1.65711e-14
1.64697e-14
1.63678e-14
1.62654e-14
1.61625e-14
1.60593e-14
1.59555e-14
1.58514e-14
1.5747e-14
1.56421e-14
1.55369e-14
1.54314e-14
1.53255e-14
1.52194e-14
1.5113e-14
1.50064e-14
1.48995e-14
1.47923e-14
1.4685e-14
1.45775e-14
1.44698e-14
1.4362e-14
1.4254e-14
1.4146e-14
1.40378e-14
1.39295e-14
1.38212e-14
1.37128e-14
1.36043e-14
1.34959e-14
1.33874e-14
1.32789e-14
1.31705e-14
1.30621e-14
1.29537e-14
1.28455e-14
1.27373e-14
1.26292e-14
1.25212e-14
1.24133e-14
1.23056e-14
1.2198e-14
1.20906e-14
1.19834e-14
1.18763e-14
1.17695e-14
1.16629e-14
1.15565e-14
1.14504e-14
1.13445e-14
1.12388e-14
1.11335e-14
1.10284e-14
1.09237e-14
1.08193e-14
1.07151e-14
1.06114e-14
1.05079e-14
1.04048e-14
1.03021e-14
1.01998e-14
1.00978e-14
9.99628e-15
9.89512e-15
9.79439e-15
9.69408e-15
9.5942e-15
9.49476e-15
9.39577e-15
9.29725e-15
9.19918e-15
9.1016e-15
9.0045e-15
8.90788e-15
8.81177e-15
8.71616e-15
8.62106e-15
8.52648e-15
8.43243e-15
8.33891e-15
8.24593e-15
8.1535e-15
8.06161e-15
7.97029e-15
7.87952e-15
7.78933e-15
7.69971e-15
7.61066e-15
7.52221e-15
7.43434e-15
7.34706e-15
7.26038e-15
7.1743e-15
7.08883e-15
7.00397e-15
6.91972e-15
6.83609e-15
6.75308e-15
6.6707e-15
6.58894e-15
6.50782e-15
6.42732e-15
6.34747e-15
6.26825e-15
6.18968e-15
6.11174e-15
6.03446e-15
5.95782e-15
5.88183e-15
5.8065e-15
5.73181e-15
5.65779e-15
5.58441e-15
5.5117e-15
5.43964e-15
5.36825e-15
5.29751e-15
5.22743e-15
5.15802e-15
5.08927e-15
5.02118e-15
4.95375e-15
4.88698e-15
4.82088e-15
4.75544e-15
4.69067e-15
4.62656e-15
4.5631e-15
4.50032e-15
4.43819e-15
4.37672e-15
4.31591e-15
4.25576e-15
4.19627e-15
4.13744e-15
4.07926e-15
4.02174e-15
3.96487e-15
3.90866e-15
3.85309e-15
3.79818e-15
3.74391e-15
3.69029e-15
3.63731e-15
3.58498e-15
3.53329e-15
3.48224e-15
3.43182e-15
3.38205e-15
3.3329e-15
3.28439e-15
3.23651e-15
3.18925e-15
3.14262e-15
3.09662e-15
3.05123e-15
3.00647e-15
2.96232e-15
2.91878e-15
2.87586e-15
2.83355e-15
2.79184e-15
2.75074e-15
2.71023e-15
2.67033e-15
2.63103e-15
2.59232e-15
2.5542e-15
2.51667e-15
2.47973e-15
2.44337e-15
2.40759e-15
2.3724e-15
2.33777e-15
2.30373e-15
2.27025e-15
2.23734e-15
2.205e-15
2.17322e-15
2.142e-15
2.11134e-15
2.08123e-15
2.05168e-15
2.02268e-15
1.99422e-15
1.96631e-15
1.93894e-15
1.91212e-15
1.88583e-15
1.86007e-15
1.83485e-15
1.81016e-15
1.78599e-15
1.76235e-15
1.73924e-15
1.71664e-15
1.69457e-15
1.673e-15
1.65196e-15
1.63142e-15
1.6114e-15
1.59188e-15
1.57287e-15
1.55436e-15
1.53635e-15
1.51884e-15
1.50183e-15
1.48531e-15
1.46929e-15
1.45376e-15
1.43872e-15
1.42416e-15
1.4101e-15
1.39652e-15
1.38342e-15
1.3708e-15
1.35867e-15
1.34701e-15
1.33583e-15
1.32512e-15
1.31489e-15
1.30514e-15
1.29586e-15
1.28704e-15
1.2787e-15
1.27083e-15
1.26342e-15
1.25649e-15
1.25001e-15
1.24401e-15
1.23847e-15
1.23339e-15
1.22878e-15
1.22463e-15
1.22094e-15
1.21771e-15
1.21495e-15
1.21264e-15
1.2108e-15
1.20942e-15
1.2085e-15
1.20804e-15
3.29985e-16
9.89078e-16
1.64561e-15
2.298e-15
2.94484e-15
3.58481e-15
4.21676e-15
4.83962e-15
5.45248e-15
6.05451e-15
6.64497e-15
7.22325e-15
7.78882e-15
8.34124e-15
8.88013e-15
9.40522e-15
9.9163e-15
1.04132e-14
1.08959e-14
1.13643e-14
1.18184e-14
1.22584e-14
1.26842e-14
1.30962e-14
1.34944e-14
1.3879e-14
1.42503e-14
1.46085e-14
1.49539e-14
1.52867e-14
1.56073e-14
1.5916e-14
1.6213e-14
1.64987e-14
1.67733e-14
1.70372e-14
1.72908e-14
1.75342e-14
1.77678e-14
1.7992e-14
1.82069e-14
1.8413e-14
1.86104e-14
1.87995e-14
1.89806e-14
1.91538e-14
1.93194e-14
1.94778e-14
1.96291e-14
1.97735e-14
1.99114e-14
2.00429e-14
2.01681e-14
2.02874e-14
2.04009e-14
2.05088e-14
2.06112e-14
2.07084e-14
2.08005e-14
2.08876e-14
2.097e-14
2.10477e-14
2.11209e-14
2.11898e-14
2.12543e-14
2.13148e-14
2.13713e-14
2.14238e-14
2.14726e-14
2.15177e-14
2.15592e-14
2.15972e-14
2.16317e-14
2.1663e-14
2.1691e-14
2.17159e-14
2.17377e-14
2.17564e-14
2.17723e-14
2.17852e-14
2.17953e-14
2.18027e-14
2.18074e-14
2.18095e-14
2.18089e-14
2.18059e-14
2.18003e-14
2.17924e-14
2.1782e-14
2.17693e-14
2.17544e-14
2.17371e-14
2.17177e-14
2.16961e-14
2.16724e-14
2.16466e-14
2.16187e-14
2.15888e-14
2.15569e-14
2.15231e-14
2.14873e-14
2.14497e-14
2.14102e-14
2.13689e-14
2.13258e-14
2.12809e-14
2.12343e-14
2.1186e-14
2.1136e-14
2.10844e-14
2.10311e-14
2.09762e-14
2.09198e-14
2.08618e-14
2.08023e-14
2.07414e-14
2.06789e-14
2.0615e-14
2.05497e-14
2.04829e-14
2.04149e-14
2.03454e-14
2.02747e-14
2.02026e-14
2.01293e-14
2.00547e-14
1.99788e-14
1.99018e-14
1.98236e-14
1.97442e-14
1.96637e-14
1.9582e-14
1.94993e-14
1.94155e-14
1.93306e-14
1.92448e-14
1.91579e-14
1.907e-14
1.89811e-14
1.88913e-14
1.88006e-14
1.8709e-14
1.86165e-14
1.85232e-14
1.8429e-14
1.8334e-14
1.82382e-14
1.81416e-14
1.80443e-14
1.79462e-14
1.78475e-14
1.7748e-14
1.76479e-14
1.75471e-14
1.74457e-14
1.73437e-14
1.72411e-14
1.71379e-14
1.70342e-14
1.693e-14
1.68252e-14
1.672e-14
1.66142e-14
1.65081e-14
1.64015e-14
1.62945e-14
1.61871e-14
1.60793e-14
1.59711e-14
1.58627e-14
1.57539e-14
1.56448e-14
1.55354e-14
1.54258e-14
1.53159e-14
1.52058e-14
1.50955e-14
1.4985e-14
1.48743e-14
1.47634e-14
1.46524e-14
1.45413e-14
1.44301e-14
1.43188e-14
1.42075e-14
1.4096e-14
1.39846e-14
1.38731e-14
1.37616e-14
1.36501e-14
1.35386e-14
1.34272e-14
1.33158e-14
1.32045e-14
1.30933e-14
1.29822e-14
1.28712e-14
1.27603e-14
1.26495e-14
1.2539e-14
1.24285e-14
1.23183e-14
1.22083e-14
1.20985e-14
1.19889e-14
1.18795e-14
1.17704e-14
1.16616e-14
1.1553e-14
1.14447e-14
1.13367e-14
1.1229e-14
1.11217e-14
1.10146e-14
1.0908e-14
1.08016e-14
1.06957e-14
1.05901e-14
1.04849e-14
1.03801e-14
1.02757e-14
1.01717e-14
1.00682e-14
9.96504e-15
9.86237e-15
9.76015e-15
9.6584e-15
9.55712e-15
9.45631e-15
9.356e-15
9.25618e-15
9.15687e-15
9.05807e-15
8.95979e-15
8.86203e-15
8.76481e-15
8.66813e-15
8.572e-15
8.47642e-15
8.3814e-15
8.28695e-15
8.19307e-15
8.09977e-15
8.00705e-15
7.91493e-15
7.82339e-15
7.73246e-15
7.64214e-15
7.55242e-15
7.46332e-15
7.37483e-15
7.28697e-15
7.19974e-15
7.11314e-15
7.02717e-15
6.94184e-15
6.85715e-15
6.77311e-15
6.68972e-15
6.60698e-15
6.52489e-15
6.44346e-15
6.36269e-15
6.28258e-15
6.20313e-15
6.12435e-15
6.04624e-15
5.9688e-15
5.89203e-15
5.81593e-15
5.74051e-15
5.66576e-15
5.59169e-15
5.5183e-15
5.44558e-15
5.37355e-15
5.30219e-15
5.23152e-15
5.16152e-15
5.09221e-15
5.02358e-15
4.95563e-15
4.88837e-15
4.82178e-15
4.75587e-15
4.69065e-15
4.62611e-15
4.56224e-15
4.49906e-15
4.43655e-15
4.37472e-15
4.31357e-15
4.25309e-15
4.19328e-15
4.13415e-15
4.0757e-15
4.01791e-15
3.96079e-15
3.90434e-15
3.84856e-15
3.79344e-15
3.73898e-15
3.68518e-15
3.63205e-15
3.57957e-15
3.52775e-15
3.47658e-15
3.42606e-15
3.37619e-15
3.32697e-15
3.2784e-15
3.23046e-15
3.18317e-15
3.13652e-15
3.0905e-15
3.04512e-15
3.00037e-15
2.95624e-15
2.91275e-15
2.86987e-15
2.82762e-15
2.78599e-15
2.74497e-15
2.70457e-15
2.66478e-15
2.62559e-15
2.58702e-15
2.54904e-15
2.51167e-15
2.47489e-15
2.43871e-15
2.40312e-15
2.36812e-15
2.33371e-15
2.29988e-15
2.26663e-15
2.23396e-15
2.20187e-15
2.17035e-15
2.1394e-15
2.10903e-15
2.07921e-15
2.04996e-15
2.02127e-15
1.99314e-15
1.96556e-15
1.93854e-15
1.91206e-15
1.88613e-15
1.86075e-15
1.83591e-15
1.81161e-15
1.78785e-15
1.76462e-15
1.74193e-15
1.71977e-15
1.69813e-15
1.67702e-15
1.65644e-15
1.63638e-15
1.61683e-15
1.5978e-15
1.57929e-15
1.56129e-15
1.54381e-15
1.52683e-15
1.51036e-15
1.49439e-15
1.47893e-15
1.46397e-15
1.44951e-15
1.43555e-15
1.42209e-15
1.40912e-15
1.39664e-15
1.38466e-15
1.37317e-15
1.36216e-15
1.35165e-15
1.34162e-15
1.33208e-15
1.32302e-15
1.31444e-15
1.30635e-15
1.29874e-15
1.29161e-15
1.28495e-15
1.27878e-15
1.27308e-15
1.26787e-15
1.26312e-15
1.25886e-15
1.25507e-15
1.25175e-15
1.24891e-15
1.24654e-15
1.24465e-15
1.24323e-15
1.24228e-15
1.24181e-15
3.33017e-16
9.98259e-16
1.66116e-15
2.32025e-15
2.97415e-15
3.62159e-15
4.26141e-15
4.89256e-15
5.51409e-15
6.12517e-15
6.72503e-15
7.31304e-15
7.88862e-15
8.4513e-15
9.00069e-15
9.53645e-15
1.00584e-14
1.05662e-14
1.10599e-14
1.15394e-14
1.20046e-14
1.24557e-14
1.28926e-14
1.33155e-14
1.37245e-14
1.41199e-14
1.45018e-14
1.48705e-14
1.52262e-14
1.55692e-14
1.58997e-14
1.6218e-14
1.65245e-14
1.68194e-14
1.7103e-14
1.73757e-14
1.76378e-14
1.78894e-14
1.81311e-14
1.8363e-14
1.85854e-14
1.87987e-14
1.90031e-14
1.9199e-14
1.93865e-14
1.9566e-14
1.97376e-14
1.99018e-14
2.00586e-14
2.02084e-14
2.03513e-14
2.04877e-14
2.06176e-14
2.07413e-14
2.08591e-14
2.09711e-14
2.10774e-14
2.11783e-14
2.12739e-14
2.13644e-14
2.14499e-14
2.15306e-14
2.16067e-14
2.16782e-14
2.17454e-14
2.18083e-14
2.1867e-14
2.19217e-14
2.19724e-14
2.20194e-14
2.20626e-14
2.21022e-14
2.21383e-14
2.2171e-14
2.22003e-14
2.22264e-14
2.22492e-14
2.2269e-14
2.22857e-14
2.22994e-14
2.23102e-14
2.23182e-14
2.23234e-14
2.23259e-14
2.23257e-14
2.23229e-14
2.23176e-14
2.23097e-14
2.22994e-14
2.22867e-14
2.22717e-14
2.22543e-14
2.22346e-14
2.22127e-14
2.21886e-14
2.21624e-14
2.2134e-14
2.21036e-14
2.20711e-14
2.20366e-14
2.20002e-14
2.19618e-14
2.19215e-14
2.18793e-14
2.18353e-14
2.17895e-14
2.17419e-14
2.16925e-14
2.16414e-14
2.15886e-14
2.15342e-14
2.14781e-14
2.14203e-14
2.1361e-14
2.13002e-14
2.12378e-14
2.11739e-14
2.11085e-14
2.10417e-14
2.09734e-14
2.09037e-14
2.08327e-14
2.07603e-14
2.06865e-14
2.06115e-14
2.05351e-14
2.04575e-14
2.03787e-14
2.02986e-14
2.02173e-14
2.01349e-14
2.00513e-14
1.99666e-14
1.98808e-14
1.9794e-14
1.9706e-14
1.96171e-14
1.95271e-14
1.94361e-14
1.93442e-14
1.92513e-14
1.91575e-14
1.90628e-14
1.89673e-14
1.88708e-14
1.87736e-14
1.86755e-14
1.85766e-14
1.8477e-14
1.83766e-14
1.82754e-14
1.81736e-14
1.80711e-14
1.79679e-14
1.78641e-14
1.77596e-14
1.76546e-14
1.75489e-14
1.74427e-14
1.7336e-14
1.72287e-14
1.71209e-14
1.70127e-14
1.6904e-14
1.67948e-14
1.66852e-14
1.65753e-14
1.64649e-14
1.63542e-14
1.62431e-14
1.61317e-14
1.602e-14
1.5908e-14
1.57957e-14
1.56832e-14
1.55705e-14
1.54575e-14
1.53444e-14
1.5231e-14
1.51175e-14
1.50039e-14
1.48901e-14
1.47762e-14
1.46623e-14
1.45482e-14
1.44341e-14
1.432e-14
1.42058e-14
1.40916e-14
1.39775e-14
1.38633e-14
1.37492e-14
1.36352e-14
1.35212e-14
1.34073e-14
1.32935e-14
1.31799e-14
1.30663e-14
1.29529e-14
1.28397e-14
1.27267e-14
1.26138e-14
1.25011e-14
1.23887e-14
1.22764e-14
1.21645e-14
1.20527e-14
1.19413e-14
1.18301e-14
1.17192e-14
1.16086e-14
1.14984e-14
1.13884e-14
1.12788e-14
1.11696e-14
1.10607e-14
1.09522e-14
1.08441e-14
1.07364e-14
1.06291e-14
1.05222e-14
1.04157e-14
1.03096e-14
1.02041e-14
1.00989e-14
9.99426e-15
9.89006e-15
9.78635e-15
9.68313e-15
9.58041e-15
9.4782e-15
9.37651e-15
9.27533e-15
9.1747e-15
9.0746e-15
8.97504e-15
8.87604e-15
8.7776e-15
8.67973e-15
8.58243e-15
8.48572e-15
8.38959e-15
8.29405e-15
8.19911e-15
8.10477e-15
8.01104e-15
7.91793e-15
7.82544e-15
7.73357e-15
7.64233e-15
7.55172e-15
7.46176e-15
7.37243e-15
7.28375e-15
7.19572e-15
7.10835e-15
7.02163e-15
6.93557e-15
6.85018e-15
6.76545e-15
6.68139e-15
6.59801e-15
6.5153e-15
6.43327e-15
6.35192e-15
6.27125e-15
6.19126e-15
6.11196e-15
6.03335e-15
5.95543e-15
5.8782e-15
5.80166e-15
5.72581e-15
5.65066e-15
5.5762e-15
5.50244e-15
5.42937e-15
5.357e-15
5.28533e-15
5.21435e-15
5.14408e-15
5.0745e-15
5.00562e-15
4.93743e-15
4.86995e-15
4.80316e-15
4.73707e-15
4.67167e-15
4.60697e-15
4.54296e-15
4.47965e-15
4.41703e-15
4.3551e-15
4.29386e-15
4.23332e-15
4.17346e-15
4.11428e-15
4.05579e-15
3.99799e-15
3.94087e-15
3.88443e-15
3.82866e-15
3.77358e-15
3.71917e-15
3.66543e-15
3.61236e-15
3.55997e-15
3.50824e-15
3.45717e-15
3.40677e-15
3.35703e-15
3.30795e-15
3.25952e-15
3.21175e-15
3.16463e-15
3.11816e-15
3.07233e-15
3.02715e-15
2.98261e-15
2.93871e-15
2.89545e-15
2.85281e-15
2.81081e-15
2.76944e-15
2.72869e-15
2.68857e-15
2.64907e-15
2.61018e-15
2.57191e-15
2.53425e-15
2.4972e-15
2.46076e-15
2.42492e-15
2.38968e-15
2.35504e-15
2.321e-15
2.28755e-15
2.25468e-15
2.22241e-15
2.19072e-15
2.15961e-15
2.12908e-15
2.09913e-15
2.06975e-15
2.04095e-15
2.01271e-15
1.98503e-15
1.95792e-15
1.93138e-15
1.90538e-15
1.87995e-15
1.85507e-15
1.83073e-15
1.80695e-15
1.78371e-15
1.76102e-15
1.73886e-15
1.71725e-15
1.69617e-15
1.67563e-15
1.65561e-15
1.63613e-15
1.61717e-15
1.59874e-15
1.58084e-15
1.56345e-15
1.54659e-15
1.53024e-15
1.51441e-15
1.49909e-15
1.48428e-15
1.46998e-15
1.4562e-15
1.44292e-15
1.43014e-15
1.41787e-15
1.4061e-15
1.39484e-15
1.38407e-15
1.3738e-15
1.36403e-15
1.35475e-15
1.34597e-15
1.33768e-15
1.32989e-15
1.32259e-15
1.31577e-15
1.30945e-15
1.30362e-15
1.29828e-15
1.29342e-15
1.28905e-15
1.28517e-15
1.28177e-15
1.27886e-15
1.27644e-15
1.2745e-15
1.27305e-15
1.27208e-15
1.27159e-15
3.3574e-16
1.00648e-15
1.67504e-15
2.34002e-15
3.00009e-15
3.65402e-15
4.30065e-15
4.93895e-15
5.56795e-15
6.18681e-15
6.79475e-15
7.39109e-15
7.97526e-15
8.54675e-15
9.10512e-15
9.65005e-15
1.01812e-14
1.06985e-14
1.12016e-14
1.16906e-14
1.21654e-14
1.26259e-14
1.30723e-14
1.35047e-14
1.39231e-14
1.43277e-14
1.47188e-14
1.50964e-14
1.5461e-14
1.58127e-14
1.61517e-14
1.64784e-14
1.6793e-14
1.70959e-14
1.73873e-14
1.76675e-14
1.79369e-14
1.81957e-14
1.84442e-14
1.86828e-14
1.89117e-14
1.91313e-14
1.93417e-14
1.95434e-14
1.97365e-14
1.99214e-14
2.00982e-14
2.02674e-14
2.0429e-14
2.05834e-14
2.07307e-14
2.08713e-14
2.10053e-14
2.11329e-14
2.12543e-14
2.13698e-14
2.14795e-14
2.15836e-14
2.16823e-14
2.17756e-14
2.18639e-14
2.19473e-14
2.20258e-14
2.20997e-14
2.21691e-14
2.2234e-14
2.22947e-14
2.23512e-14
2.24037e-14
2.24523e-14
2.24971e-14
2.25381e-14
2.25755e-14
2.26094e-14
2.26398e-14
2.26669e-14
2.26907e-14
2.27113e-14
2.27287e-14
2.27431e-14
2.27546e-14
2.27631e-14
2.27687e-14
2.27716e-14
2.27717e-14
2.27692e-14
2.2764e-14
2.27563e-14
2.2746e-14
2.27333e-14
2.27181e-14
2.27006e-14
2.26808e-14
2.26586e-14
2.26342e-14
2.26076e-14
2.25788e-14
2.25479e-14
2.2515e-14
2.24799e-14
2.24429e-14
2.24038e-14
2.23628e-14
2.23199e-14
2.22751e-14
2.22284e-14
2.21799e-14
2.21297e-14
2.20776e-14
2.20238e-14
2.19684e-14
2.19112e-14
2.18524e-14
2.17919e-14
2.17299e-14
2.16663e-14
2.16012e-14
2.15345e-14
2.14664e-14
2.13968e-14
2.13257e-14
2.12533e-14
2.11794e-14
2.11042e-14
2.10277e-14
2.09498e-14
2.08707e-14
2.07903e-14
2.07086e-14
2.06257e-14
2.05417e-14
2.04564e-14
2.037e-14
2.02825e-14
2.01939e-14
2.01042e-14
2.00135e-14
1.99217e-14
1.98289e-14
1.97351e-14
1.96404e-14
1.95447e-14
1.94481e-14
1.93506e-14
1.92522e-14
1.9153e-14
1.90529e-14
1.89521e-14
1.88504e-14
1.8748e-14
1.86448e-14
1.8541e-14
1.84364e-14
1.83311e-14
1.82252e-14
1.81186e-14
1.80114e-14
1.79037e-14
1.77953e-14
1.76864e-14
1.7577e-14
1.74671e-14
1.73566e-14
1.72457e-14
1.71344e-14
1.70226e-14
1.69104e-14
1.67978e-14
1.66848e-14
1.65715e-14
1.64578e-14
1.63439e-14
1.62296e-14
1.61151e-14
1.60003e-14
1.58853e-14
1.577e-14
1.56546e-14
1.5539e-14
1.54232e-14
1.53072e-14
1.51912e-14
1.5075e-14
1.49587e-14
1.48424e-14
1.4726e-14
1.46095e-14
1.4493e-14
1.43766e-14
1.42601e-14
1.41436e-14
1.40272e-14
1.39109e-14
1.37946e-14
1.36784e-14
1.35623e-14
1.34464e-14
1.33305e-14
1.32148e-14
1.30993e-14
1.2984e-14
1.28688e-14
1.27539e-14
1.26391e-14
1.25247e-14
1.24104e-14
1.22964e-14
1.21827e-14
1.20693e-14
1.19562e-14
1.18433e-14
1.17308e-14
1.16187e-14
1.15069e-14
1.13954e-14
1.12843e-14
1.11737e-14
1.10633e-14
1.09534e-14
1.0844e-14
1.07349e-14
1.06263e-14
1.05181e-14
1.04104e-14
1.03031e-14
1.01963e-14
1.009e-14
9.98422e-15
9.87892e-15
9.77412e-15
9.66984e-15
9.56609e-15
9.46288e-15
9.3602e-15
9.25808e-15
9.15651e-15
9.05551e-15
8.95508e-15
8.85523e-15
8.75597e-15
8.65729e-15
8.55922e-15
8.46175e-15
8.36489e-15
8.26864e-15
8.17302e-15
8.07803e-15
7.98366e-15
7.88994e-15
7.79685e-15
7.70442e-15
7.61263e-15
7.5215e-15
7.43102e-15
7.34121e-15
7.25207e-15
7.1636e-15
7.0758e-15
6.98868e-15
6.90224e-15
6.81649e-15
6.73142e-15
6.64704e-15
6.56335e-15
6.48035e-15
6.39805e-15
6.31645e-15
6.23554e-15
6.15534e-15
6.07584e-15
5.99705e-15
5.91896e-15
5.84158e-15
5.76491e-15
5.68895e-15
5.61369e-15
5.53915e-15
5.46532e-15
5.39219e-15
5.31978e-15
5.24809e-15
5.1771e-15
5.10683e-15
5.03727e-15
4.96842e-15
4.90028e-15
4.83285e-15
4.76613e-15
4.70012e-15
4.63482e-15
4.57023e-15
4.50634e-15
4.44316e-15
4.38068e-15
4.31891e-15
4.25784e-15
4.19747e-15
4.1378e-15
4.07883e-15
4.02055e-15
3.96297e-15
3.90608e-15
3.84988e-15
3.79437e-15
3.73954e-15
3.6854e-15
3.63195e-15
3.57917e-15
3.52708e-15
3.47566e-15
3.42491e-15
3.37484e-15
3.32543e-15
3.27669e-15
3.22862e-15
3.18121e-15
3.13445e-15
3.08836e-15
3.04292e-15
2.99813e-15
2.95399e-15
2.9105e-15
2.86765e-15
2.82544e-15
2.78387e-15
2.74293e-15
2.70263e-15
2.66296e-15
2.62391e-15
2.58549e-15
2.54769e-15
2.51051e-15
2.47395e-15
2.438e-15
2.40266e-15
2.36793e-15
2.3338e-15
2.30027e-15
2.26735e-15
2.23502e-15
2.20328e-15
2.17213e-15
2.14158e-15
2.1116e-15
2.08221e-15
2.0534e-15
2.02517e-15
1.99751e-15
1.97043e-15
1.94391e-15
1.91796e-15
1.89257e-15
1.86775e-15
1.84349e-15
1.81978e-15
1.79662e-15
1.77402e-15
1.75197e-15
1.73047e-15
1.70951e-15
1.68909e-15
1.66921e-15
1.64987e-15
1.63107e-15
1.6128e-15
1.59506e-15
1.57786e-15
1.56118e-15
1.54503e-15
1.5294e-15
1.51429e-15
1.49971e-15
1.48564e-15
1.47209e-15
1.45906e-15
1.44654e-15
1.43453e-15
1.42304e-15
1.41205e-15
1.40158e-15
1.39161e-15
1.38214e-15
1.37319e-15
1.36473e-15
1.35678e-15
1.34933e-15
1.34238e-15
1.33593e-15
1.32998e-15
1.32453e-15
1.31957e-15
1.31511e-15
1.31115e-15
1.30769e-15
1.30472e-15
1.30225e-15
1.30027e-15
1.29879e-15
1.2978e-15
1.2973e-15
3.38088e-16
1.01357e-15
1.68698e-15
2.35697e-15
3.02227e-15
3.68166e-15
4.33403e-15
4.97831e-15
5.61357e-15
6.23892e-15
6.8536e-15
7.45691e-15
8.04824e-15
8.62706e-15
9.19294e-15
9.7455e-15
1.02844e-14
1.08095e-14
1.13206e-14
1.18175e-14
1.23002e-14
1.27686e-14
1.3223e-14
1.36632e-14
1.40894e-14
1.45017e-14
1.49004e-14
1.52857e-14
1.56576e-14
1.60165e-14
1.63627e-14
1.66964e-14
1.70179e-14
1.73274e-14
1.76253e-14
1.79118e-14
1.81873e-14
1.84521e-14
1.87064e-14
1.89506e-14
1.9185e-14
1.94097e-14
1.96253e-14
1.98318e-14
2.00296e-14
2.0219e-14
2.04003e-14
2.05736e-14
2.07392e-14
2.08975e-14
2.10486e-14
2.11927e-14
2.133e-14
2.14609e-14
2.15855e-14
2.17039e-14
2.18164e-14
2.19232e-14
2.20244e-14
2.21202e-14
2.22109e-14
2.22964e-14
2.2377e-14
2.24529e-14
2.25241e-14
2.25908e-14
2.26531e-14
2.27112e-14
2.27652e-14
2.28151e-14
2.28611e-14
2.29034e-14
2.29419e-14
2.29768e-14
2.30081e-14
2.30361e-14
2.30607e-14
2.3082e-14
2.31001e-14
2.31151e-14
2.3127e-14
2.3136e-14
2.3142e-14
2.31452e-14
2.31456e-14
2.31432e-14
2.31382e-14
2.31305e-14
2.31203e-14
2.31076e-14
2.30924e-14
2.30747e-14
2.30547e-14
2.30324e-14
2.30077e-14
2.29808e-14
2.29517e-14
2.29204e-14
2.2887e-14
2.28515e-14
2.28139e-14
2.27743e-14
2.27327e-14
2.26892e-14
2.26437e-14
2.25964e-14
2.25472e-14
2.24961e-14
2.24433e-14
2.23887e-14
2.23323e-14
2.22743e-14
2.22145e-14
2.21532e-14
2.20901e-14
2.20255e-14
2.19594e-14
2.18916e-14
2.18224e-14
2.17517e-14
2.16795e-14
2.16059e-14
2.15308e-14
2.14544e-14
2.13766e-14
2.12975e-14
2.1217e-14
2.11353e-14
2.10523e-14
2.09681e-14
2.08826e-14
2.0796e-14
2.07082e-14
2.06192e-14
2.05292e-14
2.0438e-14
2.03458e-14
2.02525e-14
2.01581e-14
2.00628e-14
1.99665e-14
1.98693e-14
1.97711e-14
1.9672e-14
1.9572e-14
1.94711e-14
1.93694e-14
1.92668e-14
1.91635e-14
1.90594e-14
1.89545e-14
1.88489e-14
1.87426e-14
1.86356e-14
1.85279e-14
1.84196e-14
1.83106e-14
1.82011e-14
1.80909e-14
1.79802e-14
1.7869e-14
1.77572e-14
1.76449e-14
1.75322e-14
1.7419e-14
1.73053e-14
1.71913e-14
1.70768e-14
1.6962e-14
1.68468e-14
1.67312e-14
1.66154e-14
1.64992e-14
1.63828e-14
1.62661e-14
1.61492e-14
1.6032e-14
1.59147e-14
1.57971e-14
1.56794e-14
1.55615e-14
1.54435e-14
1.53254e-14
1.52072e-14
1.50889e-14
1.49706e-14
1.48522e-14
1.47338e-14
1.46154e-14
1.4497e-14
1.43786e-14
1.42603e-14
1.4142e-14
1.40238e-14
1.39057e-14
1.37876e-14
1.36697e-14
1.3552e-14
1.34344e-14
1.33169e-14
1.31997e-14
1.30826e-14
1.29658e-14
1.28491e-14
1.27327e-14
1.26166e-14
1.25007e-14
1.23851e-14
1.22698e-14
1.21548e-14
1.20401e-14
1.19257e-14
1.18117e-14
1.1698e-14
1.15847e-14
1.14718e-14
1.13593e-14
1.12472e-14
1.11354e-14
1.10241e-14
1.09133e-14
1.08028e-14
1.06928e-14
1.05833e-14
1.04743e-14
1.03657e-14
1.02577e-14
1.01501e-14
1.0043e-14
9.93651e-15
9.83049e-15
9.72502e-15
9.62009e-15
9.51571e-15
9.41189e-15
9.30863e-15
9.20596e-15
9.10386e-15
9.00235e-15
8.90143e-15
8.80112e-15
8.70142e-15
8.60233e-15
8.50386e-15
8.40602e-15
8.30881e-15
8.21223e-15
8.1163e-15
8.02102e-15
7.92639e-15
7.83241e-15
7.7391e-15
7.64646e-15
7.55448e-15
7.46318e-15
7.37256e-15
7.28261e-15
7.19336e-15
7.10479e-15
7.01692e-15
6.92973e-15
6.84325e-15
6.75747e-15
6.67239e-15
6.58801e-15
6.50435e-15
6.42139e-15
6.33914e-15
6.25761e-15
6.17679e-15
6.09668e-15
6.0173e-15
5.93863e-15
5.86069e-15
5.78346e-15
5.70696e-15
5.63117e-15
5.55611e-15
5.48178e-15
5.40817e-15
5.33528e-15
5.26311e-15
5.19167e-15
5.12095e-15
5.05096e-15
4.98169e-15
4.91314e-15
4.84531e-15
4.77821e-15
4.71182e-15
4.64615e-15
4.58121e-15
4.51698e-15
4.45346e-15
4.39066e-15
4.32858e-15
4.26721e-15
4.20654e-15
4.14659e-15
4.08735e-15
4.02881e-15
3.97097e-15
3.91384e-15
3.8574e-15
3.80167e-15
3.74663e-15
3.69229e-15
3.63864e-15
3.58567e-15
3.5334e-15
3.48181e-15
3.4309e-15
3.38068e-15
3.33113e-15
3.28226e-15
3.23406e-15
3.18653e-15
3.13967e-15
3.09347e-15
3.04794e-15
3.00307e-15
2.95885e-15
2.91529e-15
2.87238e-15
2.83012e-15
2.7885e-15
2.74753e-15
2.7072e-15
2.66751e-15
2.62845e-15
2.59002e-15
2.55222e-15
2.51505e-15
2.4785e-15
2.44258e-15
2.40727e-15
2.37257e-15
2.33849e-15
2.30501e-15
2.27215e-15
2.23988e-15
2.20822e-15
2.17715e-15
2.14668e-15
2.11681e-15
2.08752e-15
2.05882e-15
2.0307e-15
2.00316e-15
1.97621e-15
1.94982e-15
1.92402e-15
1.89878e-15
1.87411e-15
1.85001e-15
1.82647e-15
1.8035e-15
1.78108e-15
1.75921e-15
1.73791e-15
1.71715e-15
1.69694e-15
1.67728e-15
1.65817e-15
1.63959e-15
1.62156e-15
1.60407e-15
1.58712e-15
1.57069e-15
1.55481e-15
1.53945e-15
1.52462e-15
1.51032e-15
1.49655e-15
1.4833e-15
1.47057e-15
1.45837e-15
1.44668e-15
1.43551e-15
1.42486e-15
1.41473e-15
1.40511e-15
1.396e-15
1.3874e-15
1.37932e-15
1.37175e-15
1.36468e-15
1.35812e-15
1.35207e-15
1.34653e-15
1.3415e-15
1.33696e-15
1.33294e-15
1.32941e-15
1.3264e-15
1.32388e-15
1.32187e-15
1.32036e-15
1.31936e-15
1.31886e-15
3.40016e-16
1.01938e-15
1.69675e-15
2.37082e-15
3.04036e-15
3.70418e-15
4.36116e-15
5.01026e-15
5.65054e-15
6.2811e-15
6.90118e-15
7.51006e-15
8.10712e-15
8.69183e-15
9.26371e-15
9.82237e-15
1.03675e-14
1.08988e-14
1.14162e-14
1.19195e-14
1.24085e-14
1.28834e-14
1.3344e-14
1.37905e-14
1.4223e-14
1.46416e-14
1.50464e-14
1.54376e-14
1.58155e-14
1.61803e-14
1.65322e-14
1.68715e-14
1.71984e-14
1.75133e-14
1.78164e-14
1.8108e-14
1.83885e-14
1.8658e-14
1.8917e-14
1.91657e-14
1.94044e-14
1.96334e-14
1.9853e-14
2.00635e-14
2.02651e-14
2.04582e-14
2.06429e-14
2.08196e-14
2.09885e-14
2.11498e-14
2.13039e-14
2.14509e-14
2.1591e-14
2.17245e-14
2.18515e-14
2.19723e-14
2.20871e-14
2.21961e-14
2.22994e-14
2.23972e-14
2.24896e-14
2.25769e-14
2.26592e-14
2.27367e-14
2.28094e-14
2.28775e-14
2.29412e-14