/*--------------------------------*- C++ -*----------------------------------*\
  =========                 |
  \\      /  F ield         | OpenFOAM: The Open Source CFD Toolbox
   \\    /   O peration     | Website:  https://openfoam.org
    \\  /    A nd           | Version:  10
     \\/     M anipulation  |
\*---------------------------------------------------------------------------*/
FoamFile
{
    format      ascii;
    class       volScalarField;
    location    "0.62";
    object      Exp1;
}
// * * * * * * * * * * * * * * * * * * * * * * * * * * * * * * * * * * * * * //

dimensions      [0 0 0 0 0 0 0];

internalField   uniform 0;

boundaryField
{
    frontAndBack
    {
        type            empty;
    }
    inlet
    {
        type            calculated;
        value           uniform 0;
    }
    outlet
    {
        type            calculated;
        value           uniform 0;
    }
    substrate
    {
        type            calculated;
        value           nonuniform List<scalar> 
400
(
1.31885e-11
3.94954e-11
6.56396e-11
9.15492e-11
1.17162e-10
1.42424e-10
1.67287e-10
1.91708e-10
2.15652e-10
2.39087e-10
2.61985e-10
2.84324e-10
3.06086e-10
3.27255e-10
3.47821e-10
3.67775e-10
3.87112e-10
4.05831e-10
4.23931e-10
4.41415e-10
4.58286e-10
4.74551e-10
4.90217e-10
5.05294e-10
5.19789e-10
5.33715e-10
5.47083e-10
5.59905e-10
5.72193e-10
5.8396e-10
5.9522e-10
6.05985e-10
6.1627e-10
6.26087e-10
6.35449e-10
6.44371e-10
6.52864e-10
6.60942e-10
6.68617e-10
6.75901e-10
6.82807e-10
6.89346e-10
6.95529e-10
7.01368e-10
7.06873e-10
7.12054e-10
7.16922e-10
7.21486e-10
7.25756e-10
7.2974e-10
7.33447e-10
7.36886e-10
7.40064e-10
7.4299e-10
7.4567e-10
7.48113e-10
7.50324e-10
7.52311e-10
7.5408e-10
7.55637e-10
7.56989e-10
7.5814e-10
7.59096e-10
7.59862e-10
7.60445e-10
7.60847e-10
7.61075e-10
7.61133e-10
7.61025e-10
7.60756e-10
7.60328e-10
7.59748e-10
7.59018e-10
7.58141e-10
7.57123e-10
7.55965e-10
7.54673e-10
7.53248e-10
7.51694e-10
7.50014e-10
7.48211e-10
7.46289e-10
7.44249e-10
7.42095e-10
7.3983e-10
7.37456e-10
7.34976e-10
7.32393e-10
7.29708e-10
7.26925e-10
7.24046e-10
7.21073e-10
7.18009e-10
7.14856e-10
7.11616e-10
7.08291e-10
7.04884e-10
7.01397e-10
6.97832e-10
6.94191e-10
6.90476e-10
6.8669e-10
6.82834e-10
6.7891e-10
6.7492e-10
6.70867e-10
6.66752e-10
6.62577e-10
6.58344e-10
6.54055e-10
6.49713e-10
6.45318e-10
6.40872e-10
6.36378e-10
6.31837e-10
6.27251e-10
6.22622e-10
6.17952e-10
6.13241e-10
6.08493e-10
6.03709e-10
5.9889e-10
5.94038e-10
5.89154e-10
5.84242e-10
5.79301e-10
5.74334e-10
5.69342e-10
5.64327e-10
5.5929e-10
5.54234e-10
5.49159e-10
5.44067e-10
5.38959e-10
5.33837e-10
5.28703e-10
5.23558e-10
5.18403e-10
5.13239e-10
5.08069e-10
5.02893e-10
4.97713e-10
4.9253e-10
4.87346e-10
4.82162e-10
4.76978e-10
4.71797e-10
4.66619e-10
4.61446e-10
4.56279e-10
4.51119e-10
4.45968e-10
4.40826e-10
4.35694e-10
4.30574e-10
4.25467e-10
4.20373e-10
4.15294e-10
4.10231e-10
4.05185e-10
4.00156e-10
3.95147e-10
3.90157e-10
3.85187e-10
3.80239e-10
3.75313e-10
3.7041e-10
3.65531e-10
3.60677e-10
3.55848e-10
3.51046e-10
3.4627e-10
3.41523e-10
3.36803e-10
3.32113e-10
3.27452e-10
3.22822e-10
3.18223e-10
3.13655e-10
3.0912e-10
3.04617e-10
3.00147e-10
2.95711e-10
2.91309e-10
2.86942e-10
2.82609e-10
2.78313e-10
2.74052e-10
2.69827e-10
2.6564e-10
2.61489e-10
2.57375e-10
2.53299e-10
2.49261e-10
2.45262e-10
2.413e-10
2.37378e-10
2.33494e-10
2.2965e-10
2.25844e-10
2.22079e-10
2.18353e-10
2.14666e-10
2.1102e-10
2.07414e-10
2.03848e-10
2.00321e-10
1.96836e-10
1.9339e-10
1.89985e-10
1.8662e-10
1.83295e-10
1.80011e-10
1.76767e-10
1.73563e-10
1.704e-10
1.67276e-10
1.64193e-10
1.6115e-10
1.58146e-10
1.55183e-10
1.52259e-10
1.49374e-10
1.46529e-10
1.43723e-10
1.40956e-10
1.38228e-10
1.35539e-10
1.32888e-10
1.30276e-10
1.27702e-10
1.25165e-10
1.22667e-10
1.20205e-10
1.17781e-10
1.15394e-10
1.13044e-10
1.1073e-10
1.08452e-10
1.06211e-10
1.04005e-10
1.01834e-10
9.96979e-11
9.75969e-11
9.55304e-11
9.34981e-11
9.14996e-11
8.95346e-11
8.76029e-11
8.5704e-11
8.38378e-11
8.20038e-11
8.02018e-11
7.84313e-11
7.66921e-11
7.49839e-11
7.33062e-11
7.16587e-11
7.00412e-11
6.84532e-11
6.68945e-11
6.53646e-11
6.38632e-11
6.23899e-11
6.09445e-11
5.95266e-11
5.81358e-11
5.67717e-11
5.5434e-11
5.41224e-11
5.28365e-11
5.1576e-11
5.03405e-11
4.91296e-11
4.79431e-11
4.67805e-11
4.56415e-11
4.45258e-11
4.34331e-11
4.23629e-11
4.1315e-11
4.0289e-11
3.92845e-11
3.83013e-11
3.7339e-11
3.63972e-11
3.54757e-11
3.45741e-11
3.36921e-11
3.28293e-11
3.19855e-11
3.11604e-11
3.03535e-11
2.95646e-11
2.87935e-11
2.80397e-11
2.7303e-11
2.6583e-11
2.58796e-11
2.51923e-11
2.4521e-11
2.38652e-11
2.32248e-11
2.25993e-11
2.19887e-11
2.13925e-11
2.08106e-11
2.02425e-11
1.96882e-11
1.91473e-11
1.86195e-11
1.81046e-11
1.76023e-11
1.71124e-11
1.66347e-11
1.61689e-11
1.57148e-11
1.5272e-11
1.48405e-11
1.44199e-11
1.40101e-11
1.36108e-11
1.32218e-11
1.28429e-11
1.24739e-11
1.21145e-11
1.17646e-11
1.1424e-11
1.10924e-11
1.07697e-11
1.04556e-11
1.01501e-11
9.85286e-12
9.56375e-12
9.28259e-12
9.0092e-12
8.74341e-12
8.48506e-12
8.23399e-12
7.99002e-12
7.75301e-12
7.52279e-12
7.29922e-12
7.08214e-12
6.87142e-12
6.66691e-12
6.46848e-12
6.27597e-12
6.08928e-12
5.90825e-12
5.73277e-12
5.56271e-12
5.39796e-12
5.23839e-12
5.08389e-12
4.93434e-12
4.78965e-12
4.64969e-12
4.51437e-12
4.38359e-12
4.25725e-12
4.13525e-12
4.0175e-12
3.90391e-12
3.79439e-12
3.68887e-12
3.58725e-12
3.48946e-12
3.39542e-12
3.30505e-12
3.21829e-12
3.13507e-12
3.05532e-12
2.97897e-12
2.90596e-12
2.83624e-12
2.76975e-12
2.70643e-12
2.64623e-12
2.5891e-12
2.535e-12
2.48387e-12
2.43569e-12
2.39039e-12
2.34796e-12
2.30835e-12
2.27153e-12
2.23747e-12
2.20614e-12
2.17751e-12
2.15155e-12
2.12826e-12
2.1076e-12
2.08957e-12
2.07413e-12
2.06129e-12
2.05103e-12
2.04334e-12
2.03822e-12
2.03566e-12
)
;
    }
    Wall
    {
        type            calculated;
        value           nonuniform List<scalar> 
400
(
1.31885e-11
3.94957e-11
6.56404e-11
9.15504e-11
1.17163e-10
1.42425e-10
1.67288e-10
1.91709e-10
2.15653e-10
2.39087e-10
2.61985e-10
2.84324e-10
3.06085e-10
3.27254e-10
3.47819e-10
3.67773e-10
3.8711e-10
4.05828e-10
4.23927e-10
4.4141e-10
4.58281e-10
4.74546e-10
4.90211e-10
5.05287e-10
5.19782e-10
5.33708e-10
5.47075e-10
5.59896e-10
5.72184e-10
5.8395e-10
5.9521e-10
6.05975e-10
6.16259e-10
6.26075e-10
6.35437e-10
6.44358e-10
6.52851e-10
6.60929e-10
6.68604e-10
6.75888e-10
6.82793e-10
6.89332e-10
6.95515e-10
7.01353e-10
7.06858e-10
7.12039e-10
7.16907e-10
7.2147e-10
7.2574e-10
7.29723e-10
7.3343e-10
7.36869e-10
7.40047e-10
7.42972e-10
7.45653e-10
7.48095e-10
7.50307e-10
7.52293e-10
7.54062e-10
7.55619e-10
7.5697e-10
7.58121e-10
7.59077e-10
7.59844e-10
7.60426e-10
7.60829e-10
7.61057e-10
7.61114e-10
7.61006e-10
7.60736e-10
7.60309e-10
7.59729e-10
7.58998e-10
7.58122e-10
7.57103e-10
7.55946e-10
7.54653e-10
7.53228e-10
7.51674e-10
7.49994e-10
7.48191e-10
7.46269e-10
7.44229e-10
7.42076e-10
7.39811e-10
7.37437e-10
7.34957e-10
7.32373e-10
7.29689e-10
7.26906e-10
7.24027e-10
7.21054e-10
7.1799e-10
7.14836e-10
7.11596e-10
7.08272e-10
7.04865e-10
7.01378e-10
6.97813e-10
6.94172e-10
6.90457e-10
6.86671e-10
6.82815e-10
6.78891e-10
6.74901e-10
6.70848e-10
6.66733e-10
6.62559e-10
6.58326e-10
6.54037e-10
6.49695e-10
6.453e-10
6.40854e-10
6.3636e-10
6.31819e-10
6.27234e-10
6.22605e-10
6.17934e-10
6.13224e-10
6.08476e-10
6.03692e-10
5.98873e-10
5.94021e-10
5.89138e-10
5.84225e-10
5.79285e-10
5.74318e-10
5.69326e-10
5.64311e-10
5.59275e-10
5.54218e-10
5.49143e-10
5.44051e-10
5.38944e-10
5.33822e-10
5.28688e-10
5.23543e-10
5.18388e-10
5.13225e-10
5.08054e-10
5.02879e-10
4.97699e-10
4.92516e-10
4.87332e-10
4.82148e-10
4.76964e-10
4.71783e-10
4.66606e-10
4.61433e-10
4.56266e-10
4.51106e-10
4.45955e-10
4.40813e-10
4.35681e-10
4.30561e-10
4.25454e-10
4.20361e-10
4.15282e-10
4.10219e-10
4.05173e-10
4.00145e-10
3.95135e-10
3.90145e-10
3.85176e-10
3.80228e-10
3.75302e-10
3.70399e-10
3.6552e-10
3.60666e-10
3.55838e-10
3.51035e-10
3.4626e-10
3.41513e-10
3.36793e-10
3.32103e-10
3.27443e-10
3.22813e-10
3.18214e-10
3.13646e-10
3.09111e-10
3.04608e-10
3.00138e-10
2.95702e-10
2.913e-10
2.86933e-10
2.82601e-10
2.78305e-10
2.74044e-10
2.69819e-10
2.65632e-10
2.61481e-10
2.57368e-10
2.53292e-10
2.49254e-10
2.45254e-10
2.41293e-10
2.37371e-10
2.33487e-10
2.29643e-10
2.25838e-10
2.22072e-10
2.18346e-10
2.1466e-10
2.11014e-10
2.07408e-10
2.03841e-10
2.00316e-10
1.9683e-10
1.93384e-10
1.89979e-10
1.86614e-10
1.8329e-10
1.80006e-10
1.76762e-10
1.73558e-10
1.70395e-10
1.67271e-10
1.64188e-10
1.61145e-10
1.58142e-10
1.55178e-10
1.52254e-10
1.4937e-10
1.46525e-10
1.43719e-10
1.40952e-10
1.38224e-10
1.35535e-10
1.32884e-10
1.30272e-10
1.27698e-10
1.25162e-10
1.22663e-10
1.20202e-10
1.17778e-10
1.15391e-10
1.13041e-10
1.10727e-10
1.08449e-10
1.06208e-10
1.04001e-10
1.01831e-10
9.9695e-11
9.7594e-11
9.55276e-11
9.34953e-11
9.14968e-11
8.95319e-11
8.76003e-11
8.57015e-11
8.38353e-11
8.20014e-11
8.01994e-11
7.8429e-11
7.66899e-11
7.49816e-11
7.3304e-11
7.16566e-11
7.00391e-11
6.84512e-11
6.68925e-11
6.53626e-11
6.38613e-11
6.23881e-11
6.09427e-11
5.95248e-11
5.81341e-11
5.677e-11
5.54324e-11
5.41208e-11
5.2835e-11
5.15745e-11
5.0339e-11
4.91282e-11
4.79417e-11
4.67791e-11
4.56402e-11
4.45245e-11
4.34318e-11
4.23617e-11
4.13138e-11
4.02878e-11
3.92834e-11
3.83002e-11
3.73379e-11
3.63962e-11
3.54747e-11
3.45731e-11
3.36911e-11
3.28284e-11
3.19846e-11
3.11595e-11
3.03526e-11
2.95638e-11
2.87926e-11
2.80389e-11
2.73022e-11
2.65823e-11
2.58789e-11
2.51916e-11
2.45203e-11
2.38645e-11
2.32241e-11
2.25987e-11
2.19881e-11
2.13919e-11
2.081e-11
2.0242e-11
1.96876e-11
1.91467e-11
1.86189e-11
1.81041e-11
1.76018e-11
1.7112e-11
1.66343e-11
1.61685e-11
1.57143e-11
1.52716e-11
1.48401e-11
1.44195e-11
1.40097e-11
1.36104e-11
1.32215e-11
1.28426e-11
1.24735e-11
1.21142e-11
1.17643e-11
1.14236e-11
1.10921e-11
1.07694e-11
1.04553e-11
1.01498e-11
9.85258e-12
9.56348e-12
9.28233e-12
9.00895e-12
8.74317e-12
8.48483e-12
8.23376e-12
7.9898e-12
7.75279e-12
7.52258e-12
7.29902e-12
7.08195e-12
6.87124e-12
6.66673e-12
6.4683e-12
6.27581e-12
6.08911e-12
5.90809e-12
5.73262e-12
5.56257e-12
5.39782e-12
5.23825e-12
5.08375e-12
4.93421e-12
4.78952e-12
4.64957e-12
4.51425e-12
4.38348e-12
4.25714e-12
4.13514e-12
4.01739e-12
3.90381e-12
3.7943e-12
3.68877e-12
3.58716e-12
3.48937e-12
3.39533e-12
3.30497e-12
3.21822e-12
3.135e-12
3.05524e-12
2.9789e-12
2.9059e-12
2.83618e-12
2.76969e-12
2.70637e-12
2.64617e-12
2.58904e-12
2.53494e-12
2.48382e-12
2.43563e-12
2.39034e-12
2.34791e-12
2.3083e-12
2.27148e-12
2.23742e-12
2.20609e-12
2.17746e-12
2.15151e-12
2.12821e-12
2.10756e-12
2.08952e-12
2.07408e-12
2.06124e-12
2.05098e-12
2.04329e-12
2.03819e-12
2.03564e-12
)
;
    }
}


// ************************************************************************* //
