/*--------------------------------*- C++ -*----------------------------------*\
  =========                 |
  \\      /  F ield         | OpenFOAM: The Open Source CFD Toolbox
   \\    /   O peration     | Website:  https://openfoam.org
    \\  /    A nd           | Version:  10
     \\/     M anipulation  |
\*---------------------------------------------------------------------------*/
FoamFile
{
    format      ascii;
    class       volScalarField;
    location    "0.62";
    object      N1;
}
// * * * * * * * * * * * * * * * * * * * * * * * * * * * * * * * * * * * * * //

dimensions      [0 0 0 0 0 0 0];

internalField   nonuniform List<scalar> 
8000
(
1.00113e-10
2.99927e-10
4.98653e-10
6.95739e-10
8.90706e-10
1.08314e-09
1.27267e-09
1.45897e-09
1.64176e-09
1.82079e-09
1.99584e-09
2.16675e-09
2.33336e-09
2.49555e-09
2.65323e-09
2.80632e-09
2.95479e-09
3.0986e-09
3.23775e-09
3.37225e-09
3.50212e-09
3.6274e-09
3.74814e-09
3.8644e-09
3.97625e-09
4.08376e-09
4.18701e-09
4.2861e-09
4.38111e-09
4.47214e-09
4.55928e-09
4.64263e-09
4.7223e-09
4.79837e-09
4.87095e-09
4.94014e-09
5.00603e-09
5.06873e-09
5.12832e-09
5.18489e-09
5.23855e-09
5.28937e-09
5.33745e-09
5.38286e-09
5.42569e-09
5.46602e-09
5.50392e-09
5.53947e-09
5.57274e-09
5.6038e-09
5.63272e-09
5.65955e-09
5.68437e-09
5.70723e-09
5.72819e-09
5.74731e-09
5.76464e-09
5.78022e-09
5.79412e-09
5.80637e-09
5.81703e-09
5.82613e-09
5.83373e-09
5.83986e-09
5.84455e-09
5.84786e-09
5.84981e-09
5.85045e-09
5.84979e-09
5.84789e-09
5.84477e-09
5.84046e-09
5.83499e-09
5.82839e-09
5.82068e-09
5.81191e-09
5.80208e-09
5.79124e-09
5.77939e-09
5.76657e-09
5.7528e-09
5.73811e-09
5.7225e-09
5.70602e-09
5.68868e-09
5.67049e-09
5.65149e-09
5.63168e-09
5.6111e-09
5.58975e-09
5.56766e-09
5.54485e-09
5.52133e-09
5.49712e-09
5.47225e-09
5.44672e-09
5.42055e-09
5.39377e-09
5.36639e-09
5.33842e-09
5.30988e-09
5.28078e-09
5.25115e-09
5.221e-09
5.19034e-09
5.15919e-09
5.12756e-09
5.09547e-09
5.06294e-09
5.02997e-09
4.99659e-09
4.9628e-09
4.92863e-09
4.89408e-09
4.85917e-09
4.82391e-09
4.78832e-09
4.75241e-09
4.71619e-09
4.67969e-09
4.6429e-09
4.60584e-09
4.56854e-09
4.53099e-09
4.49321e-09
4.45522e-09
4.41702e-09
4.37864e-09
4.34007e-09
4.30134e-09
4.26246e-09
4.22343e-09
4.18427e-09
4.14499e-09
4.10561e-09
4.06612e-09
4.02656e-09
3.98691e-09
3.9472e-09
3.90744e-09
3.86764e-09
3.8278e-09
3.78795e-09
3.74808e-09
3.7082e-09
3.66834e-09
3.62849e-09
3.58867e-09
3.54889e-09
3.50915e-09
3.46947e-09
3.42985e-09
3.39031e-09
3.35084e-09
3.31146e-09
3.27219e-09
3.23301e-09
3.19395e-09
3.15502e-09
3.11621e-09
3.07753e-09
3.039e-09
3.00063e-09
2.96241e-09
2.92435e-09
2.88647e-09
2.84876e-09
2.81124e-09
2.77391e-09
2.73677e-09
2.69983e-09
2.66311e-09
2.62659e-09
2.5903e-09
2.55423e-09
2.51838e-09
2.48277e-09
2.4474e-09
2.41227e-09
2.37739e-09
2.34276e-09
2.30838e-09
2.27427e-09
2.24041e-09
2.20682e-09
2.17351e-09
2.14046e-09
2.10769e-09
2.0752e-09
2.04299e-09
2.01107e-09
1.97943e-09
1.94809e-09
1.91703e-09
1.88627e-09
1.8558e-09
1.82564e-09
1.79577e-09
1.7662e-09
1.73694e-09
1.70797e-09
1.67932e-09
1.65097e-09
1.62292e-09
1.59519e-09
1.56776e-09
1.54064e-09
1.51383e-09
1.48733e-09
1.46114e-09
1.43526e-09
1.4097e-09
1.38444e-09
1.35949e-09
1.33485e-09
1.31052e-09
1.2865e-09
1.26278e-09
1.23938e-09
1.21628e-09
1.19349e-09
1.171e-09
1.14881e-09
1.12693e-09
1.10535e-09
1.08407e-09
1.06309e-09
1.04241e-09
1.02202e-09
1.00193e-09
9.82135e-10
9.62628e-10
9.43411e-10
9.24482e-10
9.0584e-10
8.87481e-10
8.69405e-10
8.51609e-10
8.34092e-10
8.1685e-10
7.99883e-10
7.83187e-10
7.66762e-10
7.50603e-10
7.3471e-10
7.19079e-10
7.03709e-10
6.88597e-10
6.7374e-10
6.59137e-10
6.44784e-10
6.30679e-10
6.1682e-10
6.03203e-10
5.89827e-10
5.76689e-10
5.63787e-10
5.51117e-10
5.38676e-10
5.26463e-10
5.14475e-10
5.02709e-10
4.91162e-10
4.79832e-10
4.68715e-10
4.5781e-10
4.47113e-10
4.36622e-10
4.26335e-10
4.16247e-10
4.06358e-10
3.96663e-10
3.87161e-10
3.77849e-10
3.68723e-10
3.59782e-10
3.51022e-10
3.42442e-10
3.34037e-10
3.25807e-10
3.17747e-10
3.09856e-10
3.02131e-10
2.94569e-10
2.87168e-10
2.79925e-10
2.72838e-10
2.65904e-10
2.59121e-10
2.52485e-10
2.45996e-10
2.3965e-10
2.33444e-10
2.27377e-10
2.21446e-10
2.15649e-10
2.09983e-10
2.04446e-10
1.99036e-10
1.9375e-10
1.88587e-10
1.83544e-10
1.78618e-10
1.73808e-10
1.69112e-10
1.64527e-10
1.60051e-10
1.55682e-10
1.51419e-10
1.47259e-10
1.43199e-10
1.3924e-10
1.35377e-10
1.31609e-10
1.27935e-10
1.24353e-10
1.2086e-10
1.17455e-10
1.14136e-10
1.10902e-10
1.0775e-10
1.04679e-10
1.01687e-10
9.87729e-11
9.59347e-11
9.31709e-11
9.04798e-11
8.786e-11
8.53098e-11
8.28279e-11
8.04127e-11
7.80628e-11
7.57768e-11
7.35533e-11
7.1391e-11
6.92884e-11
6.72443e-11
6.52573e-11
6.33264e-11
6.145e-11
5.96272e-11
5.78566e-11
5.61372e-11
5.44677e-11
5.28471e-11
5.12742e-11
4.97481e-11
4.82676e-11
4.68317e-11
4.54395e-11
4.40899e-11
4.2782e-11
4.15149e-11
4.02877e-11
3.90994e-11
3.79493e-11
3.68364e-11
3.57601e-11
3.47193e-11
3.37135e-11
3.27418e-11
3.18035e-11
3.0898e-11
3.00244e-11
2.91821e-11
2.83705e-11
2.7589e-11
2.68369e-11
2.61136e-11
2.54187e-11
2.47514e-11
2.41114e-11
2.3498e-11
2.29108e-11
2.23493e-11
2.18131e-11
2.13017e-11
2.08147e-11
2.03518e-11
1.99124e-11
1.94963e-11
1.91031e-11
1.87325e-11
1.83842e-11
1.80578e-11
1.77532e-11
1.747e-11
1.7208e-11
1.69671e-11
1.67469e-11
1.65473e-11
1.63681e-11
1.62093e-11
1.60705e-11
1.59518e-11
1.58531e-11
1.57742e-11
1.5715e-11
1.56756e-11
1.5656e-11
1.01137e-10
3.0309e-10
5.04122e-10
7.03705e-10
9.01366e-10
1.09668e-09
1.28929e-09
1.47884e-09
1.66505e-09
1.84765e-09
2.02643e-09
2.20119e-09
2.37176e-09
2.53802e-09
2.69984e-09
2.85715e-09
3.00989e-09
3.15801e-09
3.3015e-09
3.44035e-09
3.57456e-09
3.70417e-09
3.82922e-09
3.94974e-09
4.06581e-09
4.17748e-09
4.28483e-09
4.38794e-09
4.48689e-09
4.58177e-09
4.67267e-09
4.75969e-09
4.84292e-09
4.92246e-09
4.9984e-09
5.07084e-09
5.13987e-09
5.20559e-09
5.2681e-09
5.32749e-09
5.38384e-09
5.43725e-09
5.4878e-09
5.53559e-09
5.58068e-09
5.62317e-09
5.66313e-09
5.70063e-09
5.73576e-09
5.76857e-09
5.79915e-09
5.82755e-09
5.85385e-09
5.87809e-09
5.90035e-09
5.92068e-09
5.93914e-09
5.95578e-09
5.97065e-09
5.9838e-09
5.99528e-09
6.00513e-09
6.01341e-09
6.02015e-09
6.0254e-09
6.02919e-09
6.03157e-09
6.03256e-09
6.03222e-09
6.03056e-09
6.02763e-09
6.02346e-09
6.01808e-09
6.01152e-09
6.00381e-09
5.99498e-09
5.98505e-09
5.97406e-09
5.96203e-09
5.94898e-09
5.93494e-09
5.91993e-09
5.90398e-09
5.88712e-09
5.86935e-09
5.85071e-09
5.83122e-09
5.8109e-09
5.78976e-09
5.76783e-09
5.74513e-09
5.72168e-09
5.69749e-09
5.67259e-09
5.64699e-09
5.62071e-09
5.59378e-09
5.5662e-09
5.53799e-09
5.50918e-09
5.47978e-09
5.4498e-09
5.41927e-09
5.38819e-09
5.35659e-09
5.32448e-09
5.29187e-09
5.25879e-09
5.22524e-09
5.19125e-09
5.15682e-09
5.12197e-09
5.08673e-09
5.05109e-09
5.01508e-09
4.97871e-09
4.942e-09
4.90495e-09
4.86759e-09
4.82992e-09
4.79197e-09
4.75374e-09
4.71525e-09
4.6765e-09
4.63752e-09
4.59832e-09
4.55891e-09
4.5193e-09
4.47951e-09
4.43954e-09
4.39941e-09
4.35914e-09
4.31873e-09
4.27819e-09
4.23755e-09
4.1968e-09
4.15596e-09
4.11505e-09
4.07407e-09
4.03304e-09
3.99196e-09
3.95084e-09
3.90971e-09
3.86856e-09
3.82741e-09
3.78627e-09
3.74514e-09
3.70404e-09
3.66299e-09
3.62197e-09
3.58102e-09
3.54013e-09
3.49931e-09
3.45858e-09
3.41794e-09
3.37739e-09
3.33696e-09
3.29665e-09
3.25646e-09
3.2164e-09
3.17649e-09
3.13672e-09
3.09711e-09
3.05766e-09
3.01838e-09
2.97928e-09
2.94036e-09
2.90164e-09
2.8631e-09
2.82477e-09
2.78665e-09
2.74875e-09
2.71106e-09
2.6736e-09
2.63636e-09
2.59937e-09
2.56261e-09
2.52611e-09
2.48985e-09
2.45384e-09
2.4181e-09
2.38262e-09
2.3474e-09
2.31246e-09
2.27779e-09
2.2434e-09
2.20929e-09
2.17547e-09
2.14194e-09
2.10869e-09
2.07574e-09
2.04309e-09
2.01073e-09
1.97868e-09
1.94693e-09
1.91548e-09
1.88435e-09
1.85352e-09
1.823e-09
1.79279e-09
1.7629e-09
1.73332e-09
1.70406e-09
1.67512e-09
1.64649e-09
1.61818e-09
1.59019e-09
1.56252e-09
1.53516e-09
1.50813e-09
1.48142e-09
1.45503e-09
1.42896e-09
1.40321e-09
1.37778e-09
1.35266e-09
1.32787e-09
1.30339e-09
1.27924e-09
1.25539e-09
1.23187e-09
1.20866e-09
1.18576e-09
1.16317e-09
1.1409e-09
1.11894e-09
1.09728e-09
1.07593e-09
1.05489e-09
1.03415e-09
1.01372e-09
9.93586e-10
9.73751e-10
9.54213e-10
9.34971e-10
9.16022e-10
8.97365e-10
8.78996e-10
8.60916e-10
8.4312e-10
8.25607e-10
8.08374e-10
7.9142e-10
7.74742e-10
7.58338e-10
7.42205e-10
7.2634e-10
7.10742e-10
6.95407e-10
6.80334e-10
6.6552e-10
6.50961e-10
6.36656e-10
6.22602e-10
6.08796e-10
5.95236e-10
5.81918e-10
5.6884e-10
5.56e-10
5.43394e-10
5.3102e-10
5.18876e-10
5.06958e-10
4.95263e-10
4.83789e-10
4.72533e-10
4.61492e-10
4.50664e-10
4.40045e-10
4.29634e-10
4.19426e-10
4.0942e-10
3.99612e-10
3.9e-10
3.80581e-10
3.71352e-10
3.62311e-10
3.53454e-10
3.4478e-10
3.36284e-10
3.27966e-10
3.19821e-10
3.11848e-10
3.04043e-10
2.96403e-10
2.88928e-10
2.81613e-10
2.74456e-10
2.67454e-10
2.60605e-10
2.53907e-10
2.47357e-10
2.40952e-10
2.3469e-10
2.28568e-10
2.22584e-10
2.16736e-10
2.11021e-10
2.05437e-10
1.99981e-10
1.94652e-10
1.89446e-10
1.84362e-10
1.79398e-10
1.7455e-10
1.69818e-10
1.65198e-10
1.60689e-10
1.56288e-10
1.51994e-10
1.47805e-10
1.43717e-10
1.3973e-10
1.35842e-10
1.3205e-10
1.28352e-10
1.24747e-10
1.21232e-10
1.17807e-10
1.14468e-10
1.11215e-10
1.08045e-10
1.04957e-10
1.01949e-10
9.90199e-11
9.61672e-11
9.33896e-11
9.06855e-11
8.80533e-11
8.54916e-11
8.29987e-11
8.05733e-11
7.82138e-11
7.59188e-11
7.36868e-11
7.15166e-11
6.94068e-11
6.7356e-11
6.53629e-11
6.34262e-11
6.15448e-11
5.97173e-11
5.79425e-11
5.62193e-11
5.45466e-11
5.29232e-11
5.13479e-11
4.98198e-11
4.83378e-11
4.69008e-11
4.55078e-11
4.41578e-11
4.285e-11
4.15833e-11
4.03568e-11
3.91697e-11
3.80211e-11
3.69101e-11
3.58359e-11
3.47977e-11
3.37948e-11
3.28263e-11
3.18916e-11
3.09899e-11
3.01206e-11
2.92829e-11
2.84762e-11
2.76999e-11
2.69534e-11
2.62361e-11
2.55474e-11
2.48868e-11
2.42537e-11
2.36476e-11
2.30681e-11
2.25146e-11
2.19868e-11
2.14841e-11
2.10063e-11
2.05528e-11
2.01233e-11
1.97174e-11
1.93349e-11
1.89754e-11
1.86385e-11
1.83241e-11
1.80318e-11
1.77614e-11
1.75127e-11
1.72854e-11
1.70794e-11
1.68945e-11
1.67305e-11
1.65873e-11
1.64648e-11
1.63629e-11
1.62814e-11
1.62204e-11
1.61798e-11
1.61594e-11
1.02141e-10
3.06146e-10
5.09337e-10
7.11214e-10
9.1132e-10
1.10924e-09
1.3046e-09
1.49706e-09
1.68632e-09
1.87211e-09
2.0542e-09
2.23238e-09
2.40647e-09
2.57634e-09
2.74185e-09
2.90291e-09
3.05945e-09
3.2114e-09
3.35875e-09
3.50146e-09
3.63954e-09
3.77301e-09
3.90189e-09
4.02621e-09
4.14604e-09
4.26142e-09
4.37243e-09
4.47912e-09
4.5816e-09
4.67992e-09
4.77419e-09
4.86449e-09
4.95091e-09
5.03355e-09
5.11249e-09
5.18784e-09
5.25969e-09
5.32813e-09
5.39326e-09
5.45517e-09
5.51394e-09
5.56968e-09
5.62246e-09
5.67237e-09
5.7195e-09
5.76393e-09
5.80574e-09
5.845e-09
5.88179e-09
5.91619e-09
5.94826e-09
5.97807e-09
6.0057e-09
6.03119e-09
6.05462e-09
6.07605e-09
6.09553e-09
6.11311e-09
6.12886e-09
6.14282e-09
6.15505e-09
6.16558e-09
6.17448e-09
6.18177e-09
6.18752e-09
6.19175e-09
6.19451e-09
6.19584e-09
6.19577e-09
6.19434e-09
6.19159e-09
6.18755e-09
6.18225e-09
6.17573e-09
6.16802e-09
6.15914e-09
6.14912e-09
6.138e-09
6.1258e-09
6.11255e-09
6.09827e-09
6.08299e-09
6.06673e-09
6.04953e-09
6.03139e-09
6.01234e-09
5.99241e-09
5.97162e-09
5.94999e-09
5.92754e-09
5.9043e-09
5.88027e-09
5.85548e-09
5.82996e-09
5.80371e-09
5.77677e-09
5.74914e-09
5.72085e-09
5.69191e-09
5.66235e-09
5.63217e-09
5.6014e-09
5.57006e-09
5.53815e-09
5.50571e-09
5.47273e-09
5.43925e-09
5.40527e-09
5.37082e-09
5.3359e-09
5.30054e-09
5.26474e-09
5.22853e-09
5.19193e-09
5.15493e-09
5.11756e-09
5.07984e-09
5.04178e-09
5.00339e-09
4.96469e-09
4.92569e-09
4.8864e-09
4.84684e-09
4.80703e-09
4.76697e-09
4.72669e-09
4.68618e-09
4.64547e-09
4.60458e-09
4.5635e-09
4.52226e-09
4.48087e-09
4.43933e-09
4.39767e-09
4.3559e-09
4.31402e-09
4.27204e-09
4.22999e-09
4.18787e-09
4.14569e-09
4.10347e-09
4.06121e-09
4.01893e-09
3.97664e-09
3.93434e-09
3.89205e-09
3.84978e-09
3.80753e-09
3.76533e-09
3.72317e-09
3.68107e-09
3.63904e-09
3.59709e-09
3.55522e-09
3.51344e-09
3.47177e-09
3.43021e-09
3.38877e-09
3.34746e-09
3.30628e-09
3.26525e-09
3.22438e-09
3.18366e-09
3.14311e-09
3.10273e-09
3.06254e-09
3.02254e-09
2.98273e-09
2.94312e-09
2.90372e-09
2.86453e-09
2.82556e-09
2.78682e-09
2.74831e-09
2.71004e-09
2.67201e-09
2.63423e-09
2.5967e-09
2.55943e-09
2.52242e-09
2.48568e-09
2.44921e-09
2.41301e-09
2.37709e-09
2.34145e-09
2.3061e-09
2.27104e-09
2.23627e-09
2.2018e-09
2.16763e-09
2.13376e-09
2.10019e-09
2.06693e-09
2.03398e-09
2.00134e-09
1.96902e-09
1.93701e-09
1.90532e-09
1.87395e-09
1.8429e-09
1.81217e-09
1.78177e-09
1.75169e-09
1.72193e-09
1.69251e-09
1.6634e-09
1.63463e-09
1.60619e-09
1.57807e-09
1.55028e-09
1.52283e-09
1.4957e-09
1.4689e-09
1.44243e-09
1.41628e-09
1.39047e-09
1.36498e-09
1.33982e-09
1.31499e-09
1.29048e-09
1.2663e-09
1.24244e-09
1.2189e-09
1.19568e-09
1.17279e-09
1.15021e-09
1.12795e-09
1.10601e-09
1.08438e-09
1.06306e-09
1.04205e-09
1.02136e-09
1.00097e-09
9.80883e-10
9.61103e-10
9.41624e-10
9.22445e-10
9.03564e-10
8.84978e-10
8.66684e-10
8.48682e-10
8.30968e-10
8.1354e-10
7.96396e-10
7.79533e-10
7.62949e-10
7.46641e-10
7.30607e-10
7.14844e-10
6.99349e-10
6.84121e-10
6.69155e-10
6.5445e-10
6.40003e-10
6.25812e-10
6.11872e-10
5.98182e-10
5.84739e-10
5.7154e-10
5.58582e-10
5.45862e-10
5.33378e-10
5.21127e-10
5.09105e-10
4.97311e-10
4.8574e-10
4.74391e-10
4.6326e-10
4.52345e-10
4.41642e-10
4.31149e-10
4.20863e-10
4.10781e-10
4.009e-10
3.91218e-10
3.81731e-10
3.72437e-10
3.63333e-10
3.54416e-10
3.45683e-10
3.37132e-10
3.2876e-10
3.20564e-10
3.1254e-10
3.04688e-10
2.97003e-10
2.89484e-10
2.82126e-10
2.74929e-10
2.67889e-10
2.61004e-10
2.5427e-10
2.47686e-10
2.41249e-10
2.34956e-10
2.28805e-10
2.22794e-10
2.16919e-10
2.11179e-10
2.05571e-10
2.00092e-10
1.94741e-10
1.89515e-10
1.84412e-10
1.79429e-10
1.74564e-10
1.69815e-10
1.6518e-10
1.60657e-10
1.56243e-10
1.51936e-10
1.47734e-10
1.43636e-10
1.39638e-10
1.3574e-10
1.31939e-10
1.28233e-10
1.24621e-10
1.21099e-10
1.17667e-10
1.14323e-10
1.11065e-10
1.07891e-10
1.04799e-10
1.01788e-10
9.8855e-11
9.59998e-11
9.32201e-11
9.05144e-11
8.7881e-11
8.53185e-11
8.28253e-11
8.03998e-11
7.80407e-11
7.57464e-11
7.35155e-11
7.13467e-11
6.92386e-11
6.71898e-11
6.5199e-11
6.32649e-11
6.13863e-11
5.9562e-11
5.77907e-11
5.60712e-11
5.44024e-11
5.27831e-11
5.12123e-11
4.96888e-11
4.82116e-11
4.67797e-11
4.5392e-11
4.40476e-11
4.27455e-11
4.14848e-11
4.02645e-11
3.90838e-11
3.79417e-11
3.68375e-11
3.57703e-11
3.47393e-11
3.37438e-11
3.2783e-11
3.18561e-11
3.09624e-11
3.01013e-11
2.92721e-11
2.84741e-11
2.77068e-11
2.69694e-11
2.62614e-11
2.55823e-11
2.49315e-11
2.43085e-11
2.37128e-11
2.31439e-11
2.26013e-11
2.20846e-11
2.15934e-11
2.11272e-11
2.06857e-11
2.02685e-11
1.98753e-11
1.95057e-11
1.91595e-11
1.88363e-11
1.85358e-11
1.82579e-11
1.80022e-11
1.77686e-11
1.75568e-11
1.73667e-11
1.71981e-11
1.70509e-11
1.6925e-11
1.68202e-11
1.67365e-11
1.66737e-11
1.6632e-11
1.66111e-11
1.03081e-10
3.08991e-10
5.14155e-10
7.18104e-10
9.20396e-10
1.12063e-09
1.31842e-09
1.51344e-09
1.70538e-09
1.89397e-09
2.07896e-09
2.26013e-09
2.43732e-09
2.61034e-09
2.77908e-09
2.94342e-09
3.10328e-09
3.2586e-09
3.40932e-09
3.55542e-09
3.69689e-09
3.83374e-09
3.96598e-09
4.09364e-09
4.21677e-09
4.33541e-09
4.44962e-09
4.55948e-09
4.66504e-09
4.7664e-09
4.86362e-09
4.95681e-09
5.04604e-09
5.13141e-09
5.213e-09
5.29092e-09
5.36525e-09
5.43609e-09
5.50352e-09
5.56765e-09
5.62857e-09
5.68636e-09
5.7411e-09
5.7929e-09
5.84183e-09
5.88797e-09
5.93142e-09
5.97223e-09
6.0105e-09
6.0463e-09
6.07969e-09
6.11076e-09
6.13956e-09
6.16616e-09
6.19063e-09
6.21302e-09
6.23341e-09
6.25183e-09
6.26836e-09
6.28304e-09
6.29592e-09
6.30706e-09
6.31651e-09
6.3243e-09
6.33048e-09
6.33511e-09
6.33821e-09
6.33983e-09
6.34001e-09
6.33879e-09
6.3362e-09
6.33227e-09
6.32705e-09
6.32057e-09
6.31285e-09
6.30393e-09
6.29385e-09
6.28261e-09
6.27027e-09
6.25684e-09
6.24235e-09
6.22683e-09
6.2103e-09
6.19279e-09
6.17433e-09
6.15493e-09
6.13461e-09
6.11342e-09
6.09135e-09
6.06844e-09
6.04471e-09
6.02018e-09
5.99487e-09
5.9688e-09
5.94198e-09
5.91445e-09
5.88621e-09
5.85729e-09
5.82771e-09
5.79748e-09
5.76662e-09
5.73515e-09
5.70309e-09
5.67046e-09
5.63727e-09
5.60353e-09
5.56928e-09
5.53451e-09
5.49926e-09
5.46353e-09
5.42734e-09
5.39071e-09
5.35365e-09
5.31618e-09
5.27832e-09
5.24007e-09
5.20146e-09
5.1625e-09
5.1232e-09
5.08359e-09
5.04366e-09
5.00345e-09
4.96295e-09
4.92219e-09
4.88118e-09
4.83994e-09
4.79847e-09
4.7568e-09
4.71493e-09
4.67287e-09
4.63065e-09
4.58827e-09
4.54574e-09
4.50309e-09
4.46032e-09
4.41744e-09
4.37446e-09
4.33141e-09
4.28828e-09
4.24509e-09
4.20186e-09
4.15859e-09
4.1153e-09
4.07199e-09
4.02868e-09
3.98538e-09
3.9421e-09
3.89884e-09
3.85563e-09
3.81246e-09
3.76935e-09
3.72632e-09
3.68336e-09
3.64048e-09
3.59771e-09
3.55504e-09
3.51248e-09
3.47005e-09
3.42775e-09
3.38559e-09
3.34357e-09
3.30172e-09
3.26002e-09
3.2185e-09
3.17716e-09
3.136e-09
3.09504e-09
3.05427e-09
3.01371e-09
2.97337e-09
2.93324e-09
2.89334e-09
2.85367e-09
2.81424e-09
2.77505e-09
2.73611e-09
2.69742e-09
2.65899e-09
2.62083e-09
2.58293e-09
2.5453e-09
2.50796e-09
2.47089e-09
2.43411e-09
2.39762e-09
2.36142e-09
2.32552e-09
2.28992e-09
2.25462e-09
2.21962e-09
2.18494e-09
2.15057e-09
2.11651e-09
2.08277e-09
2.04935e-09
2.01625e-09
1.98348e-09
1.95103e-09
1.9189e-09
1.88711e-09
1.85564e-09
1.82451e-09
1.79371e-09
1.76324e-09
1.73311e-09
1.70331e-09
1.67384e-09
1.64472e-09
1.61593e-09
1.58747e-09
1.55936e-09
1.53158e-09
1.50413e-09
1.47703e-09
1.45026e-09
1.42383e-09
1.39773e-09
1.37196e-09
1.34653e-09
1.32144e-09
1.29667e-09
1.27224e-09
1.24814e-09
1.22437e-09
1.20092e-09
1.1778e-09
1.15501e-09
1.13254e-09
1.11039e-09
1.08856e-09
1.06705e-09
1.04586e-09
1.02498e-09
1.00441e-09
9.84159e-10
9.64213e-10
9.44574e-10
9.25239e-10
9.06207e-10
8.87475e-10
8.69041e-10
8.50902e-10
8.33056e-10
8.15501e-10
7.98233e-10
7.81251e-10
7.64552e-10
7.48133e-10
7.31992e-10
7.16126e-10
7.00532e-10
6.85208e-10
6.7015e-10
6.55356e-10
6.40824e-10
6.2655e-10
6.12532e-10
5.98766e-10
5.8525e-10
5.71982e-10
5.58957e-10
5.46173e-10
5.33628e-10
5.21318e-10
5.0924e-10
4.97392e-10
4.85771e-10
4.74373e-10
4.63196e-10
4.52236e-10
4.41492e-10
4.30959e-10
4.20635e-10
4.10517e-10
4.00603e-10
3.90889e-10
3.81372e-10
3.72049e-10
3.62918e-10
3.53976e-10
3.4522e-10
3.36646e-10
3.28253e-10
3.20038e-10
3.11997e-10
3.04128e-10
2.96428e-10
2.88894e-10
2.81524e-10
2.74315e-10
2.67265e-10
2.6037e-10
2.53628e-10
2.47036e-10
2.40592e-10
2.34294e-10
2.28138e-10
2.22123e-10
2.16245e-10
2.10502e-10
2.04892e-10
1.99413e-10
1.94061e-10
1.88836e-10
1.83733e-10
1.78752e-10
1.73889e-10
1.69143e-10
1.64511e-10
1.59991e-10
1.55581e-10
1.51278e-10
1.47081e-10
1.42988e-10
1.38996e-10
1.35104e-10
1.31309e-10
1.2761e-10
1.24004e-10
1.2049e-10
1.17066e-10
1.13729e-10
1.10479e-10
1.07313e-10
1.04229e-10
1.01226e-10
9.83027e-11
9.54563e-11
9.26857e-11
8.99892e-11
8.73652e-11
8.48121e-11
8.23285e-11
7.99127e-11
7.75634e-11
7.5279e-11
7.30582e-11
7.08995e-11
6.88015e-11
6.6763e-11
6.47825e-11
6.28589e-11
6.09908e-11
5.9177e-11
5.74162e-11
5.57074e-11
5.40493e-11
5.24408e-11
5.08807e-11
4.93681e-11
4.79019e-11
4.64809e-11
4.51043e-11
4.37709e-11
4.24799e-11
4.12304e-11
4.00213e-11
3.88519e-11
3.77212e-11
3.66284e-11
3.55727e-11
3.45533e-11
3.35694e-11
3.26203e-11
3.17052e-11
3.08234e-11
2.99743e-11
2.91572e-11
2.83714e-11
2.76163e-11
2.68914e-11
2.6196e-11
2.55296e-11
2.48917e-11
2.42816e-11
2.36991e-11
2.31435e-11
2.26144e-11
2.21114e-11
2.1634e-11
2.11819e-11
2.07547e-11
2.03521e-11
1.99736e-11
1.96191e-11
1.92881e-11
1.89804e-11
1.86958e-11
1.8434e-11
1.81948e-11
1.79779e-11
1.77833e-11
1.76107e-11
1.746e-11
1.7331e-11
1.72237e-11
1.71379e-11
1.70737e-11
1.70309e-11
1.70096e-11
1.03924e-10
3.11539e-10
5.18456e-10
7.24228e-10
9.28431e-10
1.13067e-09
1.33057e-09
1.5278e-09
1.72205e-09
1.91304e-09
2.10052e-09
2.28427e-09
2.46409e-09
2.63983e-09
2.81134e-09
2.97849e-09
3.1412e-09
3.2994e-09
3.45301e-09
3.60202e-09
3.74641e-09
3.88615e-09
4.02128e-09
4.15181e-09
4.27777e-09
4.39921e-09
4.51619e-09
4.62875e-09
4.73698e-09
4.84094e-09
4.94072e-09
5.03639e-09
5.12804e-09
5.21576e-09
5.29964e-09
5.37977e-09
5.45624e-09
5.52915e-09
5.59858e-09
5.66463e-09
5.72739e-09
5.78695e-09
5.8434e-09
5.89682e-09
5.94731e-09
5.99493e-09
6.03979e-09
6.08195e-09
6.1215e-09
6.1585e-09
6.19304e-09
6.22519e-09
6.25501e-09
6.28257e-09
6.30794e-09
6.33117e-09
6.35234e-09
6.3715e-09
6.3887e-09
6.404e-09
6.41746e-09
6.42913e-09
6.43904e-09
6.44726e-09
6.45383e-09
6.4588e-09
6.4622e-09
6.46408e-09
6.46447e-09
6.46343e-09
6.46098e-09
6.45716e-09
6.45201e-09
6.44556e-09
6.43784e-09
6.42889e-09
6.41874e-09
6.40741e-09
6.39495e-09
6.38137e-09
6.3667e-09
6.35097e-09
6.33421e-09
6.31644e-09
6.29769e-09
6.27799e-09
6.25735e-09
6.23579e-09
6.21336e-09
6.19005e-09
6.16591e-09
6.14094e-09
6.11518e-09
6.08863e-09
6.06133e-09
6.03328e-09
6.00452e-09
5.97506e-09
5.94492e-09
5.91412e-09
5.88267e-09
5.8506e-09
5.81792e-09
5.78466e-09
5.75082e-09
5.71644e-09
5.68151e-09
5.64607e-09
5.61012e-09
5.57369e-09
5.53679e-09
5.49944e-09
5.46165e-09
5.42344e-09
5.38482e-09
5.34582e-09
5.30644e-09
5.26671e-09
5.22663e-09
5.18622e-09
5.1455e-09
5.10448e-09
5.06317e-09
5.0216e-09
4.97977e-09
4.9377e-09
4.8954e-09
4.85289e-09
4.81018e-09
4.76728e-09
4.72421e-09
4.68098e-09
4.6376e-09
4.59409e-09
4.55045e-09
4.50671e-09
4.46287e-09
4.41895e-09
4.37495e-09
4.33089e-09
4.28679e-09
4.24265e-09
4.19848e-09
4.1543e-09
4.11012e-09
4.06594e-09
4.02179e-09
3.97766e-09
3.93357e-09
3.88954e-09
3.84556e-09
3.80165e-09
3.75782e-09
3.71409e-09
3.67045e-09
3.62691e-09
3.5835e-09
3.54021e-09
3.49705e-09
3.45404e-09
3.41118e-09
3.36848e-09
3.32594e-09
3.28358e-09
3.2414e-09
3.19941e-09
3.15762e-09
3.11603e-09
3.07465e-09
3.03349e-09
2.99255e-09
2.95185e-09
2.91138e-09
2.87115e-09
2.83116e-09
2.79144e-09
2.75197e-09
2.71276e-09
2.67382e-09
2.63516e-09
2.59677e-09
2.55867e-09
2.52086e-09
2.48333e-09
2.4461e-09
2.40917e-09
2.37254e-09
2.33622e-09
2.30021e-09
2.26451e-09
2.22913e-09
2.19406e-09
2.15931e-09
2.12489e-09
2.09079e-09
2.05703e-09
2.02359e-09
1.99048e-09
1.95771e-09
1.92527e-09
1.89317e-09
1.86141e-09
1.82998e-09
1.7989e-09
1.76815e-09
1.73775e-09
1.70769e-09
1.67798e-09
1.6486e-09
1.61958e-09
1.59089e-09
1.56255e-09
1.53455e-09
1.5069e-09
1.47959e-09
1.45262e-09
1.42599e-09
1.39971e-09
1.37376e-09
1.34816e-09
1.3229e-09
1.29797e-09
1.27338e-09
1.24913e-09
1.22521e-09
1.20162e-09
1.17836e-09
1.15544e-09
1.13284e-09
1.11057e-09
1.08863e-09
1.06701e-09
1.04571e-09
1.02472e-09
1.00406e-09
9.83711e-10
9.63675e-10
9.4395e-10
9.24533e-10
9.05422e-10
8.86615e-10
8.68109e-10
8.49902e-10
8.31992e-10
8.14375e-10
7.9705e-10
7.80013e-10
7.63262e-10
7.46794e-10
7.30607e-10
7.14698e-10
6.99064e-10
6.83702e-10
6.68609e-10
6.53783e-10
6.3922e-10
6.24918e-10
6.10874e-10
5.97085e-10
5.83548e-10
5.7026e-10
5.57218e-10
5.44419e-10
5.3186e-10
5.19538e-10
5.07451e-10
4.95594e-10
4.83966e-10
4.72562e-10
4.61381e-10
4.50419e-10
4.39674e-10
4.29141e-10
4.18819e-10
4.08704e-10
3.98793e-10
3.89084e-10
3.79573e-10
3.70257e-10
3.61134e-10
3.52201e-10
3.43454e-10
3.34891e-10
3.2651e-10
3.18306e-10
3.10278e-10
3.02422e-10
2.94736e-10
2.87217e-10
2.79863e-10
2.72669e-10
2.65635e-10
2.58757e-10
2.52032e-10
2.45458e-10
2.39032e-10
2.32752e-10
2.26614e-10
2.20618e-10
2.14759e-10
2.09036e-10
2.03445e-10
1.97986e-10
1.92654e-10
1.87449e-10
1.82366e-10
1.77405e-10
1.72563e-10
1.67837e-10
1.63226e-10
1.58727e-10
1.54337e-10
1.50056e-10
1.4588e-10
1.41807e-10
1.37836e-10
1.33965e-10
1.30191e-10
1.26512e-10
1.22927e-10
1.19433e-10
1.16029e-10
1.12713e-10
1.09483e-10
1.06337e-10
1.03273e-10
1.0029e-10
9.73866e-11
9.45599e-11
9.18089e-11
8.91318e-11
8.65272e-11
8.39933e-11
8.15287e-11
7.91319e-11
7.68013e-11
7.45355e-11
7.23332e-11
7.01928e-11
6.8113e-11
6.60925e-11
6.413e-11
6.22241e-11
6.03736e-11
5.85773e-11
5.68339e-11
5.51422e-11
5.35012e-11
5.19096e-11
5.03664e-11
4.88705e-11
4.74208e-11
4.60163e-11
4.4656e-11
4.33389e-11
4.20641e-11
4.08306e-11
3.96375e-11
3.84839e-11
3.73691e-11
3.6292e-11
3.5252e-11
3.42482e-11
3.32799e-11
3.23463e-11
3.14467e-11
3.05804e-11
2.97468e-11
2.89451e-11
2.81748e-11
2.74352e-11
2.67257e-11
2.60459e-11
2.5395e-11
2.47726e-11
2.41783e-11
2.36115e-11
2.30717e-11
2.25585e-11
2.20715e-11
2.16103e-11
2.11744e-11
2.07636e-11
2.03775e-11
2.00158e-11
1.96781e-11
1.93643e-11
1.90739e-11
1.88068e-11
1.85627e-11
1.83415e-11
1.81429e-11
1.79668e-11
1.7813e-11
1.76814e-11
1.75719e-11
1.74844e-11
1.74189e-11
1.73753e-11
1.73535e-11
1.04652e-10
3.13734e-10
5.22152e-10
7.29477e-10
9.35299e-10
1.13923e-09
1.3409e-09
1.53998e-09
1.73616e-09
1.92916e-09
2.11872e-09
2.30461e-09
2.48665e-09
2.66464e-09
2.83846e-09
3.00796e-09
3.17304e-09
3.33364e-09
3.48967e-09
3.64111e-09
3.78792e-09
3.93009e-09
4.06762e-09
4.20054e-09
4.32887e-09
4.45265e-09
4.57193e-09
4.68677e-09
4.79722e-09
4.90336e-09
5.00527e-09
5.10302e-09
5.1967e-09
5.28639e-09
5.37218e-09
5.45416e-09
5.53243e-09
5.60707e-09
5.67817e-09
5.74583e-09
5.81014e-09
5.87119e-09
5.92906e-09
5.98385e-09
6.03564e-09
6.08451e-09
6.13056e-09
6.17385e-09
6.21447e-09
6.25249e-09
6.28799e-09
6.32105e-09
6.35172e-09
6.38009e-09
6.40621e-09
6.43016e-09
6.45198e-09
6.47175e-09
6.48952e-09
6.50535e-09
6.51929e-09
6.5314e-09
6.54172e-09
6.5503e-09
6.5572e-09
6.56245e-09
6.5661e-09
6.56819e-09
6.56877e-09
6.56788e-09
6.56555e-09
6.56182e-09
6.55673e-09
6.55031e-09
6.54259e-09
6.53362e-09
6.52341e-09
6.51201e-09
6.49944e-09
6.48573e-09
6.47091e-09
6.45501e-09
6.43806e-09
6.42008e-09
6.40109e-09
6.38113e-09
6.36021e-09
6.33837e-09
6.31562e-09
6.29199e-09
6.26749e-09
6.24216e-09
6.21602e-09
6.18907e-09
6.16136e-09
6.13289e-09
6.10369e-09
6.07377e-09
6.04317e-09
6.01188e-09
5.97994e-09
5.94737e-09
5.91418e-09
5.88039e-09
5.84601e-09
5.81107e-09
5.77559e-09
5.73958e-09
5.70305e-09
5.66603e-09
5.62854e-09
5.59058e-09
5.55218e-09
5.51335e-09
5.4741e-09
5.43446e-09
5.39444e-09
5.35406e-09
5.31332e-09
5.27225e-09
5.23086e-09
5.18917e-09
5.14719e-09
5.10493e-09
5.06241e-09
5.01965e-09
4.97665e-09
4.93344e-09
4.89003e-09
4.84642e-09
4.80264e-09
4.75869e-09
4.7146e-09
4.67036e-09
4.62601e-09
4.58154e-09
4.53698e-09
4.49233e-09
4.4476e-09
4.40282e-09
4.35798e-09
4.31311e-09
4.26821e-09
4.2233e-09
4.17839e-09
4.13348e-09
4.08859e-09
4.04373e-09
3.99891e-09
3.95415e-09
3.90944e-09
3.8648e-09
3.82025e-09
3.77578e-09
3.73142e-09
3.68717e-09
3.64303e-09
3.59902e-09
3.55515e-09
3.51142e-09
3.46785e-09
3.42444e-09
3.3812e-09
3.33813e-09
3.29525e-09
3.25257e-09
3.21008e-09
3.1678e-09
3.12573e-09
3.08389e-09
3.04227e-09
3.00089e-09
2.95975e-09
2.91885e-09
2.8782e-09
2.83782e-09
2.79769e-09
2.75783e-09
2.71825e-09
2.67894e-09
2.63992e-09
2.60118e-09
2.56274e-09
2.52459e-09
2.48674e-09
2.4492e-09
2.41196e-09
2.37504e-09
2.33843e-09
2.30214e-09
2.26616e-09
2.23051e-09
2.19519e-09
2.1602e-09
2.12553e-09
2.0912e-09
2.05721e-09
2.02355e-09
1.99024e-09
1.95726e-09
1.92462e-09
1.89233e-09
1.86039e-09
1.82879e-09
1.79753e-09
1.76663e-09
1.73607e-09
1.70586e-09
1.676e-09
1.64649e-09
1.61732e-09
1.58851e-09
1.56005e-09
1.53194e-09
1.50417e-09
1.47675e-09
1.44969e-09
1.42296e-09
1.39659e-09
1.37056e-09
1.34488e-09
1.31954e-09
1.29454e-09
1.26988e-09
1.24556e-09
1.22158e-09
1.19794e-09
1.17464e-09
1.15167e-09
1.12903e-09
1.10672e-09
1.08474e-09
1.06308e-09
1.04175e-09
1.02074e-09
1.00006e-09
9.79687e-10
9.59634e-10
9.39894e-10
9.20466e-10
9.01346e-10
8.82533e-10
8.64024e-10
8.45816e-10
8.27906e-10
8.10293e-10
7.92973e-10
7.75944e-10
7.59203e-10
7.42747e-10
7.26573e-10
7.10679e-10
6.95062e-10
6.79718e-10
6.64646e-10
6.49841e-10
6.35302e-10
6.21024e-10
6.07006e-10
5.93244e-10
5.79735e-10
5.66476e-10
5.53465e-10
5.40697e-10
5.28171e-10
5.15882e-10
5.03829e-10
4.92007e-10
4.80414e-10
4.69047e-10
4.57903e-10
4.46979e-10
4.36272e-10
4.25778e-10
4.15495e-10
4.05419e-10
3.95548e-10
3.85879e-10
3.76409e-10
3.67134e-10
3.58053e-10
3.49161e-10
3.40456e-10
3.31935e-10
3.23595e-10
3.15433e-10
3.07447e-10
2.99633e-10
2.91989e-10
2.84513e-10
2.772e-10
2.70049e-10
2.63056e-10
2.56219e-10
2.49536e-10
2.43003e-10
2.36619e-10
2.3038e-10
2.24283e-10
2.18327e-10
2.12509e-10
2.06826e-10
2.01275e-10
1.95855e-10
1.90563e-10
1.85396e-10
1.80353e-10
1.7543e-10
1.70626e-10
1.65938e-10
1.61364e-10
1.56902e-10
1.52549e-10
1.48303e-10
1.44163e-10
1.40126e-10
1.3619e-10
1.32354e-10
1.28614e-10
1.24969e-10
1.21417e-10
1.17957e-10
1.14586e-10
1.11302e-10
1.08104e-10
1.04989e-10
1.01957e-10
9.90047e-11
9.6131e-11
9.33343e-11
9.06128e-11
8.79648e-11
8.53888e-11
8.28833e-11
8.04466e-11
7.80773e-11
7.57739e-11
7.3535e-11
7.13591e-11
6.92447e-11
6.71907e-11
6.51955e-11
6.3258e-11
6.13767e-11
5.95505e-11
5.77782e-11
5.60584e-11
5.43901e-11
5.27721e-11
5.12033e-11
4.96825e-11
4.82087e-11
4.67809e-11
4.5398e-11
4.4059e-11
4.2763e-11
4.1509e-11
4.02961e-11
3.91233e-11
3.79899e-11
3.6895e-11
3.58377e-11
3.48172e-11
3.38328e-11
3.28837e-11
3.19692e-11
3.10885e-11
3.0241e-11
2.9426e-11
2.86429e-11
2.7891e-11
2.71698e-11
2.64786e-11
2.58169e-11
2.51842e-11
2.458e-11
2.40038e-11
2.3455e-11
2.29333e-11
2.24382e-11
2.19693e-11
2.15262e-11
2.11086e-11
2.07161e-11
2.03484e-11
2.00051e-11
1.9686e-11
1.93908e-11
1.91192e-11
1.88711e-11
1.86462e-11
1.84443e-11
1.82653e-11
1.8109e-11
1.79752e-11
1.78639e-11
1.77749e-11
1.77083e-11
1.7664e-11
1.76418e-11
1.05249e-10
3.15534e-10
5.25179e-10
7.33768e-10
9.40902e-10
1.1462e-09
1.3493e-09
1.54987e-09
1.7476e-09
1.9422e-09
2.13343e-09
2.32104e-09
2.50484e-09
2.68465e-09
2.86031e-09
3.03169e-09
3.19868e-09
3.36119e-09
3.51916e-09
3.67254e-09
3.82129e-09
3.9654e-09
4.10486e-09
4.2397e-09
4.36993e-09
4.49558e-09
4.61671e-09
4.73336e-09
4.8456e-09
4.95349e-09
5.05711e-09
5.15653e-09
5.25184e-09
5.34311e-09
5.43044e-09
5.51391e-09
5.59361e-09
5.66965e-09
5.74209e-09
5.81105e-09
5.8766e-09
5.93884e-09
5.99786e-09
6.05375e-09
6.10659e-09
6.15647e-09
6.20347e-09
6.24767e-09
6.28915e-09
6.32799e-09
6.36427e-09
6.39805e-09
6.42942e-09
6.45844e-09
6.48517e-09
6.50968e-09
6.53204e-09
6.55231e-09
6.57054e-09
6.58679e-09
6.60112e-09
6.61358e-09
6.62422e-09
6.6331e-09
6.64025e-09
6.64574e-09
6.64959e-09