/*--------------------------------*- C++ -*----------------------------------*\
  =========                 |
  \\      /  F ield         | OpenFOAM: The Open Source CFD Toolbox
   \\    /   O peration     | Website:  https://openfoam.org
    \\  /    A nd           | Version:  10
     \\/     M anipulation  |
\*---------------------------------------------------------------------------*/
FoamFile
{
    format      ascii;
    class       volScalarField;
    location    "0.04";
    object      cov;
}
// * * * * * * * * * * * * * * * * * * * * * * * * * * * * * * * * * * * * * //

dimensions      [0 0 0 0 0 0 0];

internalField   uniform 0;

boundaryField
{
    frontAndBack
    {
        type            empty;
    }
    inlet
    {
        type            calculated;
        value           uniform 0;
    }
    outlet
    {
        type            calculated;
        value           uniform 0;
    }
    substrate
    {
        type            calculated;
        value           nonuniform List<scalar> 
400
(
0.185826
0.167693
0.15201
0.138106
0.125616
0.114314
0.104042
0.0946821
0.0861395
0.0783366
0.0712064
0.0646907
0.0587375
0.0532999
0.0483356
0.0438058
0.0396748
0.03591
0.032481
0.0293602
0.0265217
0.0239419
0.0215988
0.0194721
0.0175432
0.0157951
0.0142117
0.0127787
0.0114826
0.0103111
0.00925303
0.00829803
0.00743666
0.00666026
0.00596093
0.00533145
0.00476523
0.00425627
0.00379909
0.00338869
0.00302056
0.00269056
0.00239495
0.00213034
0.00189363
0.00168204
0.00149303
0.00132431
0.00117381
0.00103967
0.000920189
0.000813843
0.000719259
0.000635197
0.000560543
0.000494293
0.000435545
0.000383489
0.000337399
0.00029662
0.00026057
0.000228724
0.000200614
0.000175822
0.000153972
0.000134731
0.000117801
0.000102917
8.98405e-05
7.83628e-05
6.82962e-05
5.94744e-05
5.17498e-05
4.49916e-05
3.90838e-05
3.39237e-05
2.94204e-05
2.54936e-05
2.20725e-05
1.90944e-05
1.65042e-05
1.42533e-05
1.2299e-05
1.06035e-05
9.134e-06
7.86137e-06
6.76023e-06
5.80831e-06
4.9861e-06
4.27657e-06
3.6648e-06
3.1378e-06
2.68423e-06
2.2942e-06
1.95912e-06
1.6715e-06
1.42484e-06
1.2135e-06
1.03259e-06
8.7786e-07
7.4565e-07
6.32784e-07
5.36519e-07
4.54489e-07
3.84653e-07
3.25253e-07
2.74777e-07
2.31924e-07
1.95576e-07
1.64774e-07
1.38696e-07
1.16639e-07
9.79996e-08
8.22634e-08
6.89906e-08
5.7806e-08
4.839e-08
4.04704e-08
3.38157e-08
2.82291e-08
2.35436e-08
1.96175e-08
1.6331e-08
1.35825e-08
1.1286e-08
9.36906e-09
7.77046e-09
6.43861e-09
5.33005e-09
4.40824e-09
3.64243e-09
3.00684e-09
2.47984e-09
2.04328e-09
1.682e-09
1.38329e-09
1.13657e-09
9.32968e-10
7.65121e-10
6.2688e-10
5.13133e-10
4.19629e-10
3.42841e-10
2.7984e-10
2.282e-10
1.85915e-10
1.51322e-10
1.23049e-10
9.99645e-11
8.1134e-11
6.57884e-11
5.32949e-11
4.31332e-11
3.48761e-11
2.8173e-11
2.27367e-11
1.83321e-11
1.47668e-11
1.18836e-11
9.55439e-12
7.67443e-12
6.15855e-12
4.93744e-12
3.95471e-12
3.16459e-12
2.52994e-12
2.02066e-12
1.61238e-12
1.28538e-12
1.02373e-12
8.14574e-13
6.47541e-13
5.14274e-13
4.0805e-13
3.23462e-13
2.56168e-13
2.02684e-13
1.60215e-13
1.26527e-13
9.98279e-14
7.86892e-14
6.19685e-14
4.87551e-14
3.83232e-14
3.00953e-14
2.36118e-14
1.85077e-14
1.44934e-14
1.13392e-14
8.86324e-15
6.92144e-15
5.40002e-15
4.20912e-15
3.2778e-15
2.55018e-15
1.98224e-15
1.53935e-15
1.19431e-15
9.25752e-16
7.1692e-16
5.54683e-16
4.28764e-16
3.31124e-16
2.55484e-16
1.96941e-16
1.51673e-16
1.16703e-16
8.97135e-17
6.89024e-17
5.28705e-17
4.05316e-17
3.1044e-17
2.37556e-17
1.81617e-17
1.38724e-17
1.05864e-17
8.0715e-18
6.14842e-18
4.67928e-18
3.55796e-18
2.7029e-18
2.05147e-18
1.55564e-18
1.17858e-18
8.9211e-19
6.74663e-19
5.09759e-19
3.84816e-19
2.90236e-19
2.18706e-19
1.64657e-19
1.23855e-19
9.30802e-20
6.98899e-20
5.24306e-20
3.92979e-20
2.94285e-20
2.20182e-20
1.64592e-20
1.22929e-20
9.17308e-21
6.839e-21
5.09433e-21
3.7914e-21
2.81923e-21
2.0945e-21
1.55471e-21
1.15303e-21
8.54375e-22
6.32527e-22
4.67876e-22
3.45784e-22
2.5533e-22
1.88374e-22
1.38856e-22
1.02266e-22
7.52531e-23
5.53276e-23
4.06429e-23
2.98301e-23
2.18752e-23
1.60278e-23
1.17335e-23
8.58238e-24
6.27216e-24
4.57991e-24
3.34138e-24
2.43572e-24
1.77402e-24
1.29099e-24
9.38682e-25
6.81942e-25
4.95006e-25
3.59011e-25
2.60159e-25
1.88368e-25
1.36273e-25
9.85028e-26
7.11419e-26
5.1338e-26
3.70162e-26
2.66675e-26
1.91961e-26
1.38065e-26
9.92188e-27
7.12436e-27
5.11139e-27
3.66417e-27
2.62454e-27
1.87835e-27
1.3432e-27
9.59737e-28
6.85185e-28
4.88775e-28
3.48383e-28
2.48114e-28
1.7656e-28
1.2554e-28
8.91912e-29
6.33155e-29
4.49105e-29
3.183e-29
2.25411e-29
1.59502e-29
1.12774e-29
7.96718e-30
5.62411e-30
3.96695e-30
2.79586e-30
1.96892e-30
1.38547e-30
9.74138e-31
6.84388e-31
4.80442e-31
3.37007e-31
2.36208e-31
1.65428e-31
1.15767e-31
8.09505e-32
5.65609e-32
3.94888e-32
2.75483e-32
1.92034e-32
1.33759e-32
9.30966e-33
6.47454e-33
4.49934e-33
3.12431e-33
2.16784e-33
1.50302e-33
1.04129e-33
7.20854e-34
4.98644e-34
3.4467e-34
2.38059e-34
1.643e-34
1.13308e-34
7.80832e-35
5.37682e-35
3.6997e-35
2.54378e-35
1.7477e-35
1.19986e-35
8.23129e-36
5.64262e-36
3.86519e-36
2.64568e-36
1.80959e-36
1.23681e-36
8.44702e-37
5.76479e-37
3.93136e-37
2.67906e-37
1.82433e-37
1.24138e-37
8.44094e-38
5.73533e-38
3.89412e-38
2.64206e-38
1.79127e-38
1.21357e-38
8.2159e-39
5.55815e-39
3.75745e-39
2.5383e-39
1.71348e-39
1.15586e-39
7.79149e-40
5.24838e-40
3.5328e-40
2.37632e-40
1.59728e-40
1.07288e-40
7.2013e-41
4.83019e-41
3.23752e-41
2.16847e-41
1.45141e-41
9.70781e-42
6.48856e-42
4.33383e-42
2.89263e-42
1.92935e-42
1.28596e-42
8.56531e-43
5.7011e-43
3.79206e-43
2.52056e-43
1.67428e-43
1.11143e-43
7.37378e-44
4.89008e-44
3.24273e-44
2.1519e-44
1.43165e-44
9.58833e-45
6.52323e-45
4.5939e-45
3.46747e-45
2.94917e-45
)
;
    }
    Wall
    {
        type            calculated;
        value           nonuniform List<scalar> 
400
(
0.185826
0.167693
0.15201
0.138106
0.125616
0.114314
0.104042
0.0946823
0.0861399
0.0783371
0.071207
0.0646914
0.0587382
0.0533006
0.0483363
0.0438065
0.0396755
0.0359106
0.0324817
0.0293609
0.0265224
0.0239425
0.0215993
0.0194726
0.0175437
0.0157955
0.0142122
0.0127791
0.0114829
0.0103115
0.00925335
0.00829833
0.00743693
0.00666051
0.00596116
0.00533167
0.00476543
0.00425645
0.00379925
0.00338885
0.0030207
0.00269069
0.00239507
0.00213044
0.00189373
0.00168212
0.00149311
0.00132438
0.00117388
0.00103973
0.000920243
0.000813892
0.000719303
0.000635237
0.000560579
0.000494325
0.000435574
0.000383516
0.000337422
0.000296642
0.000260589
0.000228741
0.00020063
0.000175835
0.000153984
0.000134742
0.000117811
0.000102925
8.98484e-05
7.83698e-05
6.83024e-05
5.94799e-05
5.17547e-05
4.4996e-05
3.90877e-05
3.39271e-05
2.94234e-05
2.54963e-05
2.20749e-05
1.90965e-05
1.65061e-05
1.4255e-05
1.23004e-05
1.06048e-05
9.13511e-06
7.86235e-06
6.76109e-06
5.80906e-06
4.98676e-06
4.27714e-06
3.6653e-06
3.13824e-06
2.68461e-06
2.29454e-06
1.95941e-06
1.67175e-06
1.42506e-06
1.21369e-06
1.03275e-06
8.78004e-07
7.45775e-07
6.32892e-07
5.36613e-07
4.5457e-07
3.84723e-07
3.25314e-07
2.74829e-07
2.31969e-07
1.95614e-07
1.64807e-07
1.38724e-07
1.16663e-07
9.80204e-08
8.22812e-08
6.90058e-08
5.7819e-08
4.84011e-08
4.04799e-08
3.38237e-08
2.82359e-08
2.35494e-08
1.96225e-08
1.63352e-08
1.3586e-08
1.1289e-08
9.3716e-09
7.77261e-09
6.44042e-09
5.33158e-09
4.40952e-09
3.64351e-09
3.00775e-09
2.4806e-09
2.04392e-09
1.68253e-09
1.38374e-09
1.13694e-09
9.33282e-10
7.65383e-10
6.27099e-10
5.13315e-10
4.19781e-10
3.42967e-10
2.79944e-10
2.28287e-10
1.85987e-10
1.51381e-10
1.23099e-10
1.00005e-10
8.11677e-11
6.58162e-11
5.33178e-11
4.31521e-11
3.48916e-11
2.81857e-11
2.27472e-11
1.83407e-11
1.47738e-11
1.18894e-11
9.55909e-12
7.67826e-12
6.16169e-12
4.93999e-12
3.95678e-12
3.16628e-12
2.53131e-12
2.02177e-12
1.61328e-12
1.28611e-12
1.02432e-12
8.15054e-13
6.47928e-13
5.14586e-13
4.08302e-13
3.23665e-13
2.56331e-13
2.02815e-13
1.60321e-13
1.26611e-13
9.98957e-14
7.87434e-14
6.20119e-14
4.87898e-14
3.83509e-14
3.01174e-14
2.36293e-14
1.85217e-14
1.45046e-14
1.13481e-14
8.87026e-15
6.927e-15
5.40443e-15
4.2126e-15
3.28056e-15
2.55235e-15
1.98395e-15
1.5407e-15
1.19538e-15
9.26591e-16
7.17579e-16
5.552e-16
4.2917e-16
3.31442e-16
2.55733e-16
1.97136e-16
1.51825e-16
1.16822e-16
8.98061e-17
6.89745e-17
5.29266e-17
4.05753e-17
3.10779e-17
2.37819e-17
1.81821e-17
1.38882e-17
1.05987e-17
8.08095e-18
6.15573e-18
4.68492e-18
3.5623e-18
2.70624e-18
2.05404e-18
1.55761e-18
1.1801e-18
8.93276e-19
6.75557e-19
5.10444e-19
3.8534e-19
2.90636e-19
2.19011e-19
1.6489e-19
1.24033e-19
9.32156e-20
6.9993e-20
5.2509e-20
3.93574e-20
2.94736e-20
2.20524e-20
1.64852e-20
1.23125e-20
9.1879e-21
6.85019e-21
5.10278e-21
3.79777e-21
2.82403e-21
2.09811e-21
1.55742e-21
1.15506e-21
8.55904e-22
6.33673e-22
4.68735e-22
3.46427e-22
2.5581e-22
1.88733e-22
1.39124e-22
1.02466e-22
7.54018e-23
5.54383e-23
4.07253e-23
2.98913e-23
2.19206e-23
1.60615e-23
1.17584e-23
8.60085e-24
6.28583e-24
4.59001e-24
3.34884e-24
2.44122e-24
1.77807e-24
1.29397e-24
9.40878e-25
6.83557e-25
4.96192e-25
3.59881e-25
2.60797e-25
1.88835e-25
1.36615e-25
9.87529e-26
7.13246e-26
5.14714e-26
3.71135e-26
2.67384e-26
1.92477e-26
1.3844e-26
9.94918e-27
7.14418e-27
5.12578e-27
3.67459e-27
2.6321e-27
1.88381e-27
1.34716e-27
9.62592e-28
6.87246e-28
4.90262e-28
3.49454e-28
2.48885e-28
1.77115e-28
1.25939e-28
8.94778e-29
6.35212e-29
4.5058e-29
3.19356e-29
2.26167e-29
1.60043e-29
1.13161e-29
7.99479e-30
5.64381e-30
3.98099e-30
2.80585e-30
1.97603e-30
1.39053e-30
9.77734e-31
6.8694e-31
4.82253e-31
3.3829e-31
2.37117e-31
1.66071e-31
1.16222e-31
8.12718e-32
5.67877e-32
3.96488e-32
2.7661e-32
1.92828e-32
1.34318e-32
9.34894e-33
6.50213e-33
4.51871e-33
3.1379e-33
2.17736e-33
1.50969e-33
1.04596e-33
7.24115e-34
5.00922e-34
3.4626e-34
2.39169e-34
1.65074e-34
1.13847e-34
7.8458e-35
5.40288e-35
3.7178e-35
2.55635e-35
1.75642e-35
1.2059e-35
8.27315e-36
5.67159e-36
3.88522e-36
2.65952e-36
1.81915e-36
1.24341e-36
8.4925e-37
5.79612e-37
3.95293e-37
2.6939e-37
1.83453e-37
1.24839e-37
8.489e-38
5.76829e-38
3.9167e-38
2.65753e-38
1.80186e-38
1.22081e-38
8.26533e-39
5.5919e-39
3.78047e-39
2.55399e-39
1.72417e-39
1.16314e-39
7.84097e-40
5.28201e-40
3.55565e-40
2.39182e-40
1.60779e-40
1.08e-40
7.24954e-41
4.86284e-41
3.25959e-41
2.18339e-41
1.46148e-41
9.77576e-42
6.53438e-42
4.3647e-42
2.91341e-42
1.94333e-42
1.29536e-42
8.62845e-43
5.74349e-43
3.8205e-43
2.53962e-43
1.68705e-43
1.11998e-43
7.43098e-44
4.92833e-44
3.26831e-44
2.16901e-44
1.44313e-44
9.66572e-45
6.57617e-45
4.63123e-45
3.49567e-45
2.97317e-45
)
;
    }
}


// ************************************************************************* //
