/*--------------------------------*- C++ -*----------------------------------*\
  =========                 |
  \\      /  F ield         | OpenFOAM: The Open Source CFD Toolbox
   \\    /   O peration     | Website:  https://openfoam.org
    \\  /    A nd           | Version:  10
     \\/     M anipulation  |
\*---------------------------------------------------------------------------*/
FoamFile
{
    format      ascii;
    class       volScalarField;
    location    "0.04";
    object      Exp1;
}
// * * * * * * * * * * * * * * * * * * * * * * * * * * * * * * * * * * * * * //

dimensions      [0 0 0 0 0 0 0];

internalField   uniform 0;

boundaryField
{
    frontAndBack
    {
        type            empty;
    }
    inlet
    {
        type            calculated;
        value           uniform 0;
    }
    outlet
    {
        type            calculated;
        value           uniform 0;
    }
    substrate
    {
        type            calculated;
        value           nonuniform List<scalar> 
400
(
0.103703
0.0941544
0.0859675
0.078739
0.0722524
0.066375
0.061017
0.0561125
0.0516108
0.0474708
0.0436584
0.0401448
0.0369045
0.0339154
0.0311576
0.0286131
0.0262655
0.0241002
0.0221032
0.0202622
0.0185655
0.0170023
0.0155628
0.0142376
0.0130183
0.0118968
0.010866
0.00991879
0.00904896
0.00825058
0.00751817
0.00684665
0.00623129
0.00566772
0.00515188
0.00468001
0.00424861
0.00385446
0.00349457
0.00316616
0.00286667
0.00259374
0.00234517
0.00211893
0.00191317
0.00172616
0.0015563
0.00140214
0.00126231
0.00113559
0.00102083
0.000916966
0.000823045
0.000738176
0.000661546
0.000592407
0.000530077
0.000473928
0.000423389
0.000377935
0.000337087
0.000300409
0.000267501
0.000238002
0.000211579
0.000187933
0.000166788
0.000147897
0.000131034
0.000115995
0.000102593
9.06605e-05
8.00464e-05
7.06132e-05
6.22369e-05
5.48058e-05
4.82192e-05
4.23863e-05
3.72257e-05
3.2664e-05
2.86355e-05
2.50811e-05
2.19479e-05
1.91886e-05
1.67608e-05
1.46267e-05
1.27526e-05
1.11083e-05
9.66706e-06
8.40497e-06
7.30083e-06
6.3358e-06
5.49316e-06
4.7581e-06
4.11751e-06
3.55979e-06
3.0747e-06
2.65318e-06
2.28726e-06
1.96993e-06
1.69499e-06
1.45703e-06
1.25127e-06
1.07354e-06
9.20155e-07
7.87926e-07
6.74045e-07
5.76064e-07
4.91847e-07
4.19533e-07
3.57502e-07
3.04345e-07
2.58839e-07
2.19921e-07
1.86672e-07
1.58293e-07
1.34098e-07
1.13488e-07
9.59519e-08
8.10453e-08
6.83869e-08
5.76486e-08
4.85485e-08
4.08444e-08
3.43288e-08
2.8824e-08
2.41779e-08
2.02606e-08
1.69612e-08
1.41849e-08
1.18513e-08
9.89173e-09
8.24797e-09
6.87052e-09
5.71741e-09
4.7531e-09
3.94749e-09
3.27516e-09
2.71463e-09
2.2478e-09
1.85938e-09
1.53656e-09
1.26851e-09
1.04618e-09
8.61959e-10
7.09468e-10
5.83373e-10
4.7921e-10
3.93254e-10
3.22394e-10
2.64039e-10
2.16031e-10
1.76575e-10
1.44183e-10
1.17615e-10
9.58472e-11
7.80305e-11
6.34625e-11
5.1563e-11
4.1853e-11
3.39378e-11
2.74922e-11
2.22487e-11
1.79873e-11
1.45278e-11
1.1722e-11
9.44871e-12
7.60876e-12
6.12104e-12
4.91934e-12
3.94965e-12
3.16798e-12
2.5385e-12
2.03209e-12
1.6251e-12
1.29834e-12
1.03627e-12
8.26279e-13
6.58195e-13
5.23789e-13
4.1642e-13
3.30735e-13
2.62425e-13
2.08019e-13
1.64732e-13
1.30325e-13
1.03003e-13
8.13305e-14
6.41552e-14
5.05578e-14
3.98035e-14
3.13064e-14
2.45993e-14
1.93104e-14
1.51439e-14
1.1865e-14
9.28697e-15
7.2621e-15
5.67325e-15
4.42774e-15
3.45235e-15
2.68925e-15
2.09281e-15
1.62709e-15
1.26379e-15
9.80676e-16
7.60257e-16
5.88817e-16
4.55602e-16
3.52191e-16
2.71993e-16
2.09857e-16
1.61762e-16
1.24572e-16
9.5841e-17
7.36669e-17
5.65696e-17
4.33994e-17
3.32641e-17
2.54718e-17
1.94866e-17
1.48938e-17
1.13728e-17
8.67603e-18
6.61257e-18
5.03518e-18
3.83049e-18
2.91132e-18
2.21066e-18
1.67707e-18
1.2711e-18
9.62505e-19
7.2816e-19
5.50364e-19
4.15598e-19
3.13543e-19
2.36331e-19
1.7797e-19
1.33899e-19
1.00648e-19
7.55861e-20
5.67127e-20
4.25132e-20
3.184e-20
2.38247e-20
1.7811e-20
1.33032e-20
9.92729e-21
7.4014e-21
5.51324e-21
4.10306e-21
3.05084e-21
2.26643e-21
1.68219e-21
1.24745e-21
9.2423e-22
6.84149e-22
5.05983e-22
3.73882e-22
2.76025e-22
2.036e-22
1.50046e-22
1.10481e-22
8.12769e-23
5.974e-23
4.38715e-23
3.21898e-23
2.3598e-23
1.72843e-23
1.26488e-23
9.24844e-24
6.75632e-24
4.93146e-24
3.59637e-24
2.62046e-24
1.90773e-24
1.38765e-24
1.00849e-24
7.32296e-25
5.31289e-25
3.85127e-25
2.78936e-25
2.01853e-25
1.45947e-25
1.05436e-25
7.61046e-26
5.48865e-26
3.95506e-26
2.84757e-26
2.04846e-26
1.47237e-26
1.05741e-26
7.58755e-27
5.43999e-27
3.89701e-27
2.78935e-27
1.99486e-27
1.42548e-27
1.01777e-27
7.26069e-28
5.17544e-28
3.68603e-28
2.62308e-28
1.86512e-28
1.3251e-28
9.40656e-29
6.67205e-29
4.72861e-29
3.34852e-29
2.3693e-29
1.67507e-29
1.1833e-29
8.35228e-30
5.89067e-30
4.1512e-30
2.92304e-30
2.05658e-30
1.4458e-30
1.0156e-30
7.12839e-31
4.99935e-31
3.5034e-31
2.45313e-31
1.71636e-31
1.19991e-31
8.38205e-32
5.8507e-32
4.08059e-32
2.84379e-32
1.9803e-32
1.37792e-32
9.58028e-33
6.6557e-33
4.62031e-33
3.20488e-33
2.22134e-33
1.53844e-33
1.06466e-33
7.36222e-34
5.0871e-34
3.51236e-34
2.42323e-34
1.67054e-34
1.15077e-34
7.92113e-35
5.44824e-35
3.74451e-35
2.57161e-35
1.76476e-35
1.21015e-35
8.29209e-36
5.67757e-36
3.8845e-36
2.65571e-36
1.81427e-36
1.23851e-36
8.44838e-37
5.75869e-37
3.92239e-37
2.66966e-37
1.81569e-37
1.23397e-37
8.38007e-38
5.68685e-38
3.85635e-38
2.61314e-38
1.76942e-38
1.19725e-38
8.09504e-39
5.46938e-39
3.69268e-39
2.49133e-39
1.6796e-39
1.13154e-39
7.61759e-40
5.12453e-40
3.44492e-40
2.31416e-40
1.55344e-40
1.04205e-40
6.98511e-41
4.67895e-41
3.13196e-41
2.09496e-41
1.40032e-41
9.35355e-42
6.24339e-42
4.1645e-42
2.77595e-42
1.84918e-42
1.23111e-42
8.19281e-43
5.45184e-43
3.63065e-43
2.42417e-43
1.62962e-43
1.11301e-43
7.86987e-44
5.96244e-44
5.08361e-44
)
;
    }
    Wall
    {
        type            calculated;
        value           nonuniform List<scalar> 
400
(
0.103703
0.0941544
0.0859676
0.078739
0.0722523
0.066375
0.061017
0.0561126
0.0516109
0.0474709
0.0436586
0.040145
0.0369048
0.0339157
0.0311578
0.0286133
0.0262658
0.0241004
0.0221035
0.0202625
0.0185657
0.0170025
0.015563
0.0142378
0.0130184
0.011897
0.0108661
0.00991896
0.00904912
0.00825073
0.00751831
0.00684678
0.00623141
0.00566783
0.00515199
0.00468011
0.00424871
0.00385455
0.00349465
0.00316624
0.00286675
0.00259381
0.00234523
0.00211899
0.00191323
0.00172621
0.00155635
0.00140218
0.00126235
0.00113563
0.00102086
0.000916998
0.000823074
0.000738203
0.00066157
0.00059243
0.000530098
0.000473948
0.000423407
0.000377951
0.000337102
0.000300422
0.000267514
0.000238013
0.00021159
0.000187942
0.000166797
0.000147905
0.000131041
0.000116001
0.000102598
9.06658e-05
8.00513e-05
7.06176e-05
6.22409e-05
5.48094e-05
4.82224e-05
4.23893e-05
3.72284e-05
3.26664e-05
2.86376e-05
2.5083e-05
2.19496e-05
1.91901e-05
1.67622e-05
1.46279e-05
1.27537e-05
1.11093e-05
9.66794e-06
8.40575e-06
7.30153e-06
6.33642e-06
5.49371e-06
4.75859e-06
4.11795e-06
3.56018e-06
3.07504e-06
2.65348e-06
2.28753e-06
1.97016e-06
1.6952e-06
1.45721e-06
1.25143e-06
1.07368e-06
9.20278e-07
7.88034e-07
6.74139e-07
5.76146e-07
4.91918e-07
4.19595e-07
3.57556e-07
3.04392e-07
2.5888e-07
2.19957e-07
1.86703e-07
1.5832e-07
1.34121e-07
1.13509e-07
9.59694e-08
8.10604e-08
6.83999e-08
5.76598e-08
4.85581e-08
4.08526e-08
3.43359e-08
2.88301e-08
2.41831e-08
2.02651e-08
1.6965e-08
1.41882e-08
1.18541e-08
9.8941e-09
8.24999e-09
6.87223e-09
5.71887e-09
4.75433e-09
3.94854e-09
3.27605e-09
2.71538e-09
2.24843e-09
1.85992e-09
1.53701e-09
1.26889e-09
1.0465e-09
8.62226e-10
7.09693e-10
5.83561e-10
4.79368e-10
3.93385e-10
3.22504e-10
2.6413e-10
2.16107e-10
1.76639e-10
1.44236e-10
1.17659e-10
9.58838e-11
7.80609e-11
6.34876e-11
5.15838e-11
4.18702e-11
3.3952e-11
2.75039e-11
2.22583e-11
1.79953e-11
1.45343e-11
1.17274e-11
9.45311e-12
7.61237e-12
6.12399e-12
4.92176e-12
3.95163e-12
3.16959e-12
2.53981e-12
2.03316e-12
1.62597e-12
1.29905e-12
1.03684e-12
8.26745e-13
6.58573e-13
5.24095e-13
4.16667e-13
3.30935e-13
2.62586e-13
2.08149e-13
1.64836e-13
1.30409e-13
1.03071e-13
8.13847e-14
6.41987e-14
5.05926e-14
3.98313e-14
3.13286e-14
2.4617e-14
1.93246e-14
1.51552e-14
1.1874e-14
9.29412e-15
7.26778e-15
5.67775e-15
4.43132e-15
3.45519e-15
2.69149e-15
2.09458e-15
1.62848e-15
1.2649e-15
9.81545e-16
7.60941e-16
5.89355e-16
4.56025e-16
3.52522e-16
2.72253e-16
2.10061e-16
1.61922e-16
1.24696e-16
9.59382e-17
7.37427e-17
5.66287e-17
4.34455e-17
3.32999e-17
2.54996e-17
1.95082e-17
1.49105e-17
1.13857e-17
8.68606e-18
6.62033e-18
5.04117e-18
3.83512e-18
2.91489e-18
2.21341e-18
1.67918e-18
1.27272e-18
9.63752e-19
7.29117e-19
5.51097e-19
4.16159e-19
3.13972e-19
2.36659e-19
1.78221e-19
1.3409e-19
1.00794e-19
7.56969e-20
5.6797e-20
4.25773e-20
3.18886e-20
2.38615e-20
1.78389e-20
1.33243e-20
9.94328e-21
7.41348e-21
5.52235e-21
4.10994e-21
3.05602e-21
2.27033e-21
1.68513e-21
1.24965e-21
9.25882e-22
6.85389e-22
5.06911e-22
3.74577e-22
2.76545e-22
2.03989e-22
1.50336e-22
1.10697e-22
8.14378e-23
5.98598e-23
4.39605e-23
3.2256e-23
2.36471e-23
1.73207e-23
1.26758e-23
9.26841e-24
6.77109e-24
4.94237e-24
3.60443e-24
2.6264e-24
1.9121e-24
1.39087e-24
1.01086e-24
7.34038e-25
5.32569e-25
3.86065e-25
2.79624e-25
2.02357e-25
1.46316e-25
1.05705e-25
7.63013e-26
5.50301e-26
3.96553e-26
2.85519e-26
2.05401e-26
1.47641e-26
1.06034e-26
7.60882e-27
5.45542e-27
3.90819e-27
2.79744e-27
2.00071e-27
1.42971e-27
1.02082e-27
7.28273e-28
5.19133e-28
3.69747e-28
2.63131e-28
1.87104e-28
1.32935e-28
9.43708e-29
6.69393e-29
4.74429e-29
3.35975e-29
2.37733e-29
1.68081e-29
1.1874e-29
8.38153e-30
5.91152e-30
4.16605e-30
2.9336e-30
2.06409e-30
1.45114e-30
1.01939e-30
7.15528e-31
5.01841e-31
3.5169e-31
2.46268e-31
1.72311e-31
1.20468e-31
8.41572e-32
5.87444e-32
4.09732e-32
2.85557e-32
1.98859e-32
1.38375e-32
9.62122e-33
6.68443e-33
4.64046e-33
3.21899e-33
2.23122e-33
1.54536e-33
1.0695e-33
7.39597e-34
5.11066e-34
3.52879e-34
2.43467e-34
1.67851e-34
1.15631e-34
7.95967e-35
5.47501e-35
3.76309e-35
2.58449e-35
1.77369e-35
1.21633e-35
8.33486e-36
5.70714e-36
3.90492e-36
2.66981e-36
1.824e-36
1.24521e-36
8.49452e-37
5.79044e-37
3.94423e-37
2.68466e-37
1.82599e-37
1.24103e-37
8.4285e-38
5.72002e-38
3.87905e-38
2.62867e-38
1.78004e-38
1.20449e-38
8.14449e-39
5.5031e-39
3.71566e-39
2.50697e-39
1.69024e-39
1.13877e-39
7.66673e-40
5.15789e-40
3.46754e-40
2.32949e-40
1.56383e-40
1.04908e-40
7.03265e-41
4.71108e-41
3.15365e-41
2.1096e-41
1.4102e-41
9.42008e-42
6.28818e-42
4.19465e-42
2.79622e-42
1.8628e-42
1.24025e-42
8.25418e-43
5.49303e-43
3.65831e-43
2.44279e-43
1.64222e-43
1.12167e-43
7.93118e-44
6.00894e-44
5.12328e-44
)
;
    }
}


// ************************************************************************* //
