/*--------------------------------*- C++ -*----------------------------------*\
  =========                 |
  \\      /  F ield         | OpenFOAM: The Open Source CFD Toolbox
   \\    /   O peration     | Website:  https://openfoam.org
    \\  /    A nd           | Version:  10
     \\/     M anipulation  |
\*---------------------------------------------------------------------------*/
FoamFile
{
    format      ascii;
    class       volScalarField;
    location    "0.1";
    object      beta;
}
// * * * * * * * * * * * * * * * * * * * * * * * * * * * * * * * * * * * * * //

dimensions      [0 0 0 0 0 0 0];

internalField   uniform 0;

boundaryField
{
    frontAndBack
    {
        type            empty;
    }
    inlet
    {
        type            calculated;
        value           uniform 0;
    }
    outlet
    {
        type            calculated;
        value           uniform 0;
    }
    substrate
    {
        type            calculated;
        value           nonuniform List<scalar> 
400
(
0.00373425
0.00402773
0.00430277
0.00456568
0.00481934
0.00506511
0.00530361
0.0055351
0.00575962
0.00597714
0.00618755
0.00639075
0.00658665
0.00677517
0.00695626
0.00712991
0.00729613
0.00745498
0.00760653
0.00775089
0.00788821
0.00801863
0.00814235
0.00825954
0.00837043
0.00847522
0.00857414
0.00866743
0.00875532
0.00883804
0.00891583
0.00898892
0.00905753
0.0091219
0.00918225
0.00923877
0.00929169
0.0093412
0.00938749
0.00943075
0.00947115
0.00950886
0.00954405
0.00957686
0.00960745
0.00963594
0.00966248
0.00968718
0.00971017
0.00973155
0.00975143
0.00976991
0.00978708
0.00980302
0.00981782
0.00983156
0.00984431
0.00985614
0.0098671
0.00987726
0.00988668
0.0098954
0.00990348
0.00991096
0.00991788
0.00992428
0.00993021
0.00993569
0.00994075
0.00994543
0.00994975
0.00995375
0.00995744
0.00996084
0.00996398
0.00996688
0.00996955
0.00997202
0.00997429
0.00997639
0.00997832
0.00998009
0.00998173
0.00998324
0.00998462
0.0099859
0.00998707
0.00998815
0.00998914
0.00999006
0.00999089
0.00999166
0.00999237
0.00999302
0.00999361
0.00999416
0.00999466
0.00999512
0.00999554
0.00999593
0.00999628
0.0099966
0.0099969
0.00999717
0.00999742
0.00999765
0.00999786
0.00999805
0.00999822
0.00999838
0.00999852
0.00999866
0.00999878
0.00999889
0.00999899
0.00999908
0.00999916
0.00999924
0.00999931
0.00999937
0.00999943
0.00999948
0.00999953
0.00999957
0.00999961
0.00999965
0.00999968
0.00999971
0.00999974
0.00999976
0.00999979
0.00999981
0.00999983
0.00999984
0.00999986
0.00999987
0.00999988
0.00999989
0.00999991
0.00999991
0.00999992
0.00999993
0.00999994
0.00999994
0.00999995
0.00999995
0.00999996
0.00999996
0.00999997
0.00999997
0.00999997
0.00999998
0.00999998
0.00999998
0.00999998
0.00999998
0.00999999
0.00999999
0.00999999
0.00999999
0.00999999
0.00999999
0.00999999
0.00999999
0.00999999
0.00999999
0.01
0.01
0.01
0.01
0.01
0.01
0.01
0.01
0.01
0.01
0.01
0.01
0.01
0.01
0.01
0.01
0.01
0.01
0.01
0.01
0.01
0.01
0.01
0.01
0.01
0.01
0.01
0.01
0.01
0.01
0.01
0.01
0.01
0.01
0.01
0.01
0.01
0.01
0.01
0.01
0.01
0.01
0.01
0.01
0.01
0.01
0.01
0.01
0.01
0.01
0.01
0.01
0.01
0.01
0.01
0.01
0.01
0.01
0.01
0.01
0.01
0.01
0.01
0.01
0.01
0.01
0.01
0.01
0.01
0.01
0.01
0.01
0.01
0.01
0.01
0.01
0.01
0.01
0.01
0.01
0.01
0.01
0.01
0.01
0.01
0.01
0.01
0.01
0.01
0.01
0.01
0.01
0.01
0.01
0.01
0.01
0.01
0.01
0.01
0.01
0.01
0.01
0.01
0.01
0.01
0.01
0.01
0.01
0.01
0.01
0.01
0.01
0.01
0.01
0.01
0.01
0.01
0.01
0.01
0.01
0.01
0.01
0.01
0.01
0.01
0.01
0.01
0.01
0.01
0.01
0.01
0.01
0.01
0.01
0.01
0.01
0.01
0.01
0.01
0.01
0.01
0.01
0.01
0.01
0.01
0.01
0.01
0.01
0.01
0.01
0.01
0.01
0.01
0.01
0.01
0.01
0.01
0.01
0.01
0.01
0.01
0.01
0.01
0.01
0.01
0.01
0.01
0.01
0.01
0.01
0.01
0.01
0.01
0.01
0.01
0.01
0.01
0.01
0.01
0.01
0.01
0.01
0.01
0.01
0.01
0.01
0.01
0.01
0.01
0.01
0.01
0.01
0.01
0.01
0.01
0.01
0.01
0.01
0.01
0.01
0.01
0.01
0.01
0.01
0.01
0.01
0.01
0.01
0.01
0.01
0.01
0.01
0.01
0.01
0.01
0.01
0.01
0.01
0.01
0.01
0.01
0.01
0.01
0.01
0.01
0.01
0.01
0.01
0.01
0.01
0.01
0.01
0.01
0.01
)
;
    }
    Wall
    {
        type            calculated;
        value           nonuniform List<scalar> 
400
(
0.00373425
0.00402773
0.00430277
0.00456568
0.00481934
0.0050651
0.0053036
0.00553508
0.0057596
0.00597711
0.00618751
0.00639071
0.00658661
0.00677512
0.00695621
0.00712985
0.00729607
0.00745491
0.00760646
0.00775082
0.00788814
0.00801856
0.00814227
0.00825947
0.00837035
0.00847514
0.00857407
0.00866736
0.00875524
0.00883797
0.00891575
0.00898884
0.00905746
0.00912183
0.00918217
0.0092387
0.00929162
0.00934113
0.00938742
0.00943068
0.00947109
0.0095088
0.00954399
0.0095768
0.00960739
0.00963589
0.00966243
0.00968713
0.00971012
0.00973151
0.00975139
0.00976987
0.00978703
0.00980298
0.00981779
0.00983153
0.00984428
0.0098561
0.00986707
0.00987723
0.00988665
0.00989537
0.00990345
0.00991093
0.00991786
0.00992426
0.00993019
0.00993567
0.00994073
0.00994541
0.00994974
0.00995373
0.00995742
0.00996083
0.00996397
0.00996687
0.00996954
0.00997201
0.00997428
0.00997638
0.00997831
0.00998009
0.00998172
0.00998323
0.00998462
0.00998589
0.00998707
0.00998815
0.00998914
0.00999005
0.00999089
0.00999166
0.00999237
0.00999301
0.00999361
0.00999416
0.00999466
0.00999512
0.00999554
0.00999592
0.00999628
0.0099966
0.0099969
0.00999717
0.00999742
0.00999765
0.00999785
0.00999804
0.00999822
0.00999838
0.00999852
0.00999865
0.00999878
0.00999889
0.00999899
0.00999908
0.00999916
0.00999924
0.00999931
0.00999937
0.00999943
0.00999948
0.00999953
0.00999957
0.00999961
0.00999965
0.00999968
0.00999971
0.00999974
0.00999976
0.00999979
0.00999981
0.00999983
0.00999984
0.00999986
0.00999987
0.00999988
0.00999989
0.0099999
0.00999991
0.00999992
0.00999993
0.00999994
0.00999994
0.00999995
0.00999995
0.00999996
0.00999996
0.00999997
0.00999997
0.00999997
0.00999998
0.00999998
0.00999998
0.00999998
0.00999998
0.00999999
0.00999999
0.00999999
0.00999999
0.00999999
0.00999999
0.00999999
0.00999999
0.00999999
0.00999999
0.01
0.01
0.01
0.01
0.01
0.01
0.01
0.01
0.01
0.01
0.01
0.01
0.01
0.01
0.01
0.01
0.01
0.01
0.01
0.01
0.01
0.01
0.01
0.01
0.01
0.01
0.01
0.01
0.01
0.01
0.01
0.01
0.01
0.01
0.01
0.01
0.01
0.01
0.01
0.01
0.01
0.01
0.01
0.01
0.01
0.01
0.01
0.01
0.01
0.01
0.01
0.01
0.01
0.01
0.01
0.01
0.01
0.01
0.01
0.01
0.01
0.01
0.01
0.01
0.01
0.01
0.01
0.01
0.01
0.01
0.01
0.01
0.01
0.01
0.01
0.01
0.01
0.01
0.01
0.01
0.01
0.01
0.01
0.01
0.01
0.01
0.01
0.01
0.01
0.01
0.01
0.01
0.01
0.01
0.01
0.01
0.01
0.01
0.01
0.01
0.01
0.01
0.01
0.01
0.01
0.01
0.01
0.01
0.01
0.01
0.01
0.01
0.01
0.01
0.01
0.01
0.01
0.01
0.01
0.01
0.01
0.01
0.01
0.01
0.01
0.01
0.01
0.01
0.01
0.01
0.01
0.01
0.01
0.01
0.01
0.01
0.01
0.01
0.01
0.01
0.01
0.01
0.01
0.01
0.01
0.01
0.01
0.01
0.01
0.01
0.01
0.01
0.01
0.01
0.01
0.01
0.01
0.01
0.01
0.01
0.01
0.01
0.01
0.01
0.01
0.01
0.01
0.01
0.01
0.01
0.01
0.01
0.01
0.01
0.01
0.01
0.01
0.01
0.01
0.01
0.01
0.01
0.01
0.01
0.01
0.01
0.01
0.01
0.01
0.01
0.01
0.01
0.01
0.01
0.01
0.01
0.01
0.01
0.01
0.01
0.01
0.01
0.01
0.01
0.01
0.01
0.01
0.01
0.01
0.01
0.01
0.01
0.01
0.01
0.01
0.01
0.01
0.01
0.01
0.01
0.01
0.01
0.01
0.01
0.01
0.01
0.01
0.01
0.01
0.01
0.01
0.01
0.01
0.01
)
;
    }
}


// ************************************************************************* //
