/*--------------------------------*- C++ -*----------------------------------*\
  =========                 |
  \\      /  F ield         | OpenFOAM: The Open Source CFD Toolbox
   \\    /   O peration     | Website:  https://openfoam.org
    \\  /    A nd           | Version:  10
     \\/     M anipulation  |
\*---------------------------------------------------------------------------*/
FoamFile
{
    format      ascii;
    class       volScalarField;
    location    "0.1";
    object      Exp1;
}
// * * * * * * * * * * * * * * * * * * * * * * * * * * * * * * * * * * * * * //

dimensions      [0 0 0 0 0 0 0];

internalField   uniform 0;

boundaryField
{
    frontAndBack
    {
        type            empty;
    }
    inlet
    {
        type            calculated;
        value           uniform 0;
    }
    outlet
    {
        type            calculated;
        value           uniform 0;
    }
    substrate
    {
        type            calculated;
        value           nonuniform List<scalar> 
400
(
0.133749
0.126212
0.119366
0.113007
0.107034
0.101388
0.0960325
0.0909427
0.0861001
0.0814907
0.0771026
0.0729259
0.0689516
0.0651715
0.0615776
0.0581626
0.0549192
0.0518404
0.0489194
0.0461493
0.0435237
0.0410362
0.0386805
0.0364507
0.0343407
0.0323449
0.0304578
0.028674
0.0269886
0.0253964
0.0238928
0.0224733
0.0211335
0.0198692
0.0186765
0.0175516
0.0164909
0.015491
0.0145486
0.0136605
0.0128238
0.0120357
0.0112936
0.0105948
0.00993704
0.009318
0.00873552
0.00818756
0.00767216
0.00718751
0.00673186
0.00630357
0.00590109
0.00552293
0.00516771
0.00483412
0.00452091
0.00422689
0.00395096
0.00369207
0.00344923
0.00322149
0.00300796
0.00280782
0.00262027
0.00244456
0.00228
0.0021259
0.00198165
0.00184666
0.00172036
0.00160223
0.00149177
0.00138852
0.00129202
0.00120187
0.00111767
0.00103905
0.000965671
0.000897196
0.000833318
0.000773749
0.000718214
0.000666457
0.000618235
0.000573322
0.000531503
0.000492579
0.000456359
0.000422668
0.000391339
0.000362216
0.000335153
0.000310012
0.000286664
0.000264988
0.000244872
0.00022621
0.000208902
0.000192855
0.000177983
0.000164204
0.000151442
0.000139626
0.00012869
0.000118572
0.000109213
0.000100559
9.25613e-05
8.5171e-05
7.8345e-05
7.20421e-05
6.62244e-05
6.08563e-05
5.59048e-05
5.13391e-05
4.71306e-05
4.32526e-05
3.96805e-05
3.63913e-05
3.33636e-05
3.05775e-05
2.80147e-05
2.56581e-05
2.34918e-05
2.15012e-05
1.96726e-05
1.79935e-05
1.64521e-05
1.50377e-05
1.37402e-05
1.25504e-05
1.14598e-05
1.04603e-05
9.54477e-06
8.70638e-06
7.93891e-06
7.23662e-06
6.59417e-06
6.0067e-06
5.46967e-06
4.97893e-06
4.53065e-06
4.1213e-06
3.74763e-06
3.40665e-06
3.09561e-06
2.81198e-06
2.55344e-06
2.31786e-06
2.10327e-06
1.90787e-06
1.73001e-06
1.56817e-06
1.42097e-06
1.28712e-06
1.16546e-06
1.05493e-06
9.5453e-07
8.63377e-07
7.80646e-07
7.05587e-07
6.37512e-07
5.75796e-07
5.19864e-07
4.69194e-07
4.23307e-07
3.81767e-07
3.44176e-07
3.10172e-07
2.79424e-07
2.51631e-07
2.26518e-07
2.03835e-07
1.83354e-07
1.6487e-07
1.48193e-07
1.33153e-07
1.19595e-07
1.07376e-07
9.63689e-08
8.64573e-08
7.75356e-08
6.9508e-08
6.22876e-08
5.57959e-08
4.99616e-08
4.47201e-08
4.0013e-08
3.57875e-08
3.19959e-08
2.85948e-08
2.55454e-08
2.28122e-08
2.03635e-08
1.81706e-08
1.62074e-08
1.44507e-08
1.28793e-08
1.14742e-08
1.02184e-08
9.09648e-09
8.0945e-09
7.20003e-09
6.40186e-09
5.6899e-09
5.0551e-09
4.48933e-09
3.98529e-09
3.53641e-09
3.13684e-09
2.78129e-09
2.46506e-09
2.18389e-09
1.93402e-09
1.71204e-09
1.51493e-09
1.33996e-09
1.18473e-09
1.04705e-09
9.24993e-10
8.16833e-10
7.21025e-10
6.36195e-10
5.61116e-10
4.94694e-10
4.35956e-10
3.84035e-10
3.38158e-10
2.97639e-10
2.61868e-10
2.303e-10
2.02455e-10
1.77902e-10
1.56263e-10
1.37199e-10
1.2041e-10
1.05633e-10
9.263e-11
8.11941e-11
7.11405e-11
6.23058e-11
5.45456e-11
4.77319e-11
4.1752e-11
3.6506e-11
3.19058e-11
2.78736e-11
2.43407e-11
2.12468e-11
1.85383e-11
1.61684e-11
1.40954e-11
1.22831e-11
1.06993e-11
9.31581e-12
8.10779e-12
7.05345e-12
6.13362e-12
5.3315e-12
4.63232e-12
4.02313e-12
3.49258e-12
3.03071e-12
2.62881e-12
2.27924e-12
1.97531e-12
1.71119e-12
1.48176e-12
1.28254e-12
1.10964e-12
9.59637e-13
8.29561e-13
7.16811e-13
6.19122e-13
5.34519e-13
4.61281e-13
3.97908e-13
3.43096e-13
2.95708e-13
2.54756e-13
2.19382e-13
1.8884e-13
1.6248e-13
1.3974e-13
1.20132e-13
1.0323e-13
8.86691e-14
7.61293e-14
6.53349e-14
5.60471e-14
4.80591e-14
4.11919e-14
3.52909e-14
3.02223e-14
2.58706e-14
2.2136e-14
1.89324e-14
1.61855e-14
1.38312e-14
1.18143e-14
1.00872e-14
8.60891e-15
7.3441e-15
6.26242e-15
5.33777e-15
4.5477e-15
3.8729e-15
3.29682e-15
2.80522e-15
2.38591e-15
2.0284e-15
1.72372e-15
1.46417e-15
1.24318e-15
1.05508e-15
8.95063e-16
7.58987e-16
6.43323e-16
5.4505e-16
4.61592e-16
3.90744e-16
3.30629e-16
2.79642e-16
2.36416e-16
1.99786e-16
1.68759e-16
1.4249e-16
1.20257e-16
1.0145e-16
8.5548e-17
7.21072e-17
6.07521e-17
5.11632e-17
4.30692e-17
3.62401e-17
3.04808e-17
2.56257e-17
2.15347e-17
1.80891e-17
1.51882e-17
1.27471e-17
1.06937e-17
8.96725e-18
7.5163e-18
6.29741e-18
5.27392e-18
4.41488e-18
3.69418e-18
3.08981e-18
2.5832e-18
2.15873e-18
1.80323e-18
1.50563e-18
1.25661e-18
1.04832e-18
8.74188e-19
7.28665e-19
6.07106e-19
5.0561e-19
4.20901e-19
3.50234e-19
2.91307e-19
2.42191e-19
2.0127e-19
1.67191e-19
1.38823e-19
1.15219e-19
9.55881e-20
7.92676e-20
6.57057e-20
5.44408e-20
4.5088e-20
3.73262e-20
3.08874e-20
2.55486e-20
2.11238e-20
1.74581e-20
1.44226e-20
1.19102e-20
9.8317e-21
8.113e-21
6.69257e-21
5.51929e-21
4.55077e-21
3.75184e-21
3.09338e-21
2.55125e-21
2.10553e-21
1.73974e-21
1.44031e-21
1.19609e-21
9.97937e-22
8.38416e-22
7.11514e-22
6.1243e-22
5.37395e-22
4.83534e-22
4.48757e-22
4.31688e-22
)
;
    }
    Wall
    {
        type            calculated;
        value           nonuniform List<scalar> 
400
(
0.133749
0.126212
0.119366
0.113007
0.107034
0.101388
0.0960331
0.0909434
0.086101
0.0814916
0.0771036
0.072927
0.0689528
0.0651727
0.0615789
0.058164
0.0549206
0.0518418
0.0489208
0.0461508
0.0435252
0.0410377
0.038682
0.0364521
0.0343421
0.0323463
0.0304592
0.0286755
0.02699
0.0253978
0.0238942
0.0224746
0.0211348
0.0198705
0.0186778
0.0175529
0.0164922
0.0154922
0.0145497
0.0136616
0.0128249
0.0120368
0.0112946
0.0105958
0.00993802
0.00931895
0.00873645
0.00818845
0.00767303
0.00718835
0.00673268
0.00630436
0.00590185
0.00552367
0.00516843
0.00483481
0.00452157
0.00422753
0.00395158
0.00369267
0.0034498
0.00322204
0.0030085
0.00280834
0.00262077
0.00244504
0.00228045
0.00212634
0.00198208
0.00184707
0.00172075
0.0016026
0.00149213
0.00138886
0.00129235
0.00120218
0.00111797
0.00103934
0.000965942
0.000897455
0.000833565
0.000773984
0.000718438
0.00066667
0.000618438
0.000573514
0.000531686
0.000492752
0.000456524
0.000422825
0.000391487
0.000362357
0.000335286
0.000310137
0.000286782
0.0002651
0.000244978
0.00022631
0.000208996
0.000192944
0.000178067
0.000164283
0.000151516
0.000139696
0.000128756
0.000118633
0.000109271
0.000100614
9.26122e-05
8.52188e-05
7.83897e-05
7.20841e-05
6.62637e-05
6.0893e-05
5.59391e-05
5.13712e-05
4.71606e-05
4.32806e-05
3.97067e-05
3.64157e-05
3.33863e-05
3.05987e-05
2.80344e-05
2.56764e-05
2.35089e-05
2.15171e-05
1.96874e-05
1.80072e-05
1.64649e-05
1.50495e-05
1.37512e-05
1.25606e-05
1.14692e-05
1.04691e-05
9.55287e-06
8.71388e-06
7.94585e-06
7.24303e-06
6.60011e-06
6.01218e-06
5.47474e-06
4.98361e-06
4.53497e-06
4.12528e-06
3.7513e-06
3.41003e-06
3.09873e-06
2.81485e-06
2.55609e-06
2.32029e-06
2.1055e-06
1.90993e-06
1.7319e-06
1.56991e-06
1.42256e-06
1.28858e-06
1.16681e-06
1.05616e-06
9.5566e-07
8.64412e-07
7.81594e-07
7.06455e-07
6.38307e-07
5.76523e-07
5.20529e-07
4.69801e-07
4.23862e-07
3.82274e-07
3.44639e-07
3.10595e-07
2.7981e-07
2.51982e-07
2.26838e-07
2.04126e-07
1.8362e-07
1.65112e-07
1.48413e-07
1.33353e-07
1.19776e-07
1.07541e-07
9.65189e-08
8.65935e-08
7.76592e-08
6.96201e-08
6.23893e-08
5.58881e-08
5.00451e-08
4.47957e-08
4.00814e-08
3.58495e-08
3.20519e-08
2.86455e-08
2.55911e-08
2.28535e-08
2.04008e-08
1.82043e-08
1.62378e-08
1.44781e-08
1.2904e-08
1.14965e-08
1.02385e-08
9.11453e-09
8.11074e-09
7.21464e-09
6.41499e-09
5.7017e-09
5.0657e-09
4.49885e-09
3.99383e-09
3.54408e-09
3.14371e-09
2.78745e-09
2.47057e-09
2.18883e-09
1.93844e-09
1.716e-09
1.51847e-09
1.34313e-09
1.18755e-09
1.04957e-09
9.27247e-10
8.18844e-10
7.22819e-10
6.37794e-10
5.62541e-10
4.95964e-10
4.37087e-10
3.85041e-10
3.39053e-10
2.98435e-10
2.62575e-10
2.30929e-10
2.03013e-10
1.78398e-10
1.56702e-10
1.37588e-10
1.20756e-10
1.05939e-10
9.29011e-11
8.14342e-11
7.13529e-11
6.24937e-11
5.47116e-11
4.78787e-11
4.18816e-11
3.66204e-11
3.20067e-11
2.79626e-11
2.44193e-11
2.1316e-11
1.85993e-11
1.6222e-11
1.41427e-11
1.23247e-11
1.07359e-11
9.34794e-12
8.13601e-12
7.07823e-12
6.15537e-12
5.35058e-12
4.64905e-12
4.0378e-12
3.50543e-12
3.04196e-12
2.63866e-12
2.28786e-12
1.98285e-12
1.71778e-12
1.48752e-12
1.28757e-12
1.11403e-12
9.63469e-13
8.32902e-13
7.19724e-13
6.21661e-13
5.36731e-13
4.63206e-13
3.99584e-13
3.44553e-13
2.96975e-13
2.55857e-13
2.20339e-13
1.8967e-13
1.63201e-13
1.40366e-13
1.20674e-13
1.037e-13
8.90762e-14
7.64818e-14
6.564e-14
5.63111e-14
4.82873e-14
4.13892e-14
3.54613e-14
3.03695e-14
2.59976e-14
2.22456e-14
1.90269e-14
1.6267e-14
1.39014e-14
1.18748e-14
1.01393e-14
8.65371e-15
7.38262e-15
6.29554e-15
5.36623e-15
4.57214e-15
3.89388e-15
3.31482e-15
2.82067e-15
2.39915e-15
2.03974e-15
1.73344e-15
1.4725e-15
1.2503e-15
1.06117e-15
9.00272e-16
7.63439e-16
6.47126e-16
5.48297e-16
4.64363e-16
3.93108e-16
3.32645e-16
2.8136e-16
2.3788e-16
2.01033e-16
1.6982e-16
1.43392e-16
1.21025e-16
1.02103e-16
8.61025e-17
7.25781e-17
6.11519e-17
5.15023e-17
4.33569e-17
3.6484e-17
3.06874e-17
2.58007e-17
2.16829e-17
1.82145e-17
1.52943e-17
1.28368e-17
1.07695e-17
9.03126e-18
7.57034e-18
6.34302e-18
5.3124e-18
4.44733e-18
3.72153e-18
3.11284e-18
2.60259e-18
2.17505e-18
1.81697e-18
1.51718e-18
1.26632e-18
1.05648e-18
8.81038e-19
7.34415e-19
6.11931e-19
5.09656e-19
4.24293e-19
3.53076e-19
2.93688e-19
2.44184e-19
2.02938e-19
1.68586e-19
1.3999e-19
1.16194e-19
9.64022e-20
7.99474e-20
6.6273e-20
5.49141e-20
4.54827e-20
3.76551e-20
3.11615e-20
2.57768e-20
2.13137e-20
1.76161e-20
1.4554e-20
1.20194e-20
9.92247e-21
8.1884e-21
6.75516e-21
5.57124e-21
4.59387e-21
3.78759e-21
3.12302e-21
2.57583e-21
2.12592e-21
1.75666e-21
1.45437e-21
1.2078e-21
1.00773e-21
8.46653e-22
7.18517e-22
6.1848e-22
5.42756e-22
4.88462e-22
4.53478e-22
4.36112e-22
)
;
    }
}


// ************************************************************************* //
