/*--------------------------------*- C++ -*----------------------------------*\
  =========                 |
  \\      /  F ield         | OpenFOAM: The Open Source CFD Toolbox
   \\    /   O peration     | Website:  https://openfoam.org
    \\  /    A nd           | Version:  10
     \\/     M anipulation  |
\*---------------------------------------------------------------------------*/
FoamFile
{
    format      ascii;
    class       volScalarField;
    location    "0.1";
    object      N1;
}
// * * * * * * * * * * * * * * * * * * * * * * * * * * * * * * * * * * * * * //

dimensions      [0 0 0 0 0 0 0];

internalField   nonuniform List<scalar> 
8000
(
1.01725
0.960435
0.908783
0.860776
0.815647
0.772962
0.732445
0.693911
0.657224
0.62228
0.588992
0.557288
0.5271
0.49837
0.471039
0.445053
0.420359
0.396905
0.374642
0.353518
0.333486
0.314499
0.296511
0.279475
0.263349
0.24809
0.233657
0.220009
0.207109
0.194919
0.183404
0.17253
0.162264
0.152574
0.143431
0.134806
0.126671
0.119001
0.11177
0.104955
0.0985338
0.0924846
0.0867872
0.0814222
0.0763714
0.0716173
0.0671436
0.0629345
0.0589753
0.0552519
0.051751
0.0484601
0.0453673
0.0424613
0.0397313
0.0371675
0.0347601
0.0325001
0.0303791
0.028389
0.0265222
0.0247714
0.0231299
0.0215911
0.0201492
0.0187983
0.0175329
0.0163481
0.015239
0.014201
0.0132299
0.0123215
0.0114721
0.0106781
0.0099361
0.00924285
0.00859537
0.00799081
0.00742649
0.00689991
0.00640868
0.00595058
0.0055235
0.00512547
0.00475462
0.00440922
0.00408762
0.00378827
0.00350972
0.00325062
0.00300968
0.00278571
0.00257758
0.00238422
0.00220466
0.00203796
0.00188326
0.00173973
0.00160662
0.00148321
0.00136883
0.00126286
0.00116471
0.00107384
0.000989733
0.000911914
0.000839936
0.000773385
0.000711872
0.000655036
0.000602538
0.000554064
0.000509321
0.000468036
0.000429955
0.000394841
0.000362474
0.000332649
0.000305177
0.00027988
0.000256594
0.000235167
0.000215457
0.000197332
0.000180672
0.000165362
0.000151299
0.000138385
0.000126531
0.000115653
0.000105674
9.65234e-05
8.81353e-05
8.04487e-05
7.34074e-05
6.69594e-05
6.1057e-05
5.56557e-05
5.07148e-05
4.61966e-05
4.20664e-05
3.82922e-05
3.48445e-05
3.16963e-05
2.88224e-05
2.62e-05
2.38078e-05
2.16265e-05
1.96381e-05
1.78263e-05
1.61759e-05
1.46731e-05
1.33052e-05
1.20606e-05
1.09284e-05
9.89904e-06
8.9634e-06
8.11328e-06
7.34115e-06
6.6401e-06
6.00383e-06
5.42656e-06
4.90301e-06
4.42836e-06
3.9982e-06
3.6085e-06
3.25559e-06
2.93611e-06
2.64701e-06
2.38549e-06
2.14901e-06
1.93526e-06
1.74211e-06
1.56766e-06
1.41015e-06
1.26799e-06
1.13973e-06
1.02406e-06
9.19784e-07
8.25811e-07
7.41158e-07
6.6493e-07
5.96315e-07
5.34575e-07
4.79045e-07
4.29118e-07
3.84247e-07
3.43935e-07
3.07734e-07
2.75236e-07
2.46075e-07
2.19919e-07
1.96466e-07
1.75445e-07
1.56613e-07
1.39747e-07
1.24649e-07
1.11138e-07
9.90526e-08
8.82466e-08
7.85885e-08
6.99597e-08
6.22536e-08
5.53744e-08
4.92357e-08
4.37602e-08
3.8878e-08
3.45268e-08
3.06502e-08
2.7198e-08
2.4125e-08
2.13905e-08
1.89584e-08
1.6796e-08
1.48742e-08
1.3167e-08
1.16511e-08
1.03055e-08
9.11156e-09
8.05269e-09
7.11398e-09
6.28214e-09
5.5453e-09
4.89288e-09
4.31546e-09
3.80462e-09
3.35287e-09
2.95355e-09
2.60072e-09
2.2891e-09
2.01399e-09
1.7712e-09
1.55705e-09
1.36822e-09
1.20179e-09
1.05517e-09
9.26058e-10
8.12404e-10
7.12403e-10
6.24452e-10
5.47131e-10
4.79185e-10
4.19502e-10
3.67099e-10
3.21108e-10
2.80762e-10
2.45382e-10
2.14371e-10
1.87201e-10
1.63406e-10
1.42576e-10
1.24348e-10
1.08406e-10
9.44676e-11
8.22868e-11
7.16465e-11
6.23558e-11
5.4247e-11
4.71728e-11
4.10038e-11
3.56265e-11
3.09413e-11
2.68609e-11
2.33087e-11
2.02178e-11
1.75293e-11
1.51918e-11
1.31605e-11
1.1396e-11
9.86384e-12
8.53406e-12
7.38042e-12
6.38002e-12
5.51288e-12
4.76157e-12
4.11091e-12
3.54764e-12
3.06025e-12
2.6387e-12
2.27424e-12
1.95929e-12
1.68724e-12
1.45234e-12
1.24961e-12
1.07472e-12
9.23914e-13
7.9393e-13
6.81941e-13
5.85499e-13
5.02481e-13
4.3105e-13
3.69615e-13
3.16801e-13
2.71417e-13
2.32435e-13
1.98967e-13
1.70244e-13
1.45606e-13
1.2448e-13
1.06374e-13
9.08623e-14
7.75794e-14
6.62099e-14
5.64824e-14
4.81633e-14
4.1052e-14
3.49756e-14
2.97859e-14
2.53553e-14
2.15745e-14
1.83496e-14
1.56001e-14
1.32568e-14
1.12607e-14
9.56108e-15
8.11448e-15
6.8838e-15
5.83726e-15
4.9477e-15
4.1919e-15
3.55003e-15
3.00515e-15
2.54282e-15
2.15068e-15
1.81824e-15
1.53653e-15
1.2979e-15
1.09587e-15
9.24881e-16
7.8024e-16
6.57936e-16
5.54566e-16
4.67235e-16
3.93488e-16
3.31239e-16
2.78717e-16
2.34423e-16
1.97084e-16
1.6562e-16
1.3912e-16
1.1681e-16
9.80359e-17
8.22437e-17
6.89658e-17
5.78067e-17
4.84324e-17
4.0561e-17
3.39542e-17
2.84114e-17
2.37632e-17
1.9867e-17
1.66024e-17
1.38684e-17
1.15796e-17
9.6644e-18
8.06251e-18
6.72325e-18
5.60405e-18
4.66916e-18
3.88857e-18
3.23709e-18
2.6936e-18
2.2404e-18
1.86265e-18
1.54794e-18
1.28584e-18
1.06767e-18
8.86136e-19
7.35153e-19
6.09635e-19
5.05332e-19
4.18696e-19
3.46765e-19
2.8707e-19
2.37551e-19
1.96491e-19
1.6246e-19
1.34267e-19
1.10922e-19
9.15996e-20
7.56141e-20
6.23959e-20
5.14715e-20
4.2448e-20
3.49993e-20
2.88548e-20
2.37907e-20
1.96213e-20
1.61933e-20
1.33801e-20
1.10772e-20
9.19894e-21
7.67498e-21
6.44813e-21
5.47215e-21
4.7101e-21
4.13302e-21
3.71879e-21
3.45132e-21
3.32005e-21
1.0222
0.969156
0.919188
0.872025
0.827341
0.784875
0.744436
0.70588
0.669099
0.634002
0.600518
0.568579
0.538129
0.509112
0.481475
0.455169
0.430145
0.406352
0.383745
0.362275
0.341897
0.322566
0.304236
0.286863
0.270407
0.254824
0.240074
0.226119
0.21292
0.200441
0.188647
0.177503
0.166978
0.157039
0.147656
0.138802
0.130448
0.122568
0.115138
0.108133
0.10153
0.0953086
0.0894473
0.0839267
0.0787283
0.0738342
0.0692279
0.0648933
0.0608153
0.0569797
0.0533728
0.0499817
0.0467943
0.0437991
0.0409851
0.038342
0.03586
0.0335299
0.0313428
0.0292905
0.0273652
0.0255595
0.0238664
0.0222792
0.0207918
0.0193981
0.0180928
0.0168705
0.0157262
0.0146552
0.0136532
0.0127159
0.0118395
0.0110202
0.0102545
0.00953913
0.00887097
0.00824709
0.00766474
0.00712131
0.00661436
0.00614159
0.00570083
0.00529005
0.00490732
0.00455085
0.00421893
0.00390998
0.0036225
0.00335508
0.00310641
0.00287525
0.00266043
0.00246086
0.00227554
0.00210348
0.00194381
0.00179567
0.00165828
0.0015309
0.00141285
0.00130347
0.00120217
0.00110838
0.00102157
0.000941244
0.000866952
0.000798261
0.000734771
0.000676106
0.00062192
0.000571887
0.000525705
0.000483092
0.000443786
0.000407543
0.000374135
0.000343351
0.000314995
0.000288884
0.000264849
0.000242733
0.000222389
0.000203681
0.000186485
0.000170683
0.000156167
0.000142838
0.000130602
0.000119374
0.000109074
9.96292e-05
9.09712e-05
8.30373e-05
7.57694e-05
6.9114e-05
6.30217e-05
5.74466e-05
5.23467e-05
4.76831e-05
4.342e-05
3.95244e-05
3.59658e-05
3.27163e-05
2.97499e-05
2.70431e-05
2.4574e-05
2.23225e-05
2.02701e-05
1.84e-05
1.66965e-05
1.51453e-05
1.37334e-05
1.24487e-05
1.12801e-05
1.02176e-05
9.25187e-06
8.3744e-06
7.57741e-06
6.85381e-06
6.19706e-06
5.60121e-06
5.06081e-06
4.57089e-06
4.12688e-06
3.72464e-06
3.36037e-06
3.03061e-06
2.73221e-06
2.46227e-06
2.21818e-06
1.99755e-06
1.79819e-06
1.61812e-06
1.45554e-06
1.30881e-06
1.17642e-06
1.05703e-06
9.49391e-07
8.52394e-07
7.65016e-07
6.86334e-07
6.1551e-07
5.51784e-07
4.94466e-07
4.42932e-07
3.96616e-07
3.55007e-07
3.17641e-07
2.84097e-07
2.53997e-07
2.26998e-07
2.0279e-07
1.81093e-07
1.61655e-07
1.44246e-07
1.28662e-07
1.14716e-07
1.02242e-07
9.10878e-08
8.11187e-08
7.22121e-08
6.4258e-08
5.71573e-08
5.0821e-08
4.51691e-08
4.01298e-08
3.56385e-08
3.16371e-08
2.80738e-08
2.49018e-08
2.20793e-08
1.95688e-08
1.73368e-08
1.53532e-08
1.3591e-08
1.20263e-08
1.06373e-08
9.40496e-09
8.312e-09
7.34307e-09
6.48444e-09
5.72387e-09
5.05045e-09
4.45443e-09
3.92714e-09
3.46085e-09
3.04867e-09
2.68448e-09
2.36282e-09
2.07885e-09
1.82825e-09
1.60719e-09
1.41229e-09
1.2405e-09
1.08916e-09
9.55884e-10
8.3857e-10
7.35349e-10
6.44565e-10
5.64754e-10
4.94619e-10
4.33014e-10
3.78923e-10
3.31451e-10
2.89805e-10
2.53286e-10
2.21277e-10
1.93231e-10
1.6867e-10
1.47168e-10
1.28354e-10
1.11898e-10
9.75108e-11
8.49377e-11
7.39546e-11
6.43646e-11
5.59946e-11
4.86925e-11
4.23247e-11
3.67742e-11
3.19381e-11
2.77263e-11
2.40597e-11
2.08691e-11
1.8094e-11
1.56813e-11
1.35845e-11
1.17632e-11
1.01816e-11
8.80903e-12
7.61823e-12
6.5856e-12
5.69052e-12
4.915e-12
4.24337e-12
3.66196e-12
3.15886e-12
2.72372e-12
2.34753e-12
2.02243e-12
1.74161e-12
1.49914e-12
1.28988e-12
1.10935e-12
9.53688e-13
8.19515e-13
7.03918e-13
6.04368e-13
5.18675e-13
4.44942e-13
3.81527e-13
3.27011e-13
2.80164e-13
2.39926e-13
2.05379e-13
1.75731e-13
1.50299e-13
1.28492e-13
1.09803e-13
9.3791e-14
8.00799e-14
6.8344e-14
5.83029e-14
4.97158e-14
4.23753e-14
3.6103e-14
3.0746e-14
2.61727e-14
2.227e-14
1.89412e-14
1.6103e-14
1.36842e-14
1.16237e-14
9.86931e-15
8.37607e-15
7.10572e-15
6.02544e-15
5.10721e-15
4.32704e-15
3.66448e-15
3.10204e-15
2.6248e-15
2.22002e-15
1.87686e-15
1.58607e-15
1.33975e-15
1.1312e-15
9.54702e-16
8.05397e-16
6.79151e-16
5.72447e-16
4.82301e-16
4.06176e-16
3.4192e-16
2.87705e-16
2.41982e-16
2.03439e-16
1.70961e-16
1.43607e-16
1.20577e-16
1.01197e-16
8.48959e-17
7.11898e-17
5.96709e-17
4.99944e-17
4.1869e-17
3.50492e-17
2.93277e-17
2.45296e-17
2.05077e-17
1.71379e-17
1.43157e-17
1.19531e-17
9.97611e-18
8.32255e-18
6.9401e-18
5.78481e-18
4.81976e-18
4.01399e-18
3.3415e-18
2.78048e-18
2.31267e-18
1.92274e-18
1.59787e-18
1.32732e-18
1.10211e-18
9.14721e-19
7.58868e-19
6.29302e-19
5.21634e-19
4.32203e-19
3.57952e-19
2.96331e-19
2.45214e-19
2.0283e-19
1.67701e-19
1.38599e-19
1.14501e-19
9.45549e-20
7.80537e-20
6.4409e-20
5.31322e-20
4.38176e-20
3.61285e-20
2.97859e-20
2.45583e-20
2.02544e-20
1.67158e-20
1.38118e-20
1.14347e-20
9.49581e-21
7.9227e-21
6.65629e-21
5.64887e-21
4.86234e-21
4.26683e-21
3.83953e-21
3.56365e-21
3.42734e-21
1.02462
0.97483
0.926836
0.880861
0.836892
0.794848
0.754638
0.716177
0.679394
0.644224
0.610609
0.578498
0.547841
0.51859
0.490699
0.464122
0.438814
0.414729
0.391824
0.370053
0.349372
0.329739
0.311109
0.29344
0.276692
0.260823
0.245794
0.231567
0.218104
0.205369
0.193326
0.181944
0.171187
0.161027
0.151432
0.142374
0.133825
0.125759
0.11815
0.110975
0.104211
0.0978353
0.0918277
0.0861681
0.0808378
0.0758187
0.0710939
0.0666471
0.062463
0.0585269
0.0548251
0.0513445
0.0480725
0.0449975
0.0421083
0.0393943
0.0368455
0.0344524
0.0322062
0.0300982
0.0281206
0.0262657
0.0245263
0.0228957
0.0213675
0.0199357
0.0185945
0.0173385
0.0161627
0.0150622
0.0140325
0.0130694
0.0121687
0.0113267
0.0105398
0.00980463
0.00911794
0.00847675
0.00787822
0.0073197
0.00679866
0.00631275
0.00585974
0.00543752
0.00504414
0.00467774
0.00433658
0.00401903
0.00372354
0.00344867
0.00319307
0.00295546
0.00273465
0.00252953
0.00233903
0.00216218
0.00199805
0.00184578
0.00170456
0.00157363
0.00145228
0.00133985
0.00123572
0.00113931
0.00105008
0.000967514
0.000891149
0.000820541
0.000755278
0.000694976
0.000639278
0.000587848
0.000540377
0.000496575
0.000456172
0.000418917
0.000384576
0.000352933
0.000323786
0.000296946
0.000272241
0.000249507
0.000228595
0.000209365
0.000191689
0.000175446
0.000160525
0.000146824
0.000134246
0.000122705
0.000112118
0.000102409
9.35095e-05
8.53542e-05
7.78835e-05
7.10424e-05
6.478e-05
5.90494e-05
5.38072e-05
4.90134e-05
4.46314e-05
4.06271e-05
3.69692e-05
3.36289e-05
3.05798e-05
2.77975e-05
2.52595e-05
2.29451e-05
2.08355e-05
1.89132e-05
1.71622e-05
1.55678e-05
1.41165e-05
1.27959e-05
1.15947e-05
1.05026e-05
9.5099e-06
8.60795e-06
7.78874e-06
7.04495e-06
6.36988e-06
5.75741e-06
5.20194e-06
4.69835e-06
4.24196e-06
3.8285e-06
3.45407e-06
3.11512e-06
2.80839e-06
2.53092e-06
2.28003e-06
2.05324e-06
1.84832e-06
1.66323e-06
1.49612e-06
1.34529e-06
1.20922e-06
1.08649e-06
9.75858e-07
8.76156e-07
7.86342e-07
7.05466e-07
6.32667e-07
5.67164e-07
5.08248e-07
4.55278e-07
4.07671e-07
3.64902e-07
3.26493e-07
2.92015e-07
2.61076e-07
2.33325e-07
2.08442e-07
1.8614e-07
1.6616e-07
1.48266e-07
1.32247e-07
1.17913e-07
1.05091e-07
9.36259e-08
8.3379e-08
7.42241e-08
6.60483e-08
5.87497e-08
5.22369e-08
4.64276e-08
4.12478e-08
3.66313e-08
3.25185e-08
2.88558e-08
2.55955e-08
2.26943e-08
2.01139e-08
1.78197e-08
1.57809e-08
1.39696e-08
1.23612e-08
1.09336e-08
9.66691e-09
8.54351e-09
7.54758e-09
6.66503e-09
5.88328e-09
5.1911e-09
4.57848e-09
4.0365e-09
3.55722e-09
3.13357e-09
2.75923e-09
2.42861e-09
2.13673e-09
1.87915e-09
1.65194e-09
1.45161e-09
1.27504e-09
1.11948e-09
9.82497e-10
8.61916e-10
7.5582e-10
6.62509e-10
5.80476e-10
5.08388e-10
4.45068e-10
3.89471e-10
3.40678e-10
2.97872e-10
2.60337e-10
2.27436e-10
1.98609e-10
1.73364e-10
1.51264e-10
1.31926e-10
1.15012e-10
1.00225e-10
8.73014e-11
7.60127e-11
6.61558e-11
5.75528e-11
5.00474e-11
4.35025e-11
3.77975e-11
3.28268e-11
2.84977e-11
2.47291e-11
2.14498e-11
1.85975e-11
1.61176e-11
1.39625e-11
1.20904e-11
1.04649e-11
9.0541e-12
7.83016e-12
6.7688e-12
5.84882e-12
5.05172e-12
4.36141e-12
3.76382e-12
3.24673e-12
2.79949e-12
2.41282e-12
2.07868e-12
1.79005e-12
1.54084e-12
1.32575e-12
1.14021e-12
9.80211e-13
8.42306e-13
7.23494e-13
6.21175e-13
5.33098e-13
4.57315e-13
3.92137e-13
3.36104e-13
2.87955e-13
2.46598e-13
2.1109e-13
1.80618e-13
1.54478e-13
1.32065e-13
1.12855e-13
9.63986e-14
8.23063e-14
7.0244e-14
5.99238e-14
5.10979e-14
4.35533e-14
3.71067e-14
3.16007e-14
2.69002e-14
2.28891e-14
1.94677e-14
1.65506e-14
1.40646e-14
1.19468e-14
1.01436e-14
8.60889e-15
7.30322e-15
6.19291e-15
5.24915e-15
4.4473e-15
3.76633e-15
3.18825e-15
2.69774e-15
2.28172e-15
1.92902e-15
1.63014e-15
1.37698e-15
1.16263e-15
9.81232e-16
8.27778e-16
6.98023e-16
5.88354e-16
4.95702e-16
4.17462e-16
3.5142e-16
2.95699e-16
2.48706e-16
2.09091e-16
1.75711e-16
1.47596e-16
1.23927e-16
1.04009e-16
8.72545e-17
7.31676e-17
6.13286e-17
5.13833e-17
4.30322e-17
3.60229e-17
3.01424e-17
2.5211e-17
2.10774e-17
1.7614e-17
1.47133e-17
1.22851e-17
1.02532e-17
8.55373e-18
7.13287e-18
5.94548e-18
4.95364e-18
4.12548e-18
3.43431e-18
2.85771e-18
2.3769e-18
1.97614e-18
1.64225e-18
1.36418e-18
1.13272e-18
9.40125e-19
7.79944e-19
6.46778e-19
5.3612e-19
4.44206e-19
3.67892e-19
3.0456e-19
2.52024e-19
2.08462e-19
1.72358e-19
1.42448e-19
1.1768e-19
9.71805e-20
8.02211e-20
6.61975e-20
5.46075e-20
4.50342e-20
3.71316e-20
3.06128e-20
2.52401e-20
2.08167e-20
1.71799e-20
1.41952e-20
1.1752e-20
9.75928e-21
8.14247e-21
6.84088e-21
5.80548e-21
4.99714e-21
4.38521e-21
3.94637e-21
3.66347e-21
3.52352e-21
1.02609
0.978735
0.932512
0.887751
0.844591
0.80307
0.76318
0.724894
0.688179
0.652997
0.619309
0.587077
0.556262
0.526825
0.498725
0.471922
0.446376
0.422043
0.398883
0.376854
0.355912
0.336018
0.317129
0.299203
0.282202
0.266085
0.250813
0.236348
0.222655
0.209696
0.197437
0.185845
0.174887
0.164533
0.154752
0.145515
0.136795
0.128565
0.120801
0.113477
0.10657
0.10006
0.0939236
0.088142
0.0826958
0.0775667
0.0727377
0.0681922
0.0639147
0.0598903
0.056105
0.0525455
0.0491991
0.0460538
0.0430984
0.0403219
0.0377143
0.0352658
0.0329674
0.0308104
0.0287866
0.0268884
0.0251083
0.0234394
0.0218753
0.0204098
0.0190369
0.0177513
0.0165477
0.0154212
0.0143671
0.0133811
0.0124591
0.0115971
0.0107915
0.0100388
0.0093358
0.00867934
0.00806655
0.00749472
0.00696126
0.00646375
0.00599992
0.00556763
0.00516485
0.0047897
0.00444039
0.00411524
0.00381268
0.00353124
0.00326953
0.00302623
0.00280014
0.00259011
0.00239505
0.00221397
0.00204591
0.00188999
0.00174539
0.00161133
0.00148707
0.00137195
0.00126533
0.00116661
0.00107523
0.000990694
0.0009125
0.0008402
0.000773374
0.000711627
0.000654594
0.000601933
0.000553325
0.000508473
0.000467102
0.000428954
0.000393791
0.000361389
0.000331543
0.000304061
0.000278763
0.000255485
0.000234072
0.000214381
0.000196281
0.000179649
0.000164371
0.000150341
0.000137463
0.000125645
0.000114804
0.000104863
9.57497e-05
8.73989e-05
7.97493e-05
7.27443e-05
6.63318e-05
6.04639e-05
5.50961e-05
5.01876e-05
4.57005e-05
4.16003e-05
3.78547e-05
3.44345e-05
3.13123e-05
2.84633e-05
2.58645e-05
2.34947e-05
2.13346e-05
1.93662e-05
1.75732e-05
1.59406e-05
1.44546e-05
1.31024e-05
1.18725e-05
1.07541e-05
9.73767e-06
8.81411e-06
7.97528e-06
7.21367e-06
6.52243e-06
5.89529e-06
5.32652e-06
4.81087e-06
4.34355e-06
3.92018e-06
3.53679e-06
3.18971e-06
2.87564e-06
2.59153e-06
2.33463e-06
2.10241e-06
1.89258e-06
1.70306e-06
1.53195e-06
1.37751e-06
1.23817e-06
1.11251e-06
9.99223e-07
8.97134e-07
8.05169e-07
7.22357e-07
6.47815e-07
5.80743e-07
5.20417e-07
4.66178e-07
4.17431e-07
3.73638e-07
3.3431e-07
2.99006e-07
2.67326e-07
2.3891e-07
2.13432e-07
1.90596e-07
1.70137e-07
1.51815e-07
1.35413e-07
1.20735e-07
1.07606e-07
9.58671e-08
8.53749e-08
7.60009e-08
6.76294e-08
6.0156e-08
5.34873e-08
4.75389e-08
4.22351e-08
3.75081e-08
3.32968e-08
2.95465e-08
2.62081e-08
2.32375e-08
2.05954e-08
1.82463e-08
1.61586e-08
1.43039e-08
1.26571e-08
1.11953e-08
9.89827e-09
8.74798e-09
7.72822e-09
6.82454e-09
6.02408e-09
5.31533e-09
4.68805e-09
4.1331e-09
3.64235e-09
3.20856e-09
2.82526e-09
2.48673e-09
2.18786e-09
1.92412e-09
1.69148e-09
1.48634e-09
1.30555e-09
1.14627e-09
1.00601e-09
8.82541e-10
7.73906e-10
6.78362e-10
5.94366e-10
5.20553e-10
4.55717e-10
3.98791e-10
3.48829e-10
3.05e-10
2.66566e-10
2.32877e-10
2.03362e-10
1.77512e-10
1.54884e-10
1.35083e-10
1.17764e-10
1.02623e-10
8.93902e-11
7.78313e-11
6.77386e-11
5.89298e-11
5.12448e-11
4.45433e-11
3.87018e-11
3.36122e-11
2.91795e-11
2.53208e-11
2.1963e-11
1.90424e-11
1.65032e-11
1.42965e-11
1.23797e-11
1.07153e-11
9.27071e-12
8.01749e-12
6.93073e-12
5.98874e-12
5.17258e-12
4.46575e-12
3.85386e-12
3.3244e-12
2.86646e-12
2.47055e-12
2.12841e-12
1.83287e-12
1.5777e-12
1.35747e-12
1.16748e-12
1.00366e-12
8.62456e-13
7.40801e-13
6.36035e-13
5.45851e-13
4.68255e-13
4.01517e-13
3.44144e-13
2.94843e-13
2.52497e-13
2.1614e-13
1.84938e-13
1.58174e-13
1.35224e-13
1.15555e-13
9.87047e-14
8.42753e-14
7.19244e-14
6.13573e-14
5.23203e-14
4.45952e-14
3.79944e-14
3.23567e-14
2.75437e-14
2.34366e-14
1.99334e-14
1.69465e-14
1.4401e-14
1.22326e-14
1.03863e-14
8.81483e-15
7.47793e-15
6.34106e-15
5.37473e-15
4.5537e-15
3.85643e-15
3.26452e-15
2.76228e-15
2.33631e-15
1.97517e-15
1.66914e-15
1.40992e-15
1.19045e-15
1.00471e-15
8.47581e-16
7.14722e-16
6.0243e-16
5.07562e-16
4.2745e-16
3.59828e-16
3.02773e-16
2.54656e-16
2.14094e-16
1.79915e-16
1.51128e-16
1.26892e-16
1.06497e-16
8.93421e-17
7.49182e-17
6.2796e-17
5.26127e-17
4.40618e-17
3.68848e-17
3.08636e-17
2.58143e-17
2.15817e-17
1.80354e-17
1.50654e-17
1.25791e-17
1.04986e-17
8.7584e-18
7.30355e-18
6.08775e-18
5.07217e-18
4.2242e-18
3.51649e-18
2.92609e-18
2.43378e-18
2.02343e-18
1.68155e-18
1.39683e-18
1.15983e-18
9.62623e-19
7.98609e-19
6.62257e-19
5.48951e-19
4.54837e-19
3.76697e-19
3.11849e-19
2.58056e-19
2.13452e-19
1.76483e-19
1.45857e-19
1.20497e-19
9.95065e-20
8.21412e-20
6.7782e-20
5.59146e-20
4.61122e-20
3.80204e-20
3.13456e-20
2.58443e-20
2.1315e-20
1.7591e-20
1.45349e-20
1.20333e-20
9.9928e-21
8.33728e-21
7.00453e-21
5.94437e-21
5.11672e-21
4.49021e-21
4.04101e-21
3.7516e-21
3.60843e-21
1.02708
0.981536
0.936765
0.893094
0.850716
0.809735
0.770201
0.732133
0.695528
0.660377
0.626658
0.594347
0.563416
0.533835
0.505568
0.478581
0.452838
0.428299
0.404926
0.382678
0.361517
0.341402
0.322293
0.304149
0.286932
0.270603
0.255124
0.240457
0.226566
0.213416
0.200972
0.189201
0.178071
0.16755
0.157609
0.148219
0.139353
0.130982
0.123084
0.115632
0.108603
0.101977
0.0957299
0.0898432
0.0842972
0.0790736
0.0741549
0.0695244
0.0651665
0.061066
0.0572088
0.0535814
0.0501708
0.046965
0.0439524
0.0411221
0.0384638
0.0359676
0.0336242
0.0314249
0.0293614
0.0274257
0.0256104
0.0239086
0.0223135
0.0208189
0.0194188
0.0181076
0.01688
0.015731
0.0146559
0.0136502
0.0127098
0.0118305
0.0110088
0.010241
0.00952385
0.00885421
0.00822912
0.0076458
0.00710161
0.0065941
0.00612094
0.00567994
0.00526905
0.00488635
0.00452999
0.0041983
0.00388964
0.00360253
0.00333553
0.00308733
0.00285668
0.00264241
0.00244342
0.00225868
0.00208723
0.00192817
0.00178064
0.00164387
0.00151711
0.00139966
0.00129089
0.00119017
0.00109696
0.00101071
0.000930934
0.000857174
0.000788998
0.000726004
0.000667819
0.000614094
0.000564504
0.000518746
0.000476539
0.00043762
0.000401747
0.000368691
0.000338242
0.000310204
0.000284395
0.000260646
0.000238801
0.000218713
0.000200247
0.000183279
0.000167692
0.000153379
0.00014024
0.000128183
0.000117123
0.000106981
9.76842e-05
8.91647e-05
8.13605e-05
7.42139e-05
6.7672e-05
6.16855e-05
5.62092e-05
5.12015e-05
4.66238e-05
4.24407e-05
3.86195e-05
3.51301e-05
3.19449e-05
2.90384e-05
2.6387e-05
2.39694e-05
2.17656e-05
1.97575e-05
1.79283e-05
1.62627e-05
1.47466e-05
1.33671e-05
1.21123e-05
1.09714e-05
9.93438e-06
8.99217e-06
8.13639e-06
7.35939e-06
6.65419e-06
6.01439e-06
5.43412e-06
4.90805e-06
4.43129e-06
3.99938e-06
3.60823e-06
3.25415e-06
2.93373e-06
2.64388e-06
2.38179e-06
2.14488e-06
1.93081e-06
1.73746e-06
1.56289e-06
1.40533e-06
1.26318e-06
1.13498e-06
1.01941e-06
9.15256e-07
8.21434e-07
7.36949e-07
6.60901e-07
5.92474e-07
5.30929e-07
4.75595e-07
4.25863e-07
3.81185e-07
3.41063e-07
3.05046e-07
2.72726e-07
2.43736e-07
2.17743e-07
1.94446e-07
1.73574e-07
1.54882e-07
1.38148e-07
1.23174e-07
1.0978e-07
9.78036e-08
8.70994e-08
7.75361e-08
6.89955e-08
6.13712e-08
5.45677e-08
4.84992e-08
4.30883e-08
3.82658e-08
3.39694e-08
3.01434e-08
2.67375e-08
2.37069e-08
2.10114e-08
1.86148e-08
1.6485e-08
1.45929e-08
1.29128e-08
1.14214e-08
1.00982e-08
8.92469e-09
7.88433e-09
6.9624e-09
6.14577e-09
5.42271e-09
4.78275e-09
4.2166e-09
3.71593e-09
3.27337e-09
2.88234e-09
2.53697e-09
2.23206e-09
1.96299e-09
1.72565e-09
1.51637e-09
1.33192e-09
1.16943e-09
1.02633e-09
9.0037e-10
7.89541e-10
6.92066e-10
6.06373e-10
5.3107e-10
4.64924e-10
4.06847e-10
3.55877e-10
3.11162e-10
2.71951e-10
2.37582e-10
2.0747e-10
1.81099e-10
1.58013e-10
1.37812e-10
1.20143e-10
1.04696e-10
9.11963e-11
7.94039e-11
6.91073e-11
6.01205e-11
5.22803e-11
4.54433e-11
3.94838e-11
3.42914e-11
2.97692e-11
2.58324e-11
2.24068e-11
1.94272e-11
1.68367e-11
1.45854e-11
1.26298e-11
1.09318e-11
9.45806e-12
8.17951e-12
7.0708e-12
6.10977e-12
5.27712e-12
4.556e-12
3.93175e-12
3.39159e-12
2.92439e-12
2.52048e-12
2.17143e-12
1.86992e-12
1.60959e-12
1.38491e-12
1.19108e-12
1.02395e-12
8.79889e-13
7.55776e-13
6.48892e-13
5.56885e-13
4.7772e-13
4.09634e-13
3.51101e-13
3.00804e-13
2.57601e-13
2.20509e-13
1.88677e-13
1.61371e-13
1.37958e-13
1.17891e-13
1.007e-13
8.59793e-14
7.33787e-14
6.2598e-14
5.33783e-14
4.54969e-14
3.87627e-14
3.3011e-14
2.81007e-14
2.39106e-14
2.03365e-14
1.72892e-14
1.46923e-14
1.248e-14
1.05964e-14
8.99312e-15
7.62918e-15
6.46932e-15
5.48344e-15
4.64581e-15
3.93444e-15
3.33056e-15
2.81816e-15
2.38357e-15
2.01513e-15
1.70291e-15
1.43845e-15
1.21453e-15
1.02503e-15
8.64731e-16
7.29183e-16
6.14619e-16
5.17832e-16
4.36099e-16
3.67109e-16
3.089e-16
2.5981e-16
2.18426e-16
1.83556e-16
1.54186e-16
1.2946e-16
1.08653e-16
9.11505e-17
7.64347e-17
6.40671e-17
5.36777e-17
4.49538e-17
3.76315e-17
3.14885e-17
2.63369e-17
2.20187e-17
1.84006e-17
1.53704e-17
1.28338e-17
1.07111e-17
8.93576e-18
7.45145e-18
6.21104e-18
5.1749e-18
4.30976e-18
3.58771e-18
2.98536e-18
2.48308e-18
2.06442e-18
1.71561e-18
1.42513e-18
1.18332e-18
9.82126e-19
8.14789e-19
6.75675e-19
5.60074e-19
4.64053e-19
3.84331e-19
3.18169e-19
2.63285e-19
2.17778e-19
1.8006e-19
1.48814e-19
1.22939e-19
1.01524e-19
8.38063e-20
6.9156e-20
5.70481e-20
4.7047e-20
3.87913e-20
3.19811e-20
2.63683e-20
2.17471e-20
1.79477e-20
1.48296e-20
1.22772e-20
1.01954e-20
8.50629e-21
7.14653e-21
6.06489e-21
5.22049e-21
4.58134e-21
4.12312e-21
3.82795e-21
3.68194e-21
1.02779
0.983584
0.939954
0.897192
0.855503
0.815022
0.775835
0.737992
0.701518
0.666421
0.6327
0.600343
0.56933
0.539639
0.511243
0.48411
0.458208
0.433501
0.409954
0.387529
0.366187
0.34589
0.326598
0.308274
0.290879
0.274375
0.258723
0.243888
0.229834
0.216524
0.203926
0.192006
0.180732
0.170073
0.159999
0.150481
0.141492
0.133005
0.124994
0.117435
0.110305
0.103581
0.097242
0.0912675
0.0856382
0.0803354
0.0753417
0.0706402
0.0662149
0.0620508
0.0581334
0.0544491
0.0509848
0.0477284
0.044668
0.0417926
0.0390918
0.0365556
0.0341746
0.0319399
0.029843
0.027876
0.0260313
0.0243018
0.0226808
0.0211618
0.0197389
0.0184062
0.0171585
0.0159907
0.014898
0.0138758
0.0129199
0.0120262
0.0111909
0.0104105
0.0096815
0.00900082
0.00836541
0.00777245
0.00721928
0.00670338
0.00622239
0.0057741
0.00535642
0.00496737
0.00460512
0.00426793
0.00395417
0.00366229
0.00339088
0.00313856
0.00290409
0.00268626
0.00248397
0.00229617
0.00212187
0.00196017
0.0018102
0.00167116
0.0015423
0.0014229
0.00131232
0.00120993
0.00111517
0.00102749
0.000946392
0.000871408
0.0008021
0.00073806
0.000678909
0.000624292
0.000573878
0.000527361
0.000484453
0.000444888
0.000408419
0.000374814
0.000343859
0.000315356
0.000289119
0.000264975
0.000242767
0.000222345
0.000203573
0.000186323
0.000170477
0.000155926
0.000142569
0.000130312
0.000119068
0.000108758
9.93066e-05
9.06457e-05
8.27118e-05
7.54466e-05
6.8796e-05
6.271e-05
5.71428e-05
5.20519e-05
4.73982e-05
4.31456e-05
3.9261e-05
3.57137e-05
3.24755e-05
2.95207e-05
2.68253e-05
2.43675e-05
2.21271e-05
2.00856e-05
1.82261e-05
1.65328e-05
1.49915e-05
1.35891e-05
1.23135e-05
1.11536e-05
1.00994e-05
9.14154e-06
8.27155e-06
7.48165e-06
6.76473e-06
6.1143e-06
5.52439e-06
4.98958e-06
4.5049e-06
4.06581e-06
3.66818e-06
3.30821e-06
2.98247e-06
2.6878e-06
2.42136e-06
2.18051e-06
1.96289e-06
1.76633e-06
1.58886e-06
1.42868e-06
1.28417e-06
1.15384e-06
1.03634e-06
9.30462e-07
8.35081e-07
7.49193e-07
6.71882e-07
6.02318e-07
5.39751e-07
4.83497e-07
4.32939e-07
3.87519e-07
3.4673e-07
3.10114e-07
2.77258e-07
2.47786e-07
2.21361e-07
1.97677e-07
1.76458e-07
1.57455e-07
1.40444e-07
1.25221e-07
1.11604e-07
9.94289e-08
8.85469e-08
7.88246e-08
7.01421e-08
6.23911e-08
5.54746e-08
4.93052e-08
4.38044e-08
3.89018e-08
3.4534e-08
3.06444e-08
2.71819e-08
2.4101e-08
2.13606e-08
1.89242e-08
1.6759e-08
1.48355e-08
1.31274e-08
1.16113e-08
1.02661e-08
9.07305e-09
8.0154e-09
7.07815e-09
6.24794e-09
5.51286e-09
4.86227e-09
4.2867e-09
3.77771e-09
3.3278e-09
2.93026e-09
2.57915e-09
2.26918e-09
1.99563e-09
1.75434e-09
1.54159e-09
1.35407e-09
1.18887e-09
1.0434e-09
9.15344e-10
8.02672e-10
7.03576e-10
6.16458e-10
5.39902e-10
4.72657e-10
4.13614e-10
3.61796e-10
3.16337e-10
2.76475e-10
2.41535e-10
2.10921e-10
1.84111e-10
1.60642e-10
1.40105e-10
1.22142e-10
1.06438e-10
9.27136e-11
8.07251e-11
7.02571e-11
6.11208e-11
5.31502e-11
4.61995e-11
4.01409e-11
3.4862e-11
3.02646e-11
2.62623e-11
2.27797e-11
1.97505e-11
1.71169e-11
1.48282e-11
1.28401e-11
1.11138e-11
9.6155e-12
8.31568e-12
7.18851e-12
6.21149e-12
5.36497e-12
4.63185e-12
3.99721e-12
3.44806e-12
2.97309e-12
2.56245e-12
2.20759e-12
1.90106e-12
1.63639e-12
1.40797e-12
1.21092e-12
1.041e-12
8.94546e-13
7.68365e-13
6.59701e-13
5.66163e-13
4.85679e-13
4.16459e-13
3.56951e-13
3.05816e-13
2.61894e-13
2.24184e-13
1.91821e-13
1.64061e-13
1.40257e-13
1.19856e-13
1.02379e-13
8.74124e-14
7.46018e-14
6.36415e-14
5.42681e-14
4.62554e-14
3.94089e-14
3.35614e-14
2.85693e-14
2.43093e-14
2.06756e-14
1.75776e-14
1.49373e-14
1.26882e-14
1.07731e-14
9.14312e-15
7.75644e-15
6.57724e-15
5.57492e-15
4.72331e-15
4.00008e-15
3.38613e-15
2.86518e-15
2.42334e-15
2.04876e-15
1.73133e-15
1.46245e-15
1.2348e-15
1.04214e-15
8.79165e-16
7.41356e-16
6.2488e-16
5.26478e-16
4.43381e-16
3.73239e-16
3.14059e-16
2.64148e-16
2.22074e-16
1.86622e-16
1.56762e-16
1.31623e-16
1.10468e-16
9.26733e-17
7.77117e-17
6.51376e-17
5.45746e-17
4.5705e-17
3.82604e-17
3.20147e-17
2.67771e-17
2.23867e-17
1.87082e-17
1.56274e-17
1.30483e-17
1.08902e-17
9.08518e-18
7.57606e-18
6.31491e-18
5.26144e-18
4.38184e-18
3.64773e-18
3.0353e-18
2.52462e-18
2.09895e-18
1.74431e-18
1.44897e-18
1.20313e-18
9.98563e-19
8.28427e-19
6.86985e-19
5.69449e-19
4.71822e-19
3.90765e-19
3.23496e-19
2.67694e-19
2.21424e-19
1.83076e-19
1.51306e-19
1.24999e-19
1.03224e-19
8.52103e-20
7.03147e-20
5.8004e-20
4.78354e-20
3.94413e-20
3.25171e-20
2.68102e-20
2.21116e-20
1.82485e-20
1.50782e-20
1.2483e-20
1.03663e-20
8.64888e-21
7.26633e-21
6.16657e-21
5.30805e-21
4.65824e-21
4.19238e-21
3.89233e-21
3.7439e-21
1.0283
0.985074
0.942308
0.900262
0.859137
0.819082
0.7802
0.742564
0.706217
0.671184
0.637478
0.605095
0.574027
0.544257
0.515763
0.488518
0.462493
0.437656
0.413972
0.391406
0.369921
0.34948
0.330044
0.311577
0.29404
0.277395
0.261607
0.246638
0.232452
0.219016
0.206295
0.194256
0.182867
0.172097
0.161916
0.152296
0.143209
0.134628
0.126527
0.118883
0.111671
0.104869
0.0984562
0.0924113
0.0867151
0.0813489
0.076295
0.0715364
0.0670572
0.062842
0.0588763
0.0551463
0.0516389
0.0483418
0.045243
0.0423314
0.0395965
0.0370282
0.0346169
0.0323537
0.0302301
0.0282379
0.0263696
0.0246179
0.022976
0.0214375
0.0199961
0.0186463
0.0173825
0.0161995
0.0150926
0.0140571
0.0130888
0.0121834
0.0113373
0.0105467
0.00980825
0.00911869
0.00847499
0.00787429
0.00731388
0.00679124
0.00630397
0.00584981
0.00542666
0.00503253
0.00466554
0.00432393
0.00400605
0.00371035
0.00343538
0.00317976
0.00294221
0.00272153
0.00251658
0.00232632
0.00214974
0.00198591
0.00183397
0.00169311
0.00156255
0.00144159
0.00132956
0.00122583
0.00112982
0.00104099
0.000958824
0.000882855
0.000812637
0.000747757
0.000687829
0.000632494
0.000581418
0.00053429
0.000490818
0.000450734
0.000413785
0.000379739
0.000348378
0.0003195
0.000292918
0.000268457
0.000245957
0.000225267
0.000206248
0.000188771
0.000172717
0.000157975
0.000144443
0.000132025
0.000120633
0.000110187
0.000100612
9.18371e-05
8.3799e-05
7.64383e-05
6.97002e-05
6.35343e-05
5.7894e-05
5.27362e-05
4.80213e-05
4.37128e-05
3.97771e-05
3.61832e-05
3.29025e-05
2.99088e-05
2.7178e-05
2.46879e-05
2.2418e-05
2.03497e-05
1.84657e-05
1.67502e-05
1.51886e-05
1.37678e-05
1.24754e-05
1.13003e-05
1.02322e-05
9.26175e-06
8.38031e-06
7.58003e-06
6.85369e-06
6.1947e-06
5.59704e-06
5.0552e-06
4.56415e-06
4.11929e-06
3.71642e-06
3.35172e-06
3.02169e-06
2.72316e-06
2.4532e-06
2.20919e-06
1.98871e-06
1.78956e-06
1.60976e-06
1.44747e-06
1.30106e-06
1.16902e-06
1.04998e-06
9.42704e-07
8.46068e-07
7.5905e-07
6.80722e-07
6.10243e-07
5.46852e-07
4.89859e-07
4.38636e-07
3.92618e-07
3.51293e-07
3.14195e-07
2.80907e-07
2.51047e-07
2.24275e-07
2.00279e-07
1.78781e-07
1.59528e-07
1.42292e-07