/*--------------------------------*- C++ -*----------------------------------*\
  =========                 |
  \\      /  F ield         | OpenFOAM: The Open Source CFD Toolbox
   \\    /   O peration     | Website:  https://openfoam.org
    \\  /    A nd           | Version:  10
     \\/     M anipulation  |
\*---------------------------------------------------------------------------*/
FoamFile
{
    format      ascii;
    class       volScalarField;
    location    "0.22";
    object      beta;
}
// * * * * * * * * * * * * * * * * * * * * * * * * * * * * * * * * * * * * * //

dimensions      [0 0 0 0 0 0 0];

internalField   uniform 0;

boundaryField
{
    frontAndBack
    {
        type            empty;
    }
    inlet
    {
        type            calculated;
        value           uniform 0;
    }
    outlet
    {
        type            calculated;
        value           uniform 0;
    }
    substrate
    {
        type            calculated;
        value           nonuniform List<scalar> 
400
(
0.0026534
0.00287617
0.00308729
0.00329213
0.00349326
0.00369193
0.00388874
0.00408393
0.00427752
0.00446941
0.00465942
0.0048473
0.00503282
0.00521569
0.00539565
0.00557245
0.00574584
0.00591561
0.00608155
0.00624348
0.00640127
0.00655478
0.0067039
0.00684857
0.00698872
0.00712433
0.00725537
0.00738186
0.00750381
0.00762126
0.00773427
0.0078429
0.00794721
0.0080473
0.00814325
0.00823517
0.00832315
0.00840731
0.00848776
0.0085646
0.00863797
0.00870796
0.00877471
0.00883833
0.00889893
0.00895664
0.00901156
0.0090638
0.00911349
0.00916072
0.00920559
0.00924822
0.0092887
0.00932712
0.00936358
0.00939818
0.00943098
0.00946209
0.00949158
0.00951953
0.00954601
0.00957109
0.00959485
0.00961734
0.00963863
0.00965879
0.00967786
0.00969591
0.00971298
0.00972913
0.0097444
0.00975884
0.00977249
0.00978539
0.00979759
0.00980911
0.00982
0.00983029
0.00984001
0.00984918
0.00985785
0.00986604
0.00987376
0.00988106
0.00988794
0.00989444
0.00990057
0.00990636
0.00991182
0.00991697
0.00992182
0.00992641
0.00993073
0.0099348
0.00993864
0.00994226
0.00994568
0.00994889
0.00995192
0.00995478
0.00995747
0.00996001
0.0099624
0.00996465
0.00996677
0.00996876
0.00997064
0.00997241
0.00997408
0.00997565
0.00997712
0.00997851
0.00997982
0.00998105
0.0099822
0.00998329
0.00998431
0.00998528
0.00998618
0.00998703
0.00998783
0.00998858
0.00998929
0.00998995
0.00999058
0.00999116
0.00999171
0.00999223
0.00999272
0.00999317
0.0099936
0.009994
0.00999438
0.00999474
0.00999507
0.00999538
0.00999567
0.00999595
0.00999621
0.00999645
0.00999668
0.00999689
0.00999709
0.00999728
0.00999745
0.00999762
0.00999777
0.00999791
0.00999805
0.00999818
0.00999829
0.00999841
0.00999851
0.00999861
0.0099987
0.00999878
0.00999886
0.00999894
0.00999901
0.00999907
0.00999914
0.00999919
0.00999925
0.0099993
0.00999934
0.00999939
0.00999943
0.00999947
0.0099995
0.00999954
0.00999957
0.0099996
0.00999962
0.00999965
0.00999967
0.0099997
0.00999972
0.00999974
0.00999975
0.00999977
0.00999979
0.0099998
0.00999981
0.00999983
0.00999984
0.00999985
0.00999986
0.00999987
0.00999988
0.00999989
0.0099999
0.0099999
0.00999991
0.00999992
0.00999992
0.00999993
0.00999993
0.00999994
0.00999994
0.00999995
0.00999995
0.00999995
0.00999996
0.00999996
0.00999996
0.00999997
0.00999997
0.00999997
0.00999997
0.00999997
0.00999998
0.00999998
0.00999998
0.00999998
0.00999998
0.00999998
0.00999998
0.00999999
0.00999999
0.00999999
0.00999999
0.00999999
0.00999999
0.00999999
0.00999999
0.00999999
0.00999999
0.00999999
0.00999999
0.00999999
0.00999999
0.01
0.01
0.01
0.01
0.01
0.01
0.01
0.01
0.01
0.01
0.01
0.01
0.01
0.01
0.01
0.01
0.01
0.01
0.01
0.01
0.01
0.01
0.01
0.01
0.01
0.01
0.01
0.01
0.01
0.01
0.01
0.01
0.01
0.01
0.01
0.01
0.01
0.01
0.01
0.01
0.01
0.01
0.01
0.01
0.01
0.01
0.01
0.01
0.01
0.01
0.01
0.01
0.01
0.01
0.01
0.01
0.01
0.01
0.01
0.01
0.01
0.01
0.01
0.01
0.01
0.01
0.01
0.01
0.01
0.01
0.01
0.01
0.01
0.01
0.01
0.01
0.01
0.01
0.01
0.01
0.01
0.01
0.01
0.01
0.01
0.01
0.01
0.01
0.01
0.01
0.01
0.01
0.01
0.01
0.01
0.01
0.01
0.01
0.01
0.01
0.01
0.01
0.01
0.01
0.01
0.01
0.01
0.01
0.01
0.01
0.01
0.01
0.01
0.01
0.01
0.01
0.01
0.01
0.01
0.01
0.01
0.01
0.01
0.01
0.01
0.01
0.01
0.01
0.01
0.01
0.01
0.01
0.01
0.01
0.01
0.01
0.01
0.01
0.01
0.01
0.01
0.01
0.01
0.01
0.01
0.01
0.01
0.01
0.01
0.01
0.01
0.01
0.01
0.01
0.01
0.01
0.01
0.01
0.01
0.01
0.01
0.01
0.01
0.01
0.01
0.01
0.01
0.01
0.01
)
;
    }
    Wall
    {
        type            calculated;
        value           nonuniform List<scalar> 
400
(
0.0026534
0.00287618
0.00308728
0.00329213
0.00349326
0.00369193
0.00388875
0.00408393
0.00427753
0.00446941
0.00465942
0.0048473
0.00503281
0.00521568
0.00539564
0.00557243
0.00574582
0.00591559
0.00608152
0.00624346
0.00640124
0.00655474
0.00670387
0.00684853
0.00698868
0.00712428
0.00725533
0.00738181
0.00750376
0.00762122
0.00773422
0.00784285
0.00794716
0.00804725
0.0081432
0.00823512
0.0083231
0.00840726
0.00848771
0.00856455
0.00863792
0.00870792
0.00877467
0.00883828
0.00889889
0.00895659
0.00901152
0.00906376
0.00911345
0.00916068
0.00920555
0.00924818
0.00928866
0.00932709
0.00936355
0.00939814
0.00943095
0.00946206
0.00949155
0.0095195
0.00954598
0.00957107
0.00959482
0.00961732
0.00963861
0.00965877
0.00967784
0.00969589
0.00971296
0.00972911
0.00974438
0.00975882
0.00977248
0.00978538
0.00979758
0.0098091
0.00981999
0.00983028
0.00984
0.00984917
0.00985784
0.00986603
0.00987375
0.00988105
0.00988793
0.00989443
0.00990056
0.00990635
0.00991181
0.00991696
0.00992182
0.0099264
0.00993072
0.0099348
0.00993864
0.00994226
0.00994567
0.00994889
0.00995192
0.00995478
0.00995747
0.00996001
0.0099624
0.00996465
0.00996677
0.00996876
0.00997064
0.00997241
0.00997408
0.00997564
0.00997712
0.00997851
0.00997982
0.00998104
0.0099822
0.00998329
0.00998431
0.00998527
0.00998618
0.00998703
0.00998783
0.00998858
0.00998929
0.00998995
0.00999058
0.00999116
0.00999171
0.00999223
0.00999272
0.00999317
0.0099936
0.009994
0.00999438
0.00999474
0.00999507
0.00999538
0.00999567
0.00999595
0.00999621
0.00999645
0.00999668
0.00999689
0.00999709
0.00999728
0.00999745
0.00999762
0.00999777
0.00999791
0.00999805
0.00999818
0.00999829
0.00999841
0.00999851
0.00999861
0.0099987
0.00999878
0.00999886
0.00999894
0.00999901
0.00999907
0.00999914
0.00999919
0.00999925
0.0099993
0.00999934
0.00999939
0.00999943
0.00999947
0.0099995
0.00999954
0.00999957
0.0099996
0.00999962
0.00999965
0.00999967
0.0099997
0.00999972
0.00999974
0.00999975
0.00999977
0.00999979
0.0099998
0.00999981
0.00999983
0.00999984
0.00999985
0.00999986
0.00999987
0.00999988
0.00999989
0.0099999
0.0099999
0.00999991
0.00999992
0.00999992
0.00999993
0.00999993
0.00999994
0.00999994
0.00999995
0.00999995
0.00999995
0.00999996
0.00999996
0.00999996
0.00999997
0.00999997
0.00999997
0.00999997
0.00999997
0.00999998
0.00999998
0.00999998
0.00999998
0.00999998
0.00999998
0.00999998
0.00999999
0.00999999
0.00999999
0.00999999
0.00999999
0.00999999
0.00999999
0.00999999
0.00999999
0.00999999
0.00999999
0.00999999
0.00999999
0.00999999
0.01
0.01
0.01
0.01
0.01
0.01
0.01
0.01
0.01
0.01
0.01
0.01
0.01
0.01
0.01
0.01
0.01
0.01
0.01
0.01
0.01
0.01
0.01
0.01
0.01
0.01
0.01
0.01
0.01
0.01
0.01
0.01
0.01
0.01
0.01
0.01
0.01
0.01
0.01
0.01
0.01
0.01
0.01
0.01
0.01
0.01
0.01
0.01
0.01
0.01
0.01
0.01
0.01
0.01
0.01
0.01
0.01
0.01
0.01
0.01
0.01
0.01
0.01
0.01
0.01
0.01
0.01
0.01
0.01
0.01
0.01
0.01
0.01
0.01
0.01
0.01
0.01
0.01
0.01
0.01
0.01
0.01
0.01
0.01
0.01
0.01
0.01
0.01
0.01
0.01
0.01
0.01
0.01
0.01
0.01
0.01
0.01
0.01
0.01
0.01
0.01
0.01
0.01
0.01
0.01
0.01
0.01
0.01
0.01
0.01
0.01
0.01
0.01
0.01
0.01
0.01
0.01
0.01
0.01
0.01
0.01
0.01
0.01
0.01
0.01
0.01
0.01
0.01
0.01
0.01
0.01
0.01
0.01
0.01
0.01
0.01
0.01
0.01
0.01
0.01
0.01
0.01
0.01
0.01
0.01
0.01
0.01
0.01
0.01
0.01
0.01
0.01
0.01
0.01
0.01
0.01
0.01
0.01
0.01
0.01
0.01
0.01
0.01
0.01
0.01
0.01
0.01
0.01
0.01
)
;
    }
}


// ************************************************************************* //
