/*--------------------------------*- C++ -*----------------------------------*\
  =========                 |
  \\      /  F ield         | OpenFOAM: The Open Source CFD Toolbox
   \\    /   O peration     | Website:  https://openfoam.org
    \\  /    A nd           | Version:  10
     \\/     M anipulation  |
\*---------------------------------------------------------------------------*/
FoamFile
{
    format      ascii;
    class       volScalarField;
    location    "0.22";
    object      growth;
}
// * * * * * * * * * * * * * * * * * * * * * * * * * * * * * * * * * * * * * //

dimensions      [0 0 0 0 0 0 0];

internalField   uniform 0;

boundaryField
{
    frontAndBack
    {
        type            empty;
    }
    inlet
    {
        type            calculated;
        value           uniform 0;
    }
    outlet
    {
        type            calculated;
        value           uniform 0;
    }
    substrate
    {
        type            calculated;
        value           nonuniform List<scalar> 
400
(
0.73466
0.712383
0.691271
0.670787
0.650674
0.630807
0.611126
0.591607
0.572248
0.553059
0.534058
0.51527
0.496718
0.478431
0.460435
0.442755
0.425416
0.408439
0.391845
0.375652
0.359873
0.344522
0.32961
0.315143
0.301128
0.287567
0.274463
0.261814
0.249619
0.237874
0.226573
0.21571
0.205279
0.19527
0.185675
0.176483
0.167685
0.159269
0.151224
0.14354
0.136203
0.129204
0.122529
0.116167
0.110107
0.104336
0.0988441
0.0936195
0.0886512
0.0839285
0.0794408
0.0751781
0.0711303
0.067288
0.0636417
0.0601824
0.0569016
0.0537907
0.0508418
0.0480471
0.0453992
0.0428909
0.0405153
0.038266
0.0361365
0.034121
0.0322137
0.030409
0.0287018
0.027087
0.02556
0.0241161
0.022751
0.0214607
0.0202411
0.0190887
0.0179998
0.0169711
0.0159994
0.0150816
0.0142149
0.0133965
0.0126238
0.0118944
0.0112059
0.0105561
0.00994287
0.00936425
0.00881835
0.00830336
0.0078176
0.00735946
0.0069274
0.00652001
0.0061359
0.00577378
0.00543245
0.00511073
0.00480753
0.00452183
0.00425263
0.00399902
0.00376011
0.00353509
0.00332316
0.00312358
0.00293566
0.00275874
0.00259219
0.00243542
0.00228787
0.00214901
0.00201835
0.00189542
0.00177977
0.00167099
0.00156867
0.00147245
0.00138197
0.0012969
0.00121693
0.00114175
0.00107109
0.00100469
0.000942291
0.000883665
0.000828587
0.000776851
0.000728259
0.000682624
0.000639773
0.000599541
0.000561771
0.000526317
0.000493042
0.000461814
0.000432513
0.000405021
0.000379231
0.00035504
0.000332352
0.000311076
0.000291127
0.000272423
0.00025489
0.000238456
0.000223055
0.000208623
0.0001951
0.000182431
0.000170565
0.00015945
0.000149041
0.000139295
0.000130169
0.000121627
0.000113631
0.000106147
9.91442e-05
9.25916e-05
8.64614e-05
8.07269e-05
7.53634e-05
7.03474e-05
6.5657e-05
6.12717e-05
5.7172e-05
5.334e-05
4.97586e-05
4.64118e-05
4.32846e-05
4.03631e-05
3.7634e-05
3.50849e-05
3.27044e-05
3.04815e-05
2.84061e-05
2.64687e-05
2.46602e-05
2.29724e-05
2.13974e-05
1.99278e-05
1.85567e-05
1.72778e-05
1.6085e-05
1.49725e-05
1.39353e-05
1.29682e-05
1.20666e-05
1.12263e-05
1.04432e-05
9.71341e-06
9.03347e-06
8.40002e-06
7.80998e-06
7.26043e-06
6.74868e-06
6.27217e-06
5.82854e-06
5.41558e-06
5.03122e-06
4.67352e-06
4.34068e-06
4.03101e-06
3.74294e-06
3.47499e-06
3.2258e-06
2.99407e-06
2.77862e-06
2.57833e-06
2.39216e-06
2.21913e-06
2.05835e-06
1.90895e-06
1.77016e-06
1.64124e-06
1.5215e-06
1.4103e-06
1.30706e-06
1.21121e-06
1.12223e-06
1.03965e-06
9.6301e-07
8.91899e-07
8.25926e-07
7.64728e-07
7.07966e-07
6.55326e-07
6.06517e-07
5.61265e-07
5.19316e-07
4.80436e-07
4.44405e-07
4.11018e-07
3.80086e-07
3.51432e-07
3.24893e-07
3.00315e-07
2.77557e-07
2.56488e-07
2.36984e-07
2.18932e-07
2.02226e-07
1.86769e-07
1.72468e-07
1.59239e-07
1.47003e-07
1.35689e-07
1.25227e-07
1.15555e-07
1.06614e-07
9.83509e-08
9.07149e-08
8.36596e-08
7.71417e-08
7.11212e-08
6.55609e-08
6.04263e-08
5.56857e-08
5.13094e-08
4.727e-08
4.35422e-08
4.01024e-08
3.69288e-08
3.40012e-08
3.13011e-08
2.8811e-08
2.65151e-08
2.43984e-08
2.24474e-08
2.06492e-08
1.89922e-08
1.74655e-08
1.6059e-08
1.47636e-08
1.35706e-08
1.24721e-08
1.14608e-08
1.05298e-08
9.673e-09
8.88453e-09
8.15907e-09
7.49169e-09
6.87783e-09
6.31329e-09
5.79418e-09
5.31693e-09
4.87822e-09
4.47502e-09
4.10449e-09
3.76406e-09
3.45132e-09
3.16406e-09
2.90026e-09
2.65803e-09
2.43564e-09
2.23151e-09
2.04416e-09
1.87224e-09
1.71451e-09
1.56981e-09
1.4371e-09
1.3154e-09
1.2038e-09
1.1015e-09
1.00773e-09
9.21799e-10
8.43055e-10
7.70914e-10
7.04831e-10
6.44309e-10
5.88888e-10
5.38146e-10
4.91697e-10
4.49184e-10
4.10279e-10
3.74682e-10
3.42118e-10
3.12333e-10
2.85094e-10
2.60188e-10
2.37419e-10
2.16606e-10
1.97585e-10
1.80205e-10
1.64326e-10
1.49822e-10
1.36575e-10
1.24479e-10
1.13435e-10
1.03354e-10
9.41527e-11
8.57565e-11
7.80959e-11
7.11078e-11
6.4734e-11
5.89217e-11
5.36223e-11
4.87912e-11
4.4388e-11
4.03753e-11
3.67191e-11
3.33884e-11
3.03547e-11
2.75919e-11
2.50764e-11
2.27863e-11
2.07018e-11
1.88049e-11
1.70788e-11
1.55086e-11
1.40803e-11
1.27815e-11
1.16004e-11
1.05267e-11
9.5508e-12
8.6639e-12
7.85804e-12
7.12595e-12
6.461e-12
5.85714e-12
5.30885e-12
4.81112e-12
4.35937e-12
3.94944e-12
3.57752e-12
3.24017e-12
2.93423e-12
2.65684e-12
2.4054e-12
2.17752e-12
1.97107e-12
1.78408e-12
1.61476e-12
1.4615e-12
1.32283e-12
1.1974e-12
1.08402e-12
9.8158e-13
8.89081e-13
8.05624e-13
7.30391e-13
6.62644e-13
6.01714e-13
5.46999e-13
4.97958e-13
4.54103e-13
4.14996e-13
3.80247e-13
3.49507e-13
3.22468e-13
2.98858e-13
2.78438e-13
2.61002e-13
2.46373e-13
2.34403e-13
2.2497e-13
2.17978e-13
2.13356e-13
2.11057e-13
)
;
    }
    Wall
    {
        type            calculated;
        value           nonuniform List<scalar> 
400
(
0.73466
0.712382
0.691272
0.670787
0.650674
0.630807
0.611125
0.591607
0.572247
0.553059
0.534058
0.51527
0.496719
0.478432
0.460436
0.442757
0.425418
0.408441
0.391848
0.375654
0.359876
0.344526
0.329613
0.315147
0.301132
0.287572
0.274467
0.261819
0.249624
0.237878
0.226578
0.215715
0.205284
0.195275
0.18568
0.176488
0.16769
0.159274
0.151229
0.143545
0.136208
0.129208
0.122533
0.116172
0.110111
0.104341
0.0988485
0.0936237
0.0886553
0.0839325
0.0794447
0.0751818
0.071134
0.0672915
0.063645
0.0601857
0.0569047
0.0537937
0.0508447
0.0480499
0.0454019
0.0428934
0.0405178
0.0382683
0.0361387
0.0341231
0.0322157
0.0304109
0.0287036
0.0270887
0.0255616
0.0241176
0.0227525
0.0214621
0.0202425
0.01909
0.018001
0.0169722
0.0160005
0.0150826
0.0142158
0.0133974
0.0126247
0.0118952
0.0112066
0.0105568
0.00994353
0.00936488
0.00881894
0.00830392
0.00781812
0.00735994
0.00692786
0.00652043
0.0061363
0.00577416
0.0054328
0.00511106
0.00480784
0.00452212
0.0042529
0.00399927
0.00376035
0.00353531
0.00332336
0.00312377
0.00293584
0.00275891
0.00259235
0.00243556
0.002288
0.00214914
0.00201847
0.00189553
0.00177988
0.00167109
0.00156876
0.00147254
0.00138205
0.00129698
0.00121699
0.00114181
0.00107115
0.00100474
0.000942341
0.000883711
0.00082863
0.000776891
0.000728296
0.000682659
0.000639805
0.00059957
0.000561798
0.000526343
0.000493065
0.000461836
0.000432533
0.00040504
0.000379249
0.000355057
0.000332367
0.00031109
0.000291139
0.000272435
0.000254901
0.000238467
0.000223064
0.000208631
0.000195108
0.000182439
0.000170572
0.000159456
0.000149047
0.0001393
0.000130175
0.000121632
0.000113635
0.000106151
9.9148e-05
9.25952e-05
8.64647e-05
8.073e-05
7.53662e-05
7.035e-05
6.56594e-05
6.12739e-05
5.71741e-05
5.3342e-05
4.97604e-05
4.64135e-05
4.32862e-05
4.03645e-05
3.76353e-05
3.50862e-05
3.27056e-05
3.04826e-05
2.84071e-05
2.64696e-05
2.46611e-05
2.29732e-05
2.13981e-05
1.99285e-05
1.85574e-05
1.72784e-05
1.60855e-05
1.49731e-05
1.39357e-05
1.29686e-05
1.20671e-05
1.12267e-05
1.04435e-05
9.71375e-06
9.03378e-06
8.40031e-06
7.81025e-06
7.26069e-06
6.74891e-06
6.27239e-06
5.82875e-06
5.41578e-06
5.0314e-06
4.67369e-06
4.34084e-06
4.03116e-06
3.74307e-06
3.47512e-06
3.22591e-06
2.99418e-06
2.77873e-06
2.57843e-06
2.39225e-06
2.21922e-06
2.05842e-06
1.90902e-06
1.77023e-06
1.6413e-06
1.52156e-06
1.41036e-06
1.30711e-06
1.21125e-06
1.12227e-06
1.03969e-06
9.63049e-07
8.91936e-07
8.2596e-07
7.64759e-07
7.07996e-07
6.55354e-07
6.06543e-07
5.61289e-07
5.19339e-07
4.80457e-07
4.44424e-07
4.11036e-07
3.80103e-07
3.51448e-07
3.24908e-07
3.00329e-07
2.7757e-07
2.565e-07
2.36995e-07
2.18943e-07
2.02236e-07
1.86778e-07
1.72476e-07
1.59247e-07
1.47011e-07
1.35696e-07
1.25233e-07
1.1556e-07
1.0662e-07
9.8356e-08
9.07197e-08
8.3664e-08
7.71458e-08
7.1125e-08
6.55644e-08
6.04297e-08
5.56888e-08
5.13123e-08
4.72727e-08
4.35447e-08
4.01047e-08
3.69309e-08
3.40032e-08
3.13029e-08
2.88128e-08
2.65167e-08
2.43999e-08
2.24487e-08
2.06505e-08
1.89933e-08
1.74666e-08
1.60601e-08
1.47646e-08
1.35715e-08
1.24729e-08
1.14615e-08
1.05305e-08
9.67365e-09
8.88514e-09
8.15963e-09
7.49221e-09
6.87831e-09
6.31373e-09
5.79459e-09
5.31731e-09
4.87858e-09
4.47534e-09
4.1048e-09
3.76434e-09
3.45157e-09
3.1643e-09
2.90048e-09
2.65823e-09
2.43583e-09
2.23168e-09
2.04432e-09
1.87239e-09
1.71464e-09
1.56994e-09
1.43722e-09
1.3155e-09
1.2039e-09
1.1016e-09
1.00782e-09
9.21876e-10
8.43127e-10
7.7098e-10
7.04892e-10
6.44365e-10
5.8894e-10
5.38194e-10
4.91741e-10
4.49224e-10
4.10316e-10
3.74717e-10
3.4215e-10
3.12362e-10
2.85121e-10
2.60213e-10
2.37441e-10
2.16627e-10
1.97605e-10
1.80223e-10
1.64343e-10
1.49837e-10
1.36589e-10
1.24491e-10
1.13447e-10
1.03364e-10
9.41624e-11
8.57654e-11
7.81041e-11
7.11152e-11
6.47409e-11
5.8928e-11
5.3628e-11
4.87965e-11
4.43928e-11
4.03797e-11
3.67232e-11
3.33921e-11
3.03581e-11
2.7595e-11
2.50792e-11
2.27889e-11
2.07042e-11
1.88071e-11
1.70809e-11
1.55104e-11
1.4082e-11
1.2783e-11
1.16018e-11
1.0528e-11
9.55198e-12
8.66497e-12
7.85902e-12
7.12685e-12
6.46181e-12
5.85788e-12
5.30953e-12
4.81174e-12
4.35994e-12
3.94996e-12
3.57799e-12
3.2406e-12
2.93462e-12
2.6572e-12
2.40572e-12
2.17782e-12
1.97134e-12
1.78432e-12
1.61498e-12
1.4617e-12
1.32301e-12
1.19757e-12
1.08418e-12
9.81719e-13
8.89208e-13
8.0574e-13
7.30496e-13
6.62739e-13
6.01801e-13
5.47079e-13
4.9803e-13
4.54168e-13
4.15056e-13
3.80302e-13
3.49557e-13
3.22514e-13
2.98901e-13
2.78478e-13
2.61039e-13
2.46409e-13
2.34438e-13
2.25004e-13
2.1801e-13
2.13382e-13
2.11077e-13
)
;
    }
}


// ************************************************************************* //
