/*--------------------------------*- C++ -*----------------------------------*\
  =========                 |
  \\      /  F ield         | OpenFOAM: The Open Source CFD Toolbox
   \\    /   O peration     | Website:  https://openfoam.org
    \\  /    A nd           | Version:  10
     \\/     M anipulation  |
\*---------------------------------------------------------------------------*/
FoamFile
{
    format      ascii;
    class       volScalarField;
    location    "0.22";
    object      N1;
}
// * * * * * * * * * * * * * * * * * * * * * * * * * * * * * * * * * * * * * //

dimensions      [0 0 0 0 0 0 0];

internalField   nonuniform List<scalar> 
8000
(
0.000147395
0.000441461
0.000733576
0.0010227
0.0013079
0.00158835
0.00186329
0.00213206
0.00239404
0.00264869
0.00289553
0.00313413
0.00336415
0.00358526
0.00379722
0.00399981
0.00419288
0.00437631
0.00455001
0.00471394
0.00486811
0.00501252
0.00514723
0.00527233
0.0053879
0.00549407
0.00559099
0.0056788
0.00575768
0.00582782
0.00588942
0.00594267
0.0059878
0.00602503
0.00605458
0.0060767
0.00609162
0.00609958
0.00610083
0.00609561
0.00608417
0.00606676
0.00604363
0.00601502
0.00598119
0.00594236
0.0058988
0.00585074
0.00579841
0.00574206
0.00568192
0.00561821
0.00555116
0.005481
0.00540793
0.00533218
0.00525396
0.00517346
0.00509088
0.00500643
0.00492028
0.00483264
0.00474366
0.00465353
0.00456242
0.00447049
0.00437789
0.00428478
0.0041913
0.00409759
0.00400379
0.00391002
0.00381642
0.00372309
0.00363015
0.0035377
0.00344585
0.00335468
0.0032643
0.00317478
0.0030862
0.00299863
0.00291216
0.00282683
0.0027427
0.00265984
0.00257829
0.00249809
0.00241929
0.00234192
0.00226602
0.0021916
0.0021187
0.00204734
0.00197753
0.00190928
0.00184261
0.00177753
0.00171403
0.00165212
0.00159179
0.00153305
0.00147588
0.00142028
0.00136623
0.00131373
0.00126276
0.0012133
0.00116533
0.00111884
0.0010738
0.00103019
0.000987989
0.000947172
0.000907713
0.000869587
0.000832767
0.000797226
0.000762936
0.000729869
0.000697996
0.000667288
0.000637717
0.000609254
0.000581869
0.000555533
0.000530217
0.000505892
0.00048253
0.000460101
0.000438577
0.000417931
0.000398135
0.000379161
0.000360982
0.000343572
0.000326905
0.000310955
0.000295698
0.000281108
0.000267161
0.000253835
0.000241106
0.000228951
0.00021735
0.000206279
0.00019572
0.000185652
0.000176054
0.000166909
0.000158197
0.000149901
0.000142004
0.000134489
0.000127339
0.000120539
0.000114074
0.00010793
0.000102091
9.65446e-05
9.12777e-05
8.62777e-05
8.15323e-05
7.70299e-05
7.27592e-05
6.87095e-05
6.48703e-05
6.12318e-05
5.77843e-05
5.45187e-05
5.14263e-05
4.84987e-05
4.57277e-05
4.31056e-05
4.06252e-05
3.82793e-05
3.60613e-05
3.39645e-05
3.1983e-05
3.01109e-05
2.83424e-05
2.66724e-05
2.50956e-05
2.36073e-05
2.22027e-05
2.08776e-05
1.96276e-05
1.84488e-05
1.73374e-05
1.62897e-05
1.53024e-05
1.43721e-05
1.34958e-05
1.26705e-05
1.18934e-05
1.11618e-05
1.04733e-05
9.82536e-06
9.2158e-06
8.64244e-06
8.10325e-06
7.5963e-06
7.11975e-06
6.67187e-06
6.25102e-06
5.85566e-06
5.48431e-06
5.13558e-06
4.80815e-06
4.5008e-06
4.21233e-06
3.94166e-06
3.68771e-06
3.44952e-06
3.22614e-06
3.0167e-06
2.82035e-06
2.63632e-06
2.46387e-06
2.30229e-06
2.15094e-06
2.00918e-06
1.87644e-06
1.75217e-06
1.63584e-06
1.52697e-06
1.4251e-06
1.3298e-06
1.24066e-06
1.15729e-06
1.07934e-06
1.00647e-06
9.38354e-07
8.74699e-07
8.15223e-07
7.59661e-07
7.07765e-07
6.59301e-07
6.14051e-07
5.71809e-07
5.32382e-07
4.95589e-07
4.6126e-07
4.29235e-07
3.99366e-07
3.71512e-07
3.45541e-07
3.21332e-07
2.98767e-07
2.7774e-07
2.58148e-07
2.39897e-07
2.22899e-07
2.0707e-07
1.92332e-07
1.78612e-07
1.65843e-07
1.5396e-07
1.42904e-07
1.3262e-07
1.23054e-07
1.14159e-07
1.05888e-07
9.82004e-08
9.10548e-08
8.44147e-08
7.82454e-08
7.25144e-08
6.71916e-08
6.22488e-08
5.76596e-08
5.33996e-08
4.94457e-08
4.57767e-08
4.23725e-08
3.92148e-08
3.6286e-08
3.35702e-08
3.10522e-08
2.87181e-08
2.65548e-08
2.45502e-08
2.26929e-08
2.09725e-08
1.93792e-08
1.79037e-08
1.65377e-08
1.52732e-08
1.4103e-08
1.30201e-08
1.20183e-08
1.10915e-08
1.02345e-08
9.44198e-09
8.70931e-09
8.03208e-09
7.40619e-09
6.82787e-09
6.29359e-09
5.80009e-09
5.34433e-09
4.92352e-09
4.53503e-09
4.17645e-09
3.84554e-09
3.54021e-09
3.25855e-09
2.99875e-09
2.75918e-09
2.53829e-09
2.33467e-09
2.14699e-09
1.97405e-09
1.81471e-09
1.66794e-09
1.53275e-09
1.40828e-09
1.29367e-09
1.18818e-09
1.09109e-09
1.00176e-09
9.19571e-10
8.43973e-10
7.7445e-10
7.10526e-10
6.51759e-10
5.97744e-10
5.48106e-10
5.02498e-10
4.60601e-10
4.22121e-10
3.86785e-10
3.54342e-10
3.24561e-10
2.97228e-10
2.72148e-10
2.49138e-10
2.28032e-10
2.08676e-10
1.90927e-10
1.74656e-10
1.59743e-10
1.46076e-10
1.33553e-10
1.22082e-10
1.11576e-10
1.01954e-10
9.31459e-11
8.50827e-11
7.77033e-11
7.09508e-11
6.47733e-11
5.91228e-11
5.39554e-11
4.92306e-11
4.49115e-11
4.09639e-11
3.73565e-11
3.40608e-11
3.10503e-11
2.8301e-11
2.57907e-11
2.34991e-11
2.14075e-11
1.9499e-11
1.77579e-11
1.61699e-11
1.47219e-11
1.34018e-11
1.21987e-11
1.11025e-11
1.0104e-11
9.19474e-12
8.36711e-12
7.61405e-12
6.92911e-12
6.30645e-12
5.7407e-12
5.22698e-12
4.76084e-12
4.33823e-12
3.95545e-12
3.60916e-12
3.29631e-12
3.01415e-12
2.76016e-12
2.53211e-12
2.32796e-12
2.14588e-12
1.98425e-12
1.84161e-12
1.71668e-12
1.60833e-12
1.51559e-12
1.4376e-12
1.37368e-12
1.32322e-12
1.28577e-12
1.261e-12
1.24866e-12
0.000148903
0.000446116
0.000741622
0.00103441
0.00132355
0.00160821
0.00188763
0.00216111
0.00242802
0.00268779
0.00293992
0.00318397
0.00341954
0.0036463
0.00386397
0.00407231
0.00427113
0.00446028
0.00463967
0.00480922
0.0049689
0.00511871
0.00525868
0.00538888
0.00550938
0.0056203
0.00572175
0.00581388
0.00589686
0.00597086
0.00603608
0.0060927
0.00614095
0.00618105
0.00621322
0.00623769
0.00625471
0.00626452
0.00626737
0.0062635
0.00625317
0.00623664
0.00621415
0.00618596
0.00615232
0.00611348
0.0060697
0.00602123
0.0059683
0.00591117
0.00585007
0.00578525
0.00571693
0.00564535
0.00557072
0.00549329
0.00541325
0.00533083
0.00524623
0.00515965
0.00507129
0.00498134
0.00488999
0.00479742
0.0047038
0.00460931
0.00451411
0.00441835
0.00432218
0.00422576
0.00412923
0.00403271
0.00393633
0.00384023
0.0037445
0.00364927
0.00355465
0.00346072
0.00336758
0.00327532
0.00318402
0.00309376
0.00300461
0.00291664
0.00282991
0.00274447
0.00266037
0.00257767
0.0024964
0.0024166
0.00233831
0.00226156
0.00218636
0.00211274
0.00204073
0.00197032
0.00190154
0.00183439
0.00176888
0.001705
0.00164276
0.00158215
0.00152316
0.00146579
0.00141002
0.00135585
0.00130325
0.00125221
0.00120271
0.00115473
0.00110825
0.00106325
0.0010197
0.000977573
0.000936851
0.000897505
0.000859505
0.000822826
0.000787437
0.000753309
0.000720415
0.000688723
0.000658203
0.000628827
0.000600563
0.000573382
0.000547254
0.000522148
0.000498036
0.000474887
0.000452672
0.000431363
0.000410931
0.000391347
0.000372585
0.000354616
0.000337413
0.000320951
0.000305203
0.000290145
0.00027575
0.000261996
0.000248857
0.000236312
0.000224337
0.000212911
0.000202013
0.000191621
0.000181715
0.000172275
0.000163284
0.000154721
0.00014657
0.000138813
0.000131434
0.000124415
0.000117742
0.0001114
0.000105374
9.9649e-05
9.42128e-05
8.9052e-05
8.41541e-05
7.95069e-05
7.50989e-05
7.09189e-05
6.69563e-05
6.32008e-05
5.96424e-05
5.62719e-05
5.308e-05
5.00582e-05
4.71981e-05
4.44918e-05
4.19316e-05
3.95103e-05
3.72209e-05
3.50568e-05
3.30115e-05
3.10792e-05
2.92539e-05
2.75301e-05
2.59026e-05
2.43664e-05
2.29167e-05
2.15489e-05
2.02588e-05
1.90421e-05
1.78949e-05
1.68136e-05
1.57945e-05
1.48343e-05
1.39298e-05
1.3078e-05
1.22759e-05
1.15208e-05
1.08101e-05
1.01413e-05
9.51216e-06
8.92036e-06
8.36383e-06
7.84058e-06
7.3487e-06
6.88642e-06
6.45204e-06
6.04397e-06
5.66067e-06
5.30072e-06
4.96277e-06
4.64553e-06
4.34779e-06
4.06841e-06
3.8063e-06
3.56045e-06
3.32989e-06
3.11371e-06
2.91105e-06
2.7211e-06
2.5431e-06
2.37633e-06
2.22011e-06
2.07379e-06
1.93679e-06
1.80851e-06
1.68845e-06
1.57608e-06
1.47093e-06
1.37257e-06
1.28056e-06
1.19451e-06
1.11405e-06
1.03883e-06
9.68529e-07
9.02828e-07
8.41439e-07
7.8409e-07
7.30525e-07
6.80503e-07
6.33798e-07
5.90197e-07
5.49502e-07
5.11526e-07
4.76093e-07
4.43038e-07
4.12208e-07
3.83459e-07
3.56653e-07
3.31665e-07
3.08375e-07
2.86671e-07
2.66449e-07
2.47612e-07
2.30067e-07
2.13729e-07
1.98517e-07
1.84356e-07
1.71176e-07
1.58911e-07
1.475e-07
1.36884e-07
1.27011e-07
1.1783e-07
1.09294e-07
1.01358e-07
9.39829e-08
8.71293e-08
8.07615e-08
7.48463e-08
6.93523e-08
6.42506e-08
5.95138e-08
5.51168e-08
5.10357e-08
4.72487e-08
4.37351e-08
4.04758e-08
3.74529e-08
3.46497e-08
3.20507e-08
2.96416e-08
2.74087e-08
2.53396e-08
2.34227e-08
2.16469e-08
2.00023e-08
1.84794e-08
1.70695e-08
1.57644e-08
1.45565e-08
1.34388e-08
1.24047e-08
1.14482e-08
1.05636e-08
9.74561e-09
8.98938e-09
8.29037e-09
7.64435e-09
7.04743e-09
6.49597e-09
5.9866e-09
5.51619e-09
5.08184e-09
4.68086e-09
4.31075e-09
3.9692e-09
3.65405e-09
3.36333e-09
3.09518e-09
2.84791e-09
2.61992e-09
2.40974e-09
2.21603e-09
2.03753e-09
1.87307e-09
1.72157e-09
1.58204e-09
1.45356e-09
1.33527e-09
1.22639e-09
1.12618e-09
1.03397e-09
9.49141e-10
8.71113e-10
7.99354e-10
7.33374e-10
6.72717e-10
6.16965e-10
5.65731e-10
5.18657e-10
4.75413e-10
4.35695e-10
3.99222e-10
3.65736e-10
3.34998e-10
3.06786e-10
2.80899e-10
2.5715e-10
2.35365e-10
2.15386e-10
1.97067e-10
1.80273e-10
1.64879e-10
1.50773e-10
1.37848e-10
1.26008e-10
1.15163e-10
1.05233e-10
9.61412e-11
8.78187e-11
8.02019e-11
7.32324e-11
6.68562e-11
6.1024e-11
5.56904e-11
5.08137e-11
4.63557e-11
4.22811e-11
3.85578e-11
3.5156e-11
3.20488e-11
2.92111e-11
2.662e-11
2.42547e-11
2.20959e-11
2.01261e-11
1.8329e-11
1.66899e-11
1.51953e-11
1.38327e-11
1.25909e-11
1.14595e-11
1.04289e-11
9.49041e-12
8.63617e-12
7.85888e-12
7.15193e-12
6.50924e-12
5.92529e-12
5.39506e-12
4.91393e-12
4.47773e-12
4.08264e-12
3.72522e-12
3.40231e-12
3.11107e-12
2.84892e-12
2.61353e-12
2.40281e-12
2.21488e-12
2.04805e-12
1.90083e-12
1.77188e-12
1.66005e-12
1.56432e-12
1.48383e-12
1.41785e-12
1.36577e-12
1.32712e-12
1.30154e-12
1.28881e-12
0.00015038
0.000450613
0.00074929
0.00104544
0.00133816
0.00162662
0.00191004
0.00218773
0.00245902
0.00272335
0.00298019
0.00322907
0.00346958
0.00370135
0.00392409
0.00413752
0.00434145
0.00453569
0.00472012
0.00489465
0.00505924
0.00521385
0.0053585
0.00549324
0.00561814
0.00573327
0.00583877
0.00593476
0.00602139
0.00609884
0.00616729
0.00622693
0.00627798
0.00632064
0.00635515
0.00638173
0.00640064
0.00641211
0.0064164
0.00641375
0.00640443
0.00638868
0.00636678
0.00633897
0.00630552
0.00626668
0.00622272
0.00617388
0.00612043
0.00606261
0.00600067
0.00593485
0.0058654
0.00579256
0.00571655
0.00563761
0.00555596
0.00547183
0.00538541
0.00529694
0.0052066
0.0051146
0.00502112
0.00492637
0.00483052
0.00473374
0.0046362
0.00453807
0.00443951
0.00434066
0.00424168
0.00414269
0.00404384
0.00394524
0.00384703
0.00374931
0.0036522
0.00355579
0.00346018
0.00336547
0.00327174
0.00317906
0.00308752
0.00299718
0.00290811
0.00282036
0.00273398
0.00264903
0.00256555
0.00248358
0.00240315
0.0023243
0.00224704
0.00217141
0.00209741
0.00202507
0.0019544
0.0018854
0.00181808
0.00175244
0.00168848
0.00162619
0.00156557
0.00150661
0.0014493
0.00139362
0.00133957
0.00128711
0.00123624
0.00118692
0.00113915
0.0010929
0.00104814
0.00100484
0.000962989
0.000922547
0.00088349
0.000845789
0.000809415
0.000774337
0.000740525
0.00070795
0.00067658
0.000646385
0.000617333
0.000589394
0.000562537
0.000536731
0.000511946
0.000488151
0.000465316
0.000443413
0.00042241
0.00040228
0.000382994
0.000364523
0.00034684
0.000329918
0.000313731
0.000298251
0.000283455
0.000269316
0.000255811
0.000242915
0.000230606
0.000218861
0.000207658
0.000196975
0.000186793
0.00017709
0.000167847
0.000159045
0.000150666
0.000142693
0.000135107
0.000127892
0.000121033
0.000114513
0.000108319
0.000102434
9.6846e-05
9.15409e-05
8.65061e-05
8.1729e-05
7.71978e-05
7.29011e-05
6.88277e-05
6.49672e-05
6.13094e-05
5.78447e-05
5.45636e-05
5.14574e-05
4.85173e-05
4.57354e-05
4.31036e-05
4.06146e-05
3.82612e-05
3.60366e-05
3.39342e-05
3.19479e-05
3.00715e-05
2.82996e-05
2.66266e-05
2.50475e-05
2.35573e-05
2.21513e-05
2.0825e-05
1.95743e-05
1.83951e-05
1.72835e-05
1.6236e-05
1.52489e-05
1.43192e-05
1.34435e-05
1.2619e-05
1.18428e-05
1.11122e-05
1.04248e-05
9.77804e-06
9.1697e-06
8.59762e-06
8.05973e-06
7.55411e-06
7.07891e-06
6.63239e-06
6.21291e-06
5.8189e-06
5.44889e-06
5.10149e-06
4.77538e-06
4.46932e-06
4.18213e-06
3.9127e-06
3.65997e-06
3.42297e-06
3.20074e-06
2.99242e-06
2.79716e-06
2.61419e-06
2.44275e-06
2.28216e-06
2.13176e-06
1.99092e-06
1.85907e-06
1.73564e-06
1.62013e-06
1.51205e-06
1.41093e-06
1.31635e-06
1.2279e-06
1.14519e-06
1.06787e-06
9.95602e-07
9.28064e-07
8.64959e-07
8.06007e-07
7.50945e-07
6.99525e-07
6.51514e-07
6.06695e-07
5.64862e-07
5.25824e-07
4.89401e-07
4.55422e-07
4.23731e-07
3.94177e-07
3.66622e-07
3.40936e-07
3.16995e-07
2.94684e-07
2.73897e-07
2.54533e-07
2.36498e-07
2.19703e-07
2.04066e-07
1.89509e-07
1.75961e-07
1.63353e-07
1.51623e-07
1.40711e-07
1.30561e-07
1.21124e-07
1.12349e-07
1.04191e-07
9.661e-08
8.95648e-08
8.30191e-08
7.69385e-08
7.12909e-08
6.60466e-08
6.11774e-08
5.66574e-08
5.24623e-08
4.85695e-08
4.49576e-08
4.16072e-08
3.84998e-08
3.56182e-08
3.29467e-08
3.04701e-08
2.81749e-08
2.6048e-08
2.40774e-08
2.2252e-08
2.05615e-08
1.8996e-08
1.75467e-08
1.6205e-08
1.49634e-08
1.38144e-08
1.27515e-08
1.17682e-08
1.08589e-08
1.0018e-08
9.24066e-09
8.52211e-09
7.85804e-09
7.24443e-09
6.67756e-09
6.15395e-09
5.67039e-09
5.2239e-09
4.81171e-09
4.43125e-09
4.08015e-09
3.7562e-09
3.45735e-09
3.18171e-09
2.92752e-09
2.69315e-09
2.47711e-09
2.27798e-09
2.09449e-09
1.92543e-09
1.7697e-09
1.62627e-09
1.49419e-09
1.3726e-09
1.26067e-09
1.15766e-09
1.06287e-09
9.75673e-10
8.95464e-10
8.21699e-10
7.53874e-10
6.91522e-10
6.34212e-10
5.81545e-10
5.33155e-10
4.88702e-10
4.47874e-10
4.10382e-10
3.7596e-10
3.44362e-10
3.15362e-10
2.88752e-10
2.64338e-10
2.41944e-10
2.21407e-10
2.02576e-10
1.85312e-10
1.69488e-10
1.54988e-10
1.41701e-10
1.2953e-10
1.18383e-10
1.08175e-10
9.88287e-11
9.02736e-11
8.24439e-11
7.52795e-11
6.87251e-11
6.27299e-11
5.72472e-11
5.22342e-11
4.76515e-11
4.34631e-11
3.96356e-11
3.61388e-11
3.29447e-11
3.00276e-11
2.73642e-11
2.49327e-11
2.27136e-11
2.06887e-11
1.88414e-11
1.71565e-11
1.56201e-11
1.42194e-11
1.29429e-11
1.17798e-11
1.07204e-11
9.75571e-12
8.87759e-12
8.07858e-12
7.35186e-12
6.6912e-12
6.09094e-12
5.54587e-12
5.0513e-12
4.6029e-12
4.19677e-12
3.82936e-12
3.49742e-12
3.19804e-12
2.92856e-12
2.68659e-12
2.46999e-12
2.2768e-12
2.10531e-12
1.95397e-12
1.82142e-12
1.70646e-12
1.60806e-12
1.52532e-12
1.45749e-12
1.40396e-12
1.36422e-12
1.33792e-12
1.32483e-12
0.000151763
0.000454799
0.000756377
0.00105557
0.00135149
0.00164331
0.00193027
0.00221166
0.00248681
0.00275514
0.0030161
0.0032692
0.00351402
0.00375018
0.00397735
0.00419524
0.00440362
0.00460231
0.00479116
0.00497006
0.00513893
0.00529774
0.0054465
0.00558522
0.00571396
0.0058328
0.00594184
0.00604121
0.00613106
0.00621154
0.00628283
0.00634512
0.00639862
0.00644354
0.00648012
0.00650857
0.00652914
0.00654208
0.00654763
0.00654606
0.00653763
0.00652259
0.0065012
0.00647374
0.00644046
0.00640163
0.00635752
0.00630837
0.00625446
0.00619604
0.00613336
0.00606668
0.00599624
0.00592229
0.00584507
0.00576481
0.00568175
0.00559611
0.0055081
0.00541796
0.00532588
0.00523207
0.00513673
0.00504006
0.00494223
0.00484344
0.00474385
0.00464364
0.00454296
0.00444198
0.00434083
0.00423968
0.00413864
0.00403786
0.00393745
0.00383754
0.00373823
0.00363964
0.00354186
0.00344498
0.0033491
0.0032543
0.00316065
0.00306822
0.00297708
0.00288729
0.00279891
0.00271198
0.00262655
0.00254266
0.00246034
0.00237964
0.00230057
0.00222315
0.00214741
0.00207337
0.00200102
0.00193039
0.00186148
0.00179428
0.00172881
0.00166504
0.00160298
0.00154262
0.00148395
0.00142695
0.0013716
0.0013179
0.00126581
0.00121533
0.00116642
0.00111906
0.00107323
0.0010289
0.000986047
0.000944639
0.000904649
0.000866047
0.000828803
0.000792886
0.000758266
0.000724912
0.000692792
0.000661874
0.000632127
0.000603519
0.000576019
0.000549595
0.000524217
0.000499852
0.000476471
0.000454042
0.000432537
0.000411924
0.000392176
0.000373262
0.000355156
0.000337829
0.000321253
0.000305403
0.000290252
0.000275774
0.000261945
0.00024874
0.000236136
0.00022411
0.000212638
0.000201699
0.000191272
0.000181337
0.000171872
0.000162859
0.00015428
0.000146115
0.000138347
0.00013096
0.000123936
0.00011726
0.000110916
0.000104891
9.91687e-05
9.37365e-05
8.85809e-05
8.36893e-05
7.90494e-05
7.46496e-05
7.04785e-05
6.65254e-05
6.27799e-05
5.92321e-05
5.58723e-05
5.26916e-05
4.9681e-05
4.68323e-05
4.41375e-05
4.15888e-05
3.91789e-05
3.6901e-05
3.47482e-05
3.27141e-05
3.07928e-05
2.89784e-05
2.72653e-05
2.56483e-05
2.41223e-05
2.26826e-05
2.13245e-05
2.00438e-05
1.88363e-05
1.76981e-05
1.66254e-05
1.56147e-05
1.46626e-05
1.3766e-05
1.29217e-05
1.21268e-05
1.13788e-05
1.06748e-05
1.00126e-05
9.38964e-06
8.80383e-06
8.25305e-06
7.7353e-06
7.2487e-06
6.79147e-06
6.36192e-06
5.95846e-06
5.57958e-06
5.22385e-06
4.88992e-06
4.57652e-06
4.28244e-06
4.00654e-06
3.74776e-06
3.50507e-06
3.27751e-06
3.06419e-06
2.86425e-06
2.67689e-06
2.50134e-06
2.3369e-06
2.18289e-06
2.03868e-06
1.90366e-06
1.77727e-06
1.65899e-06
1.54832e-06
1.44477e-06
1.34792e-06
1.25735e-06
1.17266e-06
1.09348e-06
1.01948e-06
9.50323e-07
8.85705e-07
8.2534e-07
7.68957e-07
7.16303e-07
6.6714e-07
6.21246e-07
5.7841e-07
5.38436e-07
5.01139e-07
4.66345e-07
4.33894e-07
4.03632e-07
3.75416e-07
3.49113e-07
3.24598e-07
3.01752e-07
2.80467e-07
2.60638e-07
2.4217e-07
2.24972e-07
2.0896e-07
1.94054e-07
1.80181e-07
1.67271e-07
1.55259e-07
1.44085e-07
1.33693e-07
1.24029e-07
1.15043e-07
1.0669e-07
9.89272e-08
9.1713e-08
8.50102e-08
7.87838e-08
7.30008e-08
6.76306e-08
6.26447e-08
5.80163e-08
5.37206e-08
4.97344e-08
4.60359e-08
4.26051e-08
3.94232e-08
3.64725e-08
3.37369e-08
3.12009e-08
2.88506e-08
2.66727e-08
2.46549e-08
2.27857e-08
2.10546e-08
1.94516e-08
1.79675e-08
1.65937e-08
1.53223e-08
1.41458e-08
1.30573e-08
1.20505e-08
1.11193e-08
1.02583e-08
9.46229e-09
8.7265e-09
8.04651e-09
7.41818e-09
6.83771e-09
6.30154e-09
5.80639e-09
5.34919e-09
4.92711e-09
4.53753e-09
4.17801e-09
3.84629e-09
3.54027e-09
3.25802e-09
2.99773e-09
2.75774e-09
2.53652e-09
2.33262e-09
2.14472e-09
1.97161e-09
1.81214e-09
1.66527e-09
1.53003e-09
1.40552e-09
1.29091e-09
1.18542e-09
1.08837e-09
9.99073e-10
9.1694e-10
8.41407e-10
7.71955e-10
7.08107e-10
6.49422e-10
5.95493e-10
5.45942e-10
5.00423e-10
4.58616e-10
4.20225e-10
3.84977e-10
3.52621e-10
3.22926e-10
2.95677e-10
2.70678e-10
2.47747e-10
2.26717e-10
2.07434e-10
1.89756e-10
1.73553e-10
1.58705e-10
1.451e-10
1.32637e-10
1.21222e-10
1.10769e-10
1.01199e-10
9.24387e-11
8.44212e-11
7.7085e-11
7.03734e-11
6.42343e-11
5.86202e-11
5.34869e-11
4.87944e-11
4.45054e-11
4.05862e-11
3.70055e-11
3.37348e-11
3.07478e-11
2.80204e-11
2.55307e-11
2.32583e-11
2.11849e-11
1.92932e-11
1.75679e-11
1.59947e-11
1.45605e-11
1.32533e-11
1.20623e-11
1.09775e-11
9.98968e-12
9.0905e-12
8.27232e-12
7.52817e-12
6.85168e-12
6.23701e-12
5.67888e-12
5.17244e-12
4.71329e-12
4.29742e-12
3.92119e-12
3.5813e-12
3.27474e-12
2.99879e-12
2.75103e-12
2.52922e-12
2.3314e-12
2.1558e-12
2.00083e-12
1.8651e-12
1.74738e-12
1.64662e-12
1.5619e-12
1.49245e-12
1.43763e-12
1.39695e-12
1.37002e-12
1.35661e-12
0.000153005
0.000458549
0.000762702
0.00106457
0.00136328
0.00165803
0.00194805
0.00223262
0.00251109
0.00278285
0.00304735
0.00330408
0.0035526
0.00379251
0.00402347
0.00424518
0.00445739
0.00465989
0.00485251
0.00503515
0.0052077
0.00537011
0.00552238
0.00566452
0.00579656
0.00591858
0.00603067
0.00613295
0.00622555
0.00630864
0.00638238
0.00644695
0.00650257
0.00654944
0.00658779
0.00661785
0.00663986
0.00665406
0.00666072
0.00666009
0.00665242
0.00663799
0.00661706
0.0065899
0.00655678
0.00651796
0.00647371
0.00642431
0.00637001
0.00631108
0.00624777
0.00618035
0.00610906
0.00603416
0.0059559
0.00587451
0.00579023
0.00570329
0.00561392
0.00552234
0.00542876
0.0053334
0.00523646
0.00513813
0.00503861
0.00493808
0.00483673
0.00473472
0.00463222
0.00452939
0.00442639
0.00432336
0.00422044
0.00411776
0.00401547
0.00391366
0.00381247
0.00371199
0.00361234
0.0035136
0.00341586
0.00331922
0.00322375
0.00312952
0.00303661
0.00294506
0.00285494
0.0027663
0.00267919
0.00259364
0.0025097
0.0024274
0.00234676
0.00226781
0.00219057
0.00211505
0.00204126
0.00196923
0.00189894
0.0018304
0.00176361
0.00169857
0.00163527
0.0015737
0.00151385
0.00145571
0.00139925
0.00134447
0.00129134
0.00123984
0.00118995
0.00114164
0.00109489
0.00104967
0.00100595
0.000963707
0.000922912
0.000883532
0.000845538
0.000808897
0.00077358
0.000739553
0.000706785
0.000675243
0.000644896
0.000615711
0.000587656
0.000560699
0.000534808
0.000509952
0.000486099
0.000463217
0.000441277
0.000420249
0.000400101
0.000380806
0.000362334
0.000344657
0.000327746
0.000311576
0.000296119
0.000281348
0.00026724
0.000253768
0.00024091
0.00022864
0.000216936
0.000205776
0.000195139
0.000185002
0.000175347
0.000166152
0.000157399
0.000149069
0.000141144
0.000133607
0.000126441
0.000119631
0.000113159
0.000107011
0.000101174
9.56316e-05
9.03718e-05
8.53813e-05
8.06476e-05
7.61588e-05
7.19035e-05
6.78704e-05
6.40492e-05
6.04296e-05
5.7002e-05
5.37569e-05
5.06855e-05
4.77792e-05
4.50298e-05
4.24296e-05
3.99711e-05
3.7647e-05
3.54507e-05
3.33756e-05
3.14154e-05
2.95643e-05
2.78166e-05
2.61668e-05
2.461e-05
2.31412e-05
2.17557e-05
2.04491e-05
1.92171e-05
1.80559e-05
1.69615e-05
1.59304e-05
1.49591e-05
1.40443e-05
1.31829e-05
1.2372e-05
1.16088e-05
1.08907e-05
1.0215e-05
9.57948e-06
8.98183e-06
8.41991e-06
7.89169e-06
7.39526e-06
6.92878e-06
6.49055e-06
6.07893e-06
5.69239e-06
5.32947e-06
4.98879e-06
4.66905e-06
4.36902e-06
4.08755e-06
3.82353e-06
3.57593e-06
3.34378e-06
3.12614e-06
2.92216e-06
2.73101e-06
2.55191e-06
2.38415e-06
2.22702e-06
2.07989e-06
1.94215e-06
1.81321e-06
1.69253e-06
1.57962e-06
1.47398e-06
1.37517e-06
1.28277e-06
1.19637e-06
1.11559e-06
1.04009e-06
9.69537e-07
9.03612e-07
8.42026e-07
7.84503e-07
7.30785e-07
6.80629e-07
6.33806e-07
5.90104e-07
5.49322e-07
5.11271e-07
4.75774e-07
4.42666e-07
4.11792e-07
3.83006e-07
3.56171e-07
3.3116e-07
3.07853e-07
2.86137e-07
2.65908e-07
2.47066e-07
2.29521e-07
2.13185e-07
1.97978e-07
1.83824e-07
1.70653e-07
1.58398e-07
1.46999e-07
1.36396e-07
1.26536e-07
1.17369e-07
1.08847e-07
1.00927e-07
9.35672e-08
8.67289e-08
8.03766e-08
7.44767e-08
6.8998e-08
6.39112e-08
5.91893e-08
5.48067e-08
5.07399e-08
4.69667e-08
4.34665e-08
4.02202e-08
3.72099e-08
3.44189e-08
3.18317e-08
2.94339e-08
2.7212e-08
2.51533e-08
2.32464e-08
2.14803e-08
1.98449e-08
1.83308e-08
1.69292e-08
1.56321e-08
1.44318e-08
1.33213e-08
1.22941e-08
1.13441e-08
1.04657e-08
9.65359e-09
8.90293e-09
8.20919e-09
7.56816e-09
6.97595e-09
6.42894e-09
5.92378e-09
5.45733e-09
5.02672e-09
4.62927e-09
4.26248e-09
3.92405e-09
3.61184e-09
3.32388e-09
3.05833e-09
2.8135e-09
2.5878e-09
2.37977e-09
2.18808e-09
2.01147e-09
1.84878e-09
1.69894e-09
1.56096e-09
1.43393e-09
1.317e-09
1.20939e-09
1.11037e-09
1.01927e-09
9.35478e-10
8.58417e-10
7.87561e-10
7.22423e-10
6.62552e-10
6.07532e-10
5.56979e-10
5.1054e-10
4.67888e-10
4.2872e-10
3.9276e-10
3.5975e-10
3.29454e-10
3.01654e-10
2.7615e-10
2.52755e-10
2.313e-10
2.11628e-10
1.93593e-10
1.77062e-10
1.61913e-10
1.48033e-10
1.35318e-10
1.23673e-10
1.13008e-10
1.03245e-10
9.43075e-11
8.61279e-11
7.86434e-11
7.17961e-11
6.55329e-11
5.98053e-11
5.45682e-11
4.97808e-11
4.54052e-11
4.14067e-11
3.77537e-11
3.44168e-11
3.13694e-11
2.85869e-11
2.60468e-11
2.37285e-11
2.16131e-11
1.96833e-11
1.79231e-11
1.6318e-11
1.48548e-11
1.35213e-11
1.23062e-11
1.11994e-11
1.01916e-11
9.27428e-12
8.43956e-12
7.68037e-12
6.99019e-12
6.3631e-12
5.79368e-12
5.27701e-12
4.80857e-12
4.3843e-12
4.00046e-12
3.6537e-12
3.34094e-12
3.05942e-12
2.80664e-12
2.58035e-12
2.37853e-12
2.19938e-12
2.04127e-12
1.9028e-12
1.78271e-12
1.67991e-12
1.59348e-12
1.52262e-12
1.4667e-12
1.4252e-12
1.39772e-12
1.38404e-12
0.000154076
0.000461778
0.000768137
0.00107228
0.00137336
0.00167057
0.00196316
0.00225041
0.00253166
0.00280628
0.00307372
0.00333347
0.00358507
0.00382811
0.00406223
0.00428712
0.00450251
0.00470818
0.00490396
0.00508971
0.00526533
0.00543075
0.00558595
0.00573093
0.00586573
0.0059904
0.00610504
0.00620974
0.00630465
0.00638991
0.00646569
0.00653218
0.00658957
0.00663807
0.00667791
0.00670931
0.00673253
0.0067478
0.00675538
0.00675553
0.00674851
0.0067346
0.00671405
0.00668715
0.00665416
0.00661535
0.006571
0.00652138
0.00646676
0.0064074
0.00634357
0.00627554
0.00620354
0.00612786
0.00604872
0.00596639
0.00588109
0.00579307
0.00570256
0.00560978
0.00551495
0.00541829
0.00532
0.00522029
0.00511935
0.00501737
0.00491454
0.00481102
0.004707
0.00460263
0.00449807
0.00439347
0.00428898
0.00418473
0.00408084
0.00397745
0.00387468
0.00377262
0.0036714
0.0035711
0.00347181
0.00337363
0.00327664
0.0031809
0.00308649
0.00299347
0.0029019
0.00281183
0.00272331
0.00263638
0.00255107
0.00246743
0.00238548
0.00230524
0.00222674
0.00214998
0.00207499
0.00200177
0.00193033
0.00186067
0.00179279
0.00172668
0.00166234
0.00159976
0.00153892
0.00147982
0.00142243
0.00136675
0.00131274
0.00126039
0.00120967
0.00116056
0.00111304
0.00106707
0.00102263
0.000979691
0.000938221
0.000898189
0.000859566
0.000822319
0.000786416
0.000751825
0.000718514
0.00068645
0.0006556
0.000625931
0.000597411
0.000570007
0.000543687
0.000518418
0.000494169
0.000470908
0.000448604
0.000427227
0.000406745
0.00038713
0.000368351
0.00035038
0.000333189
0.00031675
0.000301036
0.000286021
0.000271678
0.000257983
0.000244911
0.000232437
0.000220539
0.000209194
0.00019838
0.000188075
0.000178259
0.000168912
0.000160013
0.000151545
0.000143489
0.000135827
0.000128542
0.000121618
0.000115039
0.000108789
0.000102854
9.72202e-05
9.1873e-05
8.67996e-05
8.19873e-05
7.7424e-05
7.30979e-05
6.89979e-05
6.51132e-05
6.14335e-05
5.79489e-05
5.46499e-05
5.15275e-05
4.85729e-05
4.57779e-05
4.31345e-05
4.06351e-05
3.82725e-05
3.60396e-05
3.393e-05
3.19373e-05
3.00554e-05
2.82787e-05
2.66015e-05
2.50189e-05
2.35256e-05
2.21171e-05
2.07888e-05
1.95364e-05
1.83559e-05
1.72433e-05
1.6195e-05
1.52076e-05
1.42776e-05
1.34019e-05
1.25776e-05
1.18017e-05
1.10716e-05
1.03847e-05
9.73863e-06
9.13105e-06
8.55979e-06
8.0228e-06
7.51811e-06
7.04389e-06
6.59838e-06
6.17992e-06
5.78696e-06
5.41801e-06
5.07167e-06
4.74662e-06
4.44161e-06
4.15546e-06
3.88705e-06
3.63534e-06
3.39933e-06
3.17808e-06
2.97071e-06
2.77638e-06
2.59431e-06
2.42376e-06
2.26402e-06
2.11445e-06
1.97441e-06
1.84333e-06
1.72065e-06
1.60586e-06
1.49847e-06
1.39802e-06
1.30408e-06
1.21624e-06
1.13413e-06
1.05737e-06
9.85644e-07
9.18624e-07
8.56015e-07
7.97536e-07
7.42925e-07
6.91936e-07
6.44336e-07
5.99908e-07
5.58448e-07
5.19764e-07
4.83678e-07
4.5002e-07
4.18633e-07
3.89369e-07
3.62088e-07
3.36662e-07
3.12967e-07
2.90891e-07
2.70325e-07
2.51171e-07
2.33334e-07
2.16726e-07
2.01267e-07
1.86878e-07
1.73488e-07
1.6103e-07
1.49441e-07
1.38662e-07
1.28638e-07
1.19319e-07
1.10656e-07
1.02604e-07
9.51216e-08
8.81697e-08
8.17119e-08
7.57139e-08
7.01442e-08
6.4973e-08
6.01726e-08
5.57172e-08
5.15828e-08
4.77469e-08
4.41886e-08
4.08884e-08
3.78281e-08
3.49907e-08
3.23606e-08
2.99229e-08
2.7664e-08
2.55712e-08
2.36326e-08
2.18371e-08
2.01745e-08
1.86353e-08
1.72104e-08
1.58917e-08
1.46715e-08
1.35426e-08
1.24983e-08
1.15326e-08
1.06396e-08
9.81396e-09
9.05083e-09
8.34556e-09
7.69388e-09
7.09184e-09
6.53574e-09
6.02218e-09
5.54799e-09
5.11023e-09
4.70617e-09
4.33329e-09
3.98923e-09
3.67184e-09
3.3791e-09
3.10914e-09
2.86024e-09
2.63079e-09
2.41931e-09
2.22443e-09
2.04488e-09
1.87949e-09
1.72716e-09
1.58689e-09
1.45775e-09
1.33888e-09
1.22948e-09
1.12882e-09
1.0362e-09
9.51018e-10
8.72677e-10
8.00645e-10
7.34424e-10
6.73558e-10
6.17624e-10
5.66232e-10
5.19021e-10
4.7566e-10
4.35842e-10
3.99284e-10
3.65726e-10
3.34927e-10
3.06666e-10
2.80737e-10
2.56954e-10
2.35143e-10
2.15143e-10
1.96809e-10
1.80003e-10
1.64603e-10
1.50492e-10
1.37566e-10
1.25727e-10
1.14886e-10
1.0496e-10
9.58741e-11
8.75587e-11
7.99498e-11
7.29887e-11
6.66216e-11
6.07988e-11
5.54748e-11
5.06078e-11
4.61595e-11
4.20946e-11
3.83808e-11
3.49885e-11
3.18905e-11
2.90618e-11
2.64795e-11
2.41227e-11
2.19722e-11
2.00102e-11
1.82208e-11
1.65891e-11
1.51016e-11
1.37459e-11
1.25106e-11
1.13855e-11
1.03609e-11
9.42834e-12
8.57976e-12
7.80795e-12
7.10631e-12
6.46881e-12
5.88993e-12
5.36467e-12
4.88845e-12
4.45713e-12
4.06692e-12
3.71439e-12
3.39644e-12
3.11024e-12
2.85326e-12
2.62322e-12
2.41804e-12
2.23591e-12
2.07518e-12
1.93441e-12
1.81232e-12
1.70782e-12
1.61995e-12
1.54792e-12
1.49107e-12
1.44888e-12
1.42094e-12
1.40704e-12
0.000154955
0.000464426
0.000772586
0.00107858
0.00138158
0.00168079
0.00197545
0.00226484
0.00254831
0.00282524
0.00309504
0.00335721
0.00361127
0.00385681
0.00409346
0.00432089
0.00453882
0.00474704
0.00494533
0.00513357
0.00531164
0.00547946
0.00563701
0.00578427
0.00592127
0.00604807
0.00616475
0.0062714
0.00636815
0.00645516
0.00653258
0.0066006
0.00665941
0.00670922
0.00675025
0.00678274
0.00680692
0.00682305
0.00683137
0.00683215
0.00682566
0.00681216
0.00679193
0.00676523
0.00673235
0.00669356
0.00664913
0.00659935
0.00654447
0.00648477
0.00642052
0.00635199
0.00627944
0.00620311
0.00612328
0.00604019
0.00595408
0.00586519
0.00577376
0.00568002
0.00558419
0.00548649
0.00538712
0.0052863
0.00518422
0.00508108
0.00497706
0.00487234
0.00476709
0.00466149
0.00455568
0.00444982
0.00434406
0.00423854
0.00413338
0.00402872
0.00392467
0.00382135
0.00371886
0.00361731
0.00351678
0.00341736
0.00331914
0.0032222
0.00312659
0.00303239
0.00293965
0.00284843
0.00275877
0.00267072
0.00258433
0.00249961
0.0024166
0.00233533
0.00225581
0.00217806
0.0021021
0.00202794
0.00195557
0.001885
0.00181624
0.00174927
0.00168409
0.0016207
0.00155907
0.0014992
0.00144106
0.00138465
0.00132994
0.0012769
0.00122552
0.00117578
0.00112763
0.00108106
0.00103604
0.000992539
0.000950526
0.000909971
0.000870842
0.000833107
0.000796734
0.00076169
0.000727943
0.000695458
0.000664204
0.000634146
0.000605252
0.000577489
0.000550824
0.000525224