/*--------------------------------*- C++ -*----------------------------------*\
  =========                 |
  \\      /  F ield         | OpenFOAM: The Open Source CFD Toolbox
   \\    /   O peration     | Website:  https://openfoam.org
    \\  /    A nd           | Version:  10
     \\/     M anipulation  |
\*---------------------------------------------------------------------------*/
FoamFile
{
    format      ascii;
    class       volScalarField;
    location    "0.24";
    object      beta;
}
// * * * * * * * * * * * * * * * * * * * * * * * * * * * * * * * * * * * * * //

dimensions      [0 0 0 0 0 0 0];

internalField   uniform 0;

boundaryField
{
    frontAndBack
    {
        type            empty;
    }
    inlet
    {
        type            calculated;
        value           uniform 0;
    }
    outlet
    {
        type            calculated;
        value           uniform 0;
    }
    substrate
    {
        type            calculated;
        value           nonuniform List<scalar> 
400
(
0.00265333
0.00287595
0.00308688
0.00329153
0.00349244
0.00369088
0.00388744
0.00408237
0.00427569
0.00446729
0.004657
0.00484458
0.00502978
0.00521234
0.00539198
0.00556845
0.00574152
0.00591097
0.00607658
0.00623821
0.00639568
0.00654888
0.00669771
0.00684208
0.00698195
0.00711729
0.00724807
0.00737431
0.00749603
0.00761326
0.00772605
0.00783448
0.00793861
0.00803853
0.00813433
0.0082261
0.00831396
0.008398
0.00847835
0.0085551
0.00862839
0.00869833
0.00876503
0.00882861
0.00888919
0.00894688
0.0090018
0.00905405
0.00910375
0.00915101
0.00919593
0.0092386
0.00927914
0.00931763
0.00935417
0.00938884
0.00942174
0.00945294
0.00948253
0.00951058
0.00953718
0.00956238
0.00958625
0.00960887
0.0096303
0.00965059
0.0096698
0.00968799
0.0097052
0.00972149
0.00973691
0.0097515
0.0097653
0.00977835
0.0097907
0.00980237
0.00981341
0.00982385
0.00983372
0.00984305
0.00985187
0.0098602
0.00986808
0.00987552
0.00988255
0.0098892
0.00989547
0.0099014
0.009907
0.00991229
0.00991729
0.009922
0.00992646
0.00993066
0.00993463
0.00993838
0.00994192
0.00994525
0.00994841
0.00995138
0.00995419
0.00995683
0.00995933
0.00996169
0.00996391
0.00996601
0.00996799
0.00996985
0.00997161
0.00997327
0.00997483
0.00997631
0.0099777
0.00997901
0.00998024
0.00998141
0.00998251
0.00998354
0.00998451
0.00998543
0.0099863
0.00998711
0.00998788
0.0099886
0.00998928
0.00998992
0.00999053
0.0099911
0.00999163
0.00999213
0.00999261
0.00999306
0.00999347
0.00999387
0.00999424
0.00999459
0.00999492
0.00999523
0.00999552
0.0099958
0.00999605
0.00999629
0.00999652
0.00999674
0.00999694
0.00999713
0.0099973
0.00999747
0.00999763
0.00999778
0.00999791
0.00999804
0.00999817
0.00999828
0.00999839
0.00999849
0.00999858
0.00999867
0.00999876
0.00999884
0.00999891
0.00999898
0.00999904
0.0099991
0.00999916
0.00999921
0.00999927
0.00999931
0.00999936
0.0099994
0.00999944
0.00999947
0.00999951
0.00999954
0.00999957
0.0099996
0.00999962
0.00999965
0.00999967
0.00999969
0.00999971
0.00999973
0.00999975
0.00999977
0.00999978
0.00999979
0.00999981
0.00999982
0.00999983
0.00999984
0.00999985
0.00999986
0.00999987
0.00999988
0.00999989
0.0099999
0.0099999
0.00999991
0.00999992
0.00999992
0.00999993
0.00999993
0.00999994
0.00999994
0.00999995
0.00999995
0.00999995
0.00999996
0.00999996
0.00999996
0.00999996
0.00999997
0.00999997
0.00999997
0.00999997
0.00999997
0.00999998
0.00999998
0.00999998
0.00999998
0.00999998
0.00999998
0.00999998
0.00999999
0.00999999
0.00999999
0.00999999
0.00999999
0.00999999
0.00999999
0.00999999
0.00999999
0.00999999
0.00999999
0.00999999
0.00999999
0.00999999
0.01
0.01
0.01
0.01
0.01
0.01
0.01
0.01
0.01
0.01
0.01
0.01
0.01
0.01
0.01
0.01
0.01
0.01
0.01
0.01
0.01
0.01
0.01
0.01
0.01
0.01
0.01
0.01
0.01
0.01
0.01
0.01
0.01
0.01
0.01
0.01
0.01
0.01
0.01
0.01
0.01
0.01
0.01
0.01
0.01
0.01
0.01
0.01
0.01
0.01
0.01
0.01
0.01
0.01
0.01
0.01
0.01
0.01
0.01
0.01
0.01
0.01
0.01
0.01
0.01
0.01
0.01
0.01
0.01
0.01
0.01
0.01
0.01
0.01
0.01
0.01
0.01
0.01
0.01
0.01
0.01
0.01
0.01
0.01
0.01
0.01
0.01
0.01
0.01
0.01
0.01
0.01
0.01
0.01
0.01
0.01
0.01
0.01
0.01
0.01
0.01
0.01
0.01
0.01
0.01
0.01
0.01
0.01
0.01
0.01
0.01
0.01
0.01
0.01
0.01
0.01
0.01
0.01
0.01
0.01
0.01
0.01
0.01
0.01
0.01
0.01
0.01
0.01
0.01
0.01
0.01
0.01
0.01
0.01
0.01
0.01
0.01
0.01
0.01
0.01
0.01
0.01
0.01
0.01
0.01
0.01
0.01
0.01
0.01
0.01
0.01
0.01
0.01
0.01
0.01
0.01
0.01
0.01
0.01
0.01
0.01
0.01
0.01
)
;
    }
    Wall
    {
        type            calculated;
        value           nonuniform List<scalar> 
400
(
0.00265333
0.00287595
0.00308688
0.00329152
0.00349244
0.00369088
0.00388745
0.00408237
0.00427569
0.00446729
0.004657
0.00484458
0.00502978
0.00521233
0.00539197
0.00556844
0.00574151
0.00591095
0.00607656
0.00623818
0.00639565
0.00654885
0.00669767
0.00684204
0.00698191
0.00711725
0.00724803
0.00737426
0.00749598
0.00761321
0.00772601
0.00783443
0.00793856
0.00803848
0.00813428
0.00822605
0.00831391
0.00839795
0.0084783
0.00855505
0.00862834
0.00869828
0.00876498
0.00882856
0.00888914
0.00894683
0.00900175
0.00905401
0.00910371
0.00915097
0.00919589
0.00923857
0.0092791
0.00931759
0.00935413
0.00938881
0.00942171
0.00945291
0.0094825
0.00951056
0.00953715
0.00956235
0.00958623
0.00960885
0.00963028
0.00965057
0.00966978
0.00968797
0.00970518
0.00972148
0.00973689
0.00975148
0.00976528
0.00977834
0.00979068
0.00980236
0.0098134
0.00982384
0.00983371
0.00984304
0.00985186
0.0098602
0.00986807
0.00987551
0.00988255
0.00988919
0.00989547
0.0099014
0.009907
0.00991229
0.00991728
0.009922
0.00992645
0.00993066
0.00993463
0.00993838
0.00994191
0.00994525
0.0099484
0.00995138
0.00995418
0.00995683
0.00995933
0.00996169
0.00996391
0.00996601
0.00996798
0.00996985
0.00997161
0.00997327
0.00997483
0.00997631
0.0099777
0.00997901
0.00998024
0.00998141
0.00998251
0.00998354
0.00998451
0.00998543
0.0099863
0.00998711
0.00998788
0.0099886
0.00998928
0.00998992
0.00999053
0.0099911
0.00999163
0.00999213
0.00999261
0.00999305
0.00999347
0.00999387
0.00999424
0.00999459
0.00999492
0.00999523
0.00999552
0.0099958
0.00999605
0.00999629
0.00999652
0.00999674
0.00999694
0.00999713
0.0099973
0.00999747
0.00999763
0.00999778
0.00999791
0.00999804
0.00999817
0.00999828
0.00999839
0.00999849
0.00999858
0.00999867
0.00999876
0.00999884
0.00999891
0.00999898
0.00999904
0.0099991
0.00999916
0.00999921
0.00999927
0.00999931
0.00999936
0.0099994
0.00999944
0.00999947
0.00999951
0.00999954
0.00999957
0.0099996
0.00999962
0.00999965
0.00999967
0.00999969
0.00999971
0.00999973
0.00999975
0.00999977
0.00999978
0.00999979
0.00999981
0.00999982
0.00999983
0.00999984
0.00999985
0.00999986
0.00999987
0.00999988
0.00999989
0.0099999
0.0099999
0.00999991
0.00999992
0.00999992
0.00999993
0.00999993
0.00999994
0.00999994
0.00999995
0.00999995
0.00999995
0.00999996
0.00999996
0.00999996
0.00999996
0.00999997
0.00999997
0.00999997
0.00999997
0.00999997
0.00999998
0.00999998
0.00999998
0.00999998
0.00999998
0.00999998
0.00999998
0.00999999
0.00999999
0.00999999
0.00999999
0.00999999
0.00999999
0.00999999
0.00999999
0.00999999
0.00999999
0.00999999
0.00999999
0.00999999
0.00999999
0.01
0.01
0.01
0.01
0.01
0.01
0.01
0.01
0.01
0.01
0.01
0.01
0.01
0.01
0.01
0.01
0.01
0.01
0.01
0.01
0.01
0.01
0.01
0.01
0.01
0.01
0.01
0.01
0.01
0.01
0.01
0.01
0.01
0.01
0.01
0.01
0.01
0.01
0.01
0.01
0.01
0.01
0.01
0.01
0.01
0.01
0.01
0.01
0.01
0.01
0.01
0.01
0.01
0.01
0.01
0.01
0.01
0.01
0.01
0.01
0.01
0.01
0.01
0.01
0.01
0.01
0.01
0.01
0.01
0.01
0.01
0.01
0.01
0.01
0.01
0.01
0.01
0.01
0.01
0.01
0.01
0.01
0.01
0.01
0.01
0.01
0.01
0.01
0.01
0.01
0.01
0.01
0.01
0.01
0.01
0.01
0.01
0.01
0.01
0.01
0.01
0.01
0.01
0.01
0.01
0.01
0.01
0.01
0.01
0.01
0.01
0.01
0.01
0.01
0.01
0.01
0.01
0.01
0.01
0.01
0.01
0.01
0.01
0.01
0.01
0.01
0.01
0.01
0.01
0.01
0.01
0.01
0.01
0.01
0.01
0.01
0.01
0.01
0.01
0.01
0.01
0.01
0.01
0.01
0.01
0.01
0.01
0.01
0.01
0.01
0.01
0.01
0.01
0.01
0.01
0.01
0.01
0.01
0.01
0.01
0.01
0.01
0.01
)
;
    }
}


// ************************************************************************* //
