/*--------------------------------*- C++ -*----------------------------------*\
  =========                 |
  \\      /  F ield         | OpenFOAM: The Open Source CFD Toolbox
   \\    /   O peration     | Website:  https://openfoam.org
    \\  /    A nd           | Version:  10
     \\/     M anipulation  |
\*---------------------------------------------------------------------------*/
FoamFile
{
    format      ascii;
    class       volScalarField;
    location    "0.24";
    object      cov;
}
// * * * * * * * * * * * * * * * * * * * * * * * * * * * * * * * * * * * * * //

dimensions      [0 0 0 0 0 0 0];

internalField   uniform 0;

boundaryField
{
    frontAndBack
    {
        type            empty;
    }
    inlet
    {
        type            calculated;
        value           uniform 0;
    }
    outlet
    {
        type            calculated;
        value           uniform 0;
    }
    substrate
    {
        type            calculated;
        value           nonuniform List<scalar> 
400
(
0.734667
0.712405
0.691312
0.670847
0.650756
0.630912
0.611256
0.591763
0.572431
0.553271
0.5343
0.515542
0.497022
0.478766
0.460802
0.443155
0.425848
0.408903
0.392342
0.376179
0.360432
0.345112
0.330229
0.315792
0.301805
0.288271
0.275193
0.262569
0.250397
0.238674
0.227395
0.216552
0.206139
0.196147
0.186567
0.17739
0.168604
0.1602
0.152165
0.14449
0.137161
0.130167
0.123497
0.117139
0.111081
0.105312
0.0998204
0.0945948
0.0896245
0.0848988
0.0804072
0.0761396
0.0720861
0.0682372
0.0645835
0.0611161
0.0578264
0.054706
0.051747
0.0489416
0.0462824
0.0437624
0.0413746
0.0391126
0.0369701
0.0349412
0.0330201
0.0312015
0.02948
0.0278508
0.0263091
0.0248504
0.0234704
0.022165
0.0209304
0.0197627
0.0186587
0.0176147
0.0166278
0.0156949
0.014813
0.0139796
0.013192
0.0124477
0.0117445
0.0110801
0.0104525
0.00985962
0.00929963
0.00877074
0.00827127
0.00779961
0.00735426
0.00693379
0.00653682
0.00616209
0.00580837
0.0054745
0.00515941
0.00486205
0.00458145
0.00431668
0.00406688
0.00383122
0.0036089
0.0033992
0.00320141
0.00301486
0.00283895
0.00267306
0.00251665
0.00236918
0.00223015
0.0020991
0.00197557
0.00185914
0.00174941
0.00164601
0.00154858
0.00145677
0.00137029
0.00128881
0.00121207
0.00113979
0.00107171
0.0010076
0.00094724
0.000890406
0.000836899
0.00078653
0.00073912
0.000694497
0.000652504
0.000612987
0.000575806
0.000540824
0.000507916
0.000476961
0.000447847
0.000420465
0.000394717
0.000370507
0.000347745
0.000326347
0.000306233
0.000287328
0.000269561
0.000252866
0.000237179
0.000222442
0.000208597
0.000195593
0.000183379
0.00017191
0.000161139
0.000151027
0.000141534
0.000132623
0.000124259
0.00011641
0.000109044
0.000102133
9.56486e-05
8.95661e-05
8.3861e-05
7.85104e-05
7.34928e-05
6.8788e-05
6.43771e-05
6.02421e-05
5.63663e-05
5.27337e-05
4.93296e-05
4.61399e-05
4.31514e-05
4.03519e-05
3.77296e-05
3.52736e-05
3.29736e-05
3.082e-05
2.88037e-05
2.69162e-05
2.51494e-05
2.34958e-05
2.19484e-05
2.05005e-05
1.91458e-05
1.78785e-05
1.66932e-05
1.55845e-05
1.45478e-05
1.35785e-05
1.26722e-05
1.1825e-05
1.10331e-05
1.0293e-05
9.60143e-06
8.95524e-06
8.35154e-06
7.7876e-06
7.26087e-06
6.76895e-06
6.30959e-06
5.8807e-06
5.4803e-06
5.10654e-06
4.7577e-06
4.43215e-06
4.12837e-06
3.84495e-06
3.58055e-06
3.33392e-06
3.1039e-06
2.8894e-06
2.68939e-06
2.50292e-06
2.32909e-06
2.16707e-06
2.01607e-06
1.87536e-06
1.74425e-06
1.62212e-06
1.50834e-06
1.40237e-06
1.30369e-06
1.2118e-06
1.12624e-06
1.0466e-06
9.72462e-07
9.03465e-07
8.39259e-07
7.79518e-07
7.23938e-07
6.72236e-07
6.24148e-07
5.79427e-07
5.37842e-07
4.99178e-07
4.63235e-07
4.29826e-07
3.98775e-07
3.6992e-07
3.43109e-07
3.182e-07
2.95062e-07
2.73571e-07
2.53613e-07
2.35081e-07
2.17875e-07
2.01902e-07
1.87076e-07
1.73316e-07
1.60547e-07
1.487e-07
1.37709e-07
1.27513e-07
1.18057e-07
1.09288e-07
1.01157e-07
9.36187e-08
8.66307e-08
8.01537e-08
7.41511e-08
6.8589e-08
6.34357e-08
5.86617e-08
5.42398e-08
5.01445e-08
4.63523e-08
4.28411e-08
3.95905e-08
3.65817e-08
3.3797e-08
3.122e-08
2.88357e-08
2.66298e-08
2.45894e-08
2.27022e-08
2.09569e-08
1.93433e-08
1.78514e-08
1.64723e-08
1.51977e-08
1.40198e-08
1.29314e-08
1.19259e-08
1.0997e-08
1.01391e-08
9.34676e-09
8.61518e-09
7.93976e-09
7.31627e-09
6.74081e-09
6.20973e-09
5.7197e-09
5.2676e-09
4.85055e-09
4.46589e-09
4.11115e-09
3.78406e-09
3.4825e-09
3.20452e-09
2.9483e-09
2.71219e-09
2.49463e-09
2.2942e-09
2.10956e-09
1.93951e-09
1.78291e-09
1.63872e-09
1.50597e-09
1.38378e-09
1.27132e-09
1.16783e-09
1.07261e-09
9.85005e-10
9.04428e-10
8.30321e-10
7.62175e-10
6.9952e-10
6.41921e-10
5.88979e-10
5.40324e-10
4.95616e-10
4.5454e-10
4.16807e-10
3.8215e-10
3.50322e-10
3.21098e-10
2.94269e-10
2.69641e-10
2.47037e-10
2.26295e-10
2.07263e-10
1.89804e-10
1.73789e-10
1.59102e-10
1.45634e-10
1.33286e-10
1.21967e-10
1.11592e-10
1.02085e-10
9.33731e-11
8.53921e-11
7.80814e-11
7.13859e-11
6.52546e-11
5.9641e-11
5.45021e-11
4.97984e-11
4.54938e-11
4.15551e-11
3.79516e-11
3.46555e-11
3.16409e-11
2.88842e-11
2.63638e-11
2.40598e-11
2.1954e-11
2.00296e-11
1.82714e-11
1.66651e-11
1.5198e-11
1.38583e-11
1.26351e-11
1.15185e-11
1.04993e-11
9.56941e-12
8.72105e-12
7.94729e-12
7.24174e-12
6.59857e-12
6.01243e-12
5.47845e-12
4.99215e-12
4.54946e-12
4.14666e-12
3.78035e-12
3.44742e-12
3.14504e-12
2.87064e-12
2.62188e-12
2.39661e-12
2.19291e-12
2.00902e-12
1.84335e-12
1.69446e-12
1.56107e-12
1.44199e-12
1.33621e-12
1.24278e-12
1.1609e-12
1.08984e-12
1.02898e-12
9.77782e-13
9.3579e-13
9.02634e-13
8.78022e-13
8.61733e-13
8.53624e-13
)
;
    }
    Wall
    {
        type            calculated;
        value           nonuniform List<scalar> 
400
(
0.734667
0.712405
0.691312
0.670848
0.650756
0.630912
0.611255
0.591763
0.572431
0.553271
0.5343
0.515542
0.497022
0.478767
0.460803
0.443156
0.425849
0.408905
0.392344
0.376182
0.360435
0.345115
0.330233
0.315796
0.301809
0.288275
0.275197
0.262574
0.250402
0.238679
0.227399
0.216557
0.206144
0.196152
0.186572
0.177395
0.168609
0.160205
0.15217
0.144495
0.137166
0.130172
0.123502
0.117144
0.111086
0.105317
0.0998247
0.094599
0.0896286
0.0849028
0.0804111
0.0761433
0.0720897
0.0682406
0.0645868
0.0611193
0.0578295
0.054709
0.0517499
0.0489443
0.046285
0.0437649
0.041377
0.0391149
0.0369723
0.0349433
0.0330221
0.0312034
0.0294818
0.0278525
0.0263107
0.0248519
0.0234718
0.0221664
0.0209317
0.019764
0.0186598
0.0176158
0.0166289
0.0156959
0.014814
0.0139805
0.0131928
0.0124485
0.0117453
0.0110808
0.0104531
0.00986023
0.0093002
0.00877128
0.00827177
0.00780008
0.00735471
0.0069342
0.00653721
0.00616245
0.00580871
0.00547482
0.0051597
0.00486233
0.00458171
0.00431693
0.00406711
0.00383143
0.0036091
0.00339938
0.00320158
0.00301503
0.0028391
0.0026732
0.00251678
0.0023693
0.00223027
0.0020992
0.00197567
0.00185923
0.0017495
0.00164609
0.00154865
0.00145684
0.00137035
0.00128887
0.00121212
0.00113984
0.00107176
0.00100765
0.00094728
0.000890443
0.000836933
0.000786562
0.000739149
0.000694525
0.000652529
0.000613011
0.000575828
0.000540845
0.000507935
0.000476979
0.000447863
0.00042048
0.000394731
0.00037052
0.000347757
0.000326358
0.000306243
0.000287337
0.00026957
0.000252874
0.000237187
0.000222449
0.000208604
0.000195599
0.000183385
0.000171915
0.000161144
0.000151032
0.000141538
0.000132627
0.000124263
0.000116413
0.000109047
0.000102135
9.56512e-05
8.95685e-05
8.38632e-05
7.85124e-05
7.34947e-05
6.87898e-05
6.43787e-05
6.02436e-05
5.63677e-05
5.2735e-05
4.93308e-05
4.6141e-05
4.31525e-05
4.03529e-05
3.77305e-05
3.52745e-05
3.29744e-05
3.08208e-05
2.88044e-05
2.69169e-05
2.515e-05
2.34964e-05
2.19489e-05
2.0501e-05
1.91463e-05
1.7879e-05
1.66936e-05
1.55849e-05
1.45482e-05
1.35788e-05
1.26725e-05
1.18253e-05
1.10334e-05
1.02933e-05
9.60167e-06
8.95547e-06
8.35175e-06
7.7878e-06
7.26106e-06
6.76912e-06
6.30976e-06
5.88086e-06
5.48045e-06
5.10668e-06
4.75783e-06
4.43227e-06
4.12849e-06
3.84506e-06
3.58065e-06
3.33401e-06
3.10399e-06
2.88948e-06
2.68947e-06
2.50299e-06
2.32916e-06
2.16713e-06
2.01613e-06
1.87541e-06
1.74431e-06
1.62216e-06
1.50839e-06
1.40242e-06
1.30373e-06
1.21183e-06
1.12628e-06
1.04663e-06
9.72493e-07
9.03495e-07
8.39286e-07
7.79543e-07
7.23962e-07
6.72259e-07
6.2417e-07
5.79447e-07
5.37861e-07
4.99196e-07
4.63252e-07
4.29841e-07
3.98789e-07
3.69933e-07
3.43121e-07
3.18212e-07
2.95073e-07
2.73582e-07
2.53623e-07
2.3509e-07
2.17883e-07
2.0191e-07
1.87083e-07
1.73323e-07
1.60554e-07
1.48706e-07
1.37714e-07
1.27519e-07
1.18062e-07
1.09293e-07
1.01161e-07
9.36228e-08
8.66345e-08
8.01572e-08
7.41544e-08
6.85921e-08
6.34386e-08
5.86644e-08
5.42423e-08
5.01469e-08
4.63545e-08
4.28431e-08
3.95924e-08
3.65835e-08
3.37986e-08
3.12216e-08
2.88371e-08
2.66311e-08
2.45906e-08
2.27033e-08
2.0958e-08
1.93443e-08
1.78523e-08
1.64732e-08
1.51985e-08
1.40206e-08
1.29321e-08
1.19265e-08
1.09976e-08
1.01396e-08
9.34729e-09
8.61567e-09
7.94022e-09
7.3167e-09
6.7412e-09
6.2101e-09
5.72004e-09
5.26791e-09
4.85084e-09
4.46616e-09
4.11141e-09
3.7843e-09
3.48272e-09
3.20472e-09
2.94849e-09
2.71237e-09
2.49479e-09
2.29434e-09
2.1097e-09
1.93964e-09
1.78303e-09
1.63883e-09
1.50608e-09
1.38387e-09
1.27141e-09
1.16791e-09
1.07268e-09
9.85075e-10
9.04492e-10
8.3038e-10
7.6223e-10
6.99571e-10
6.41969e-10
5.89023e-10
5.40365e-10
4.95653e-10
4.54574e-10
4.16839e-10
3.82179e-10
3.5035e-10
3.21124e-10
2.94292e-10
2.69662e-10
2.47057e-10
2.26313e-10
2.0728e-10
1.89819e-10
1.73803e-10
1.59115e-10
1.45646e-10
1.33297e-10
1.21977e-10
1.11602e-10
1.02093e-10
9.33812e-11
8.53995e-11
7.80883e-11
7.13922e-11
6.52605e-11
5.96464e-11
5.4507e-11
4.98029e-11
4.5498e-11
4.15589e-11
3.79552e-11
3.46587e-11
3.16438e-11
2.88869e-11
2.63663e-11
2.40621e-11
2.19561e-11
2.00316e-11
1.82732e-11
1.66668e-11
1.51996e-11
1.38597e-11
1.26364e-11
1.15196e-11
1.05004e-11
9.57039e-12
8.72195e-12
7.94812e-12
7.2425e-12
6.59926e-12
6.01307e-12
5.47903e-12
4.99269e-12
4.54996e-12
4.14711e-12
3.78076e-12
3.44779e-12
3.14538e-12
2.87096e-12
2.62217e-12
2.39688e-12
2.19316e-12
2.00925e-12
1.84356e-12
1.69465e-12
1.56124e-12
1.44215e-12
1.33636e-12
1.24292e-12
1.16103e-12
1.08996e-12
1.0291e-12
9.77892e-13
9.35897e-13
9.02739e-13
8.78119e-13
8.6181e-13
8.53686e-13
)
;
    }
}


// ************************************************************************* //
