/*--------------------------------*- C++ -*----------------------------------*\
  =========                 |
  \\      /  F ield         | OpenFOAM: The Open Source CFD Toolbox
   \\    /   O peration     | Website:  https://openfoam.org
    \\  /    A nd           | Version:  10
     \\/     M anipulation  |
\*---------------------------------------------------------------------------*/
FoamFile
{
    format      ascii;
    class       volScalarField;
    location    "0.24";
    object      Exp1;
}
// * * * * * * * * * * * * * * * * * * * * * * * * * * * * * * * * * * * * * //

dimensions      [0 0 0 0 0 0 0];

internalField   uniform 0;

boundaryField
{
    frontAndBack
    {
        type            empty;
    }
    inlet
    {
        type            calculated;
        value           uniform 0;
    }
    outlet
    {
        type            calculated;
        value           uniform 0;
    }
    substrate
    {
        type            calculated;
        value           nonuniform List<scalar> 
400
(
8.62401e-06
2.5821e-05
4.28961e-05
5.9792e-05
7.64584e-05
9.285e-05
0.000108926
0.000124651
0.000139991
0.000154918
0.000169407
0.000183436
0.000196987
0.000210044
0.000222593
0.000234625
0.000246132
0.000257109
0.000267552
0.00027746
0.000286834
0.000295674
0.000303985
0.000311771
0.000319037
0.000325791
0.000332041
0.000337794
0.000343061
0.000347849
0.000352171
0.000356036
0.000359456
0.000362442
0.000365004
0.000367156
0.000368909
0.000370275
0.000371267
0.000371895
0.000372173
0.000372112
0.000371724
0.000371023
0.000370018
0.000368724
0.00036715
0.00036531
0.000363214
0.000360874
0.000358302
0.000355508
0.000352503
0.000349299
0.000345906
0.000342335
0.000338595
0.000334698
0.000330653
0.00032647
0.000322158
0.000317727
0.000313187
0.000308545
0.000303812
0.000298995
0.000294102
0.000289143
0.000284125
0.000279055
0.000273942
0.000268792
0.000263612
0.00025841
0.000253191
0.000247962
0.00024273
0.000237499
0.000232276
0.000227067
0.000221875
0.000216707
0.000211567
0.00020646
0.000201389
0.000196359
0.000191373
0.000186436
0.000181551
0.00017672
0.000171947
0.000167235
0.000162586
0.000158003
0.000153488
0.000149043
0.000144669
0.000140369
0.000136143
0.000131994
0.000127922
0.000123928
0.000120014
0.00011618
0.000112425
0.000108752
0.00010516
0.000101649
9.82198e-05
9.48717e-05
9.16047e-05
8.84185e-05
8.53128e-05
8.2287e-05
7.93407e-05
7.64732e-05
7.36837e-05
7.09715e-05
6.83357e-05
6.57754e-05
6.32896e-05
6.08772e-05
5.85373e-05
5.62686e-05
5.407e-05
5.19402e-05
4.98781e-05
4.78824e-05
4.59517e-05
4.40848e-05
4.22803e-05
4.05369e-05
3.88532e-05
3.72279e-05
3.56595e-05
3.41467e-05
3.26881e-05
3.12823e-05
2.99279e-05
2.86236e-05
2.7368e-05
2.61598e-05
2.49976e-05
2.388e-05
2.28058e-05
2.17737e-05
2.07824e-05
1.98305e-05
1.89169e-05
1.80404e-05
1.71997e-05
1.63937e-05
1.56211e-05
1.48809e-05
1.41719e-05
1.34931e-05
1.28434e-05
1.22218e-05
1.16271e-05
1.10585e-05
1.0515e-05
9.99562e-06
9.49947e-06
9.02564e-06
8.57329e-06
8.14157e-06
7.72967e-06
7.33679e-06
6.96217e-06
6.60506e-06
6.26476e-06
5.94056e-06
5.63179e-06
5.33781e-06
5.05798e-06
4.79169e-06
4.53837e-06
4.29745e-06
4.06839e-06
3.85066e-06
3.64375e-06
3.44719e-06
3.26051e-06
3.08325e-06
2.91498e-06
2.75529e-06
2.60379e-06
2.46008e-06
2.32381e-06
2.19461e-06
2.07216e-06
1.95613e-06
1.84621e-06
1.7421e-06
1.64352e-06
1.5502e-06
1.46189e-06
1.37832e-06
1.29927e-06
1.2245e-06
1.15381e-06
1.08698e-06
1.02382e-06
9.64143e-07
9.07766e-07
8.54519e-07
8.0424e-07
7.56774e-07
7.11973e-07
6.69697e-07
6.29811e-07
5.9219e-07
5.56712e-07
5.23262e-07
4.9173e-07
4.62013e-07
4.34012e-07
4.07633e-07
3.82788e-07
3.59392e-07
3.37365e-07
3.16631e-07
2.97118e-07
2.78758e-07
2.61486e-07
2.4524e-07
2.29964e-07
2.15601e-07
2.021e-07
1.89411e-07
1.77488e-07
1.66287e-07
1.55765e-07
1.45884e-07
1.36607e-07
1.27898e-07
1.19723e-07
1.12052e-07
1.04855e-07
9.81032e-08
9.17708e-08
8.58327e-08
8.02653e-08
7.50465e-08
7.01553e-08
6.55719e-08
6.12778e-08
5.72554e-08
5.34881e-08
4.99605e-08
4.66578e-08
4.35662e-08
4.06728e-08
3.79654e-08
3.54323e-08
3.30628e-08
3.08468e-08
2.87746e-08
2.68372e-08
2.50261e-08
2.33335e-08
2.17518e-08
2.02741e-08
1.88937e-08
1.76044e-08
1.64004e-08
1.52763e-08
1.4227e-08
1.32475e-08
1.23336e-08
1.14808e-08
1.06852e-08
9.94323e-09
9.25124e-09
8.60603e-09
8.00453e-09
7.44387e-09
6.92136e-09
6.4345e-09
5.98091e-09
5.55841e-09
5.16492e-09
4.79852e-09
4.45739e-09
4.13984e-09
3.8443e-09
3.56928e-09
3.3134e-09
3.07537e-09
2.85398e-09
2.6481e-09
2.45668e-09
2.27872e-09
2.11332e-09
1.9596e-09
1.81678e-09
1.68409e-09
1.56084e-09
1.44637e-09
1.34008e-09
1.24141e-09
1.14981e-09
1.0648e-09
9.85912e-10
9.12722e-10
8.44828e-10
7.81858e-10
7.23464e-10
6.69322e-10
6.19131e-10
5.72611e-10
5.29499e-10
4.89554e-10
4.52548e-10
4.18272e-10
3.86528e-10
3.57135e-10
3.29923e-10
3.04735e-10
2.81424e-10
2.59853e-10
2.39896e-10
2.21436e-10
2.04362e-10
1.88574e-10
1.73977e-10
1.60484e-10
1.48012e-10
1.36488e-10
1.25839e-10
1.16003e-10
1.06918e-10
9.85274e-11
9.07807e-11
8.36292e-11
7.70283e-11
7.09367e-11
6.5316e-11
6.01306e-11
5.53478e-11
5.09369e-11
4.68697e-11
4.31201e-11
3.96639e-11
3.64787e-11
3.35437e-11
3.08397e-11
2.8349e-11
2.60551e-11
2.39429e-11
2.19983e-11
2.02082e-11
1.85609e-11
1.7045e-11
1.56504e-11
1.43675e-11
1.31877e-11
1.21029e-11
1.11056e-11
1.01889e-11
9.34645e-12
8.5724e-12
7.86133e-12
7.20826e-12
6.60857e-12
6.05802e-12
5.55271e-12
5.08903e-12
4.66365e-12
4.27351e-12
3.91581e-12
3.58794e-12
3.28752e-12
3.01236e-12
2.76043e-12
2.52989e-12
2.31903e-12
2.12628e-12
1.95021e-12
1.78951e-12
1.64297e-12
1.50949e-12
1.38805e-12
1.27775e-12
1.17774e-12
1.08725e-12
1.00561e-12
9.32176e-13
8.66391e-13
8.07746e-13
7.55789e-13
7.10116e-13
6.70373e-13
6.36252e-13
6.07486e-13
5.83851e-13
5.65161e-13
5.5127e-13
5.42069e-13
5.37487e-13
)
;
    }
    Wall
    {
        type            calculated;
        value           nonuniform List<scalar> 
400
(
8.62402e-06
2.58212e-05
4.28966e-05
5.97929e-05
7.64594e-05
9.2851e-05
0.000108927
0.000124651
0.000139991
0.000154918
0.000169407
0.000183436
0.000196986
0.000210042
0.000222591
0.000234623
0.00024613
0.000257106
0.000267549
0.000277456
0.000286829
0.000295669
0.000303979
0.000311765
0.000319031
0.000325785
0.000332034
0.000337787
0.000343053
0.000347842
0.000352163
0.000356028
0.000359447
0.000362432
0.000364995
0.000367147
0.0003689
0.000370266
0.000371256
0.000371885
0.000372162
0.000372101
0.000371714
0.000371012
0.000370008
0.000368713
0.000367139
0.000365299
0.000363203
0.000360863
0.000358291
0.000355497
0.000352492
0.000349288
0.000345895
0.000342324
0.000338584
0.000334687
0.000330642
0.000326459
0.000322147
0.000317717
0.000313176
0.000308535
0.000303801
0.000298984
0.000294092
0.000289133
0.000284115
0.000279046
0.000273933
0.000268783
0.000263603
0.000258401
0.000253182
0.000247954
0.000242721
0.000237491
0.000232268
0.000227059
0.000221868
0.0002167
0.00021156
0.000206452
0.000201382
0.000196352
0.000191367
0.00018643
0.000181544
0.000176714
0.000171941
0.00016723
0.000162581
0.000157998
0.000153483
0.000149038
0.000144664
0.000140364
0.000136139
0.00013199
0.000127918
0.000123924
0.00012001
0.000116176
0.000112422
0.000108749
0.000105157
0.000101646
9.82167e-05
9.48687e-05
9.16018e-05
8.84157e-05
8.53101e-05
8.22845e-05
7.93383e-05
7.64709e-05
7.36815e-05
7.09694e-05
6.83337e-05
6.57735e-05
6.32877e-05
6.08755e-05
5.85356e-05
5.6267e-05
5.40685e-05
5.19388e-05
4.98768e-05
4.78811e-05
4.59505e-05
4.40837e-05
4.22792e-05
4.05359e-05
3.88522e-05
3.72269e-05
3.56586e-05
3.41458e-05
3.26873e-05
3.12815e-05
2.99272e-05
2.86229e-05
2.73674e-05
2.61592e-05
2.4997e-05
2.38795e-05
2.28053e-05
2.17732e-05
2.07819e-05
1.98301e-05
1.89166e-05
1.804e-05
1.71994e-05
1.63933e-05
1.56208e-05
1.48806e-05
1.41717e-05
1.34929e-05
1.28432e-05
1.22215e-05
1.16269e-05
1.10583e-05
1.05148e-05
9.99546e-06
9.49932e-06
9.02551e-06
8.57316e-06
8.14145e-06
7.72955e-06
7.33668e-06
6.96207e-06
6.60498e-06
6.26468e-06
5.94049e-06
5.63172e-06
5.33774e-06
5.05792e-06
4.79164e-06
4.53833e-06
4.29741e-06
4.06835e-06
3.85062e-06
3.64372e-06
3.44716e-06
3.26048e-06
3.08322e-06
2.91496e-06
2.75527e-06
2.60377e-06
2.46006e-06
2.32379e-06
2.1946e-06
2.07215e-06
1.95612e-06
1.8462e-06
1.74209e-06
1.64352e-06
1.5502e-06
1.46188e-06
1.37832e-06
1.29926e-06
1.2245e-06
1.15381e-06
1.08698e-06
1.02382e-06
9.64143e-07
9.07766e-07
8.54519e-07
8.04241e-07
7.56775e-07
7.11974e-07
6.69698e-07
6.29813e-07
5.92192e-07
5.56714e-07
5.23264e-07
4.91732e-07
4.62015e-07
4.34014e-07
4.07635e-07
3.8279e-07
3.59394e-07
3.37367e-07
3.16633e-07
2.9712e-07
2.7876e-07
2.61488e-07
2.45243e-07
2.29966e-07
2.15603e-07
2.02102e-07
1.89413e-07
1.7749e-07
1.66288e-07
1.55767e-07
1.45886e-07
1.36609e-07
1.27899e-07
1.19725e-07
1.12054e-07
1.04856e-07
9.81046e-08
9.17721e-08
8.58339e-08
8.02665e-08
7.50477e-08
7.01564e-08
6.5573e-08
6.12788e-08
5.72563e-08
5.3489e-08
4.99614e-08
4.66586e-08
4.35671e-08
4.06736e-08
3.79661e-08
3.5433e-08
3.30635e-08
3.08474e-08
2.87752e-08
2.68378e-08
2.50267e-08
2.33341e-08
2.17523e-08
2.02746e-08
1.88941e-08
1.76048e-08
1.64008e-08
1.52767e-08
1.42273e-08
1.32479e-08
1.23339e-08
1.14811e-08
1.06855e-08
9.9435e-09
9.2515e-09
8.60628e-09
8.00476e-09
7.44409e-09
6.92157e-09
6.43469e-09
5.9811e-09
5.55858e-09
5.16509e-09
4.79867e-09
4.45753e-09
4.13998e-09
3.84443e-09
3.5694e-09
3.31352e-09
3.07548e-09
2.85408e-09
2.6482e-09
2.45677e-09
2.27881e-09
2.1134e-09
1.95968e-09
1.81685e-09
1.68415e-09
1.5609e-09
1.44643e-09
1.34014e-09
1.24146e-09
1.14986e-09
1.06484e-09
9.85954e-10
9.12761e-10
8.44865e-10
7.81892e-10
7.23496e-10
6.69352e-10
6.19159e-10
5.72637e-10
5.29524e-10
4.89577e-10
4.5257e-10
4.18292e-10
3.86547e-10
3.57153e-10
3.2994e-10
3.0475e-10
2.81438e-10
2.59866e-10
2.39908e-10
2.21447e-10
2.04373e-10
1.88584e-10
1.73986e-10
1.60492e-10
1.4802e-10
1.36495e-10
1.25846e-10
1.16009e-10
1.06924e-10
9.85331e-11
9.0786e-11
8.36341e-11
7.70329e-11
7.0941e-11
6.53199e-11
6.01343e-11
5.53512e-11
5.094e-11
4.68727e-11
4.31229e-11
3.96665e-11
3.6481e-11
3.35459e-11
3.08417e-11
2.83509e-11
2.60568e-11
2.39445e-11
2.19998e-11
2.02096e-11
1.85621e-11
1.70462e-11
1.56515e-11
1.43686e-11
1.31887e-11
1.21038e-11
1.11064e-11
1.01897e-11
9.34715e-12
8.57305e-12
7.86193e-12
7.20881e-12
6.60908e-12
6.0585e-12
5.55315e-12
5.08943e-12
4.66402e-12
4.27386e-12
3.91612e-12
3.58823e-12
3.28779e-12
3.01261e-12
2.76066e-12
2.5301e-12
2.31922e-12
2.12646e-12
1.95038e-12
1.78967e-12
1.64311e-12
1.50962e-12
1.38817e-12
1.27786e-12
1.17784e-12
1.08735e-12
1.0057e-12
9.32258e-13
8.66467e-13
8.07817e-13
7.55855e-13
7.10178e-13
6.70432e-13
6.36308e-13
6.07541e-13
5.83904e-13
5.65214e-13
5.51319e-13
5.42108e-13
5.37517e-13
)
;
    }
}


// ************************************************************************* //
