/*--------------------------------*- C++ -*----------------------------------*\
  =========                 |
  \\      /  F ield         | OpenFOAM: The Open Source CFD Toolbox
   \\    /   O peration     | Website:  https://openfoam.org
    \\  /    A nd           | Version:  10
     \\/     M anipulation  |
\*---------------------------------------------------------------------------*/
FoamFile
{
    format      ascii;
    class       volScalarField;
    location    "0.24";
    object      N1;
}
// * * * * * * * * * * * * * * * * * * * * * * * * * * * * * * * * * * * * * //

dimensions      [0 0 0 0 0 0 0];

internalField   nonuniform List<scalar> 
8000
(
6.54643e-05
0.000196084
0.000325874
0.000454397
0.000581264
0.000706129
0.000828681
0.000948638
0.00106575
0.0011798
0.00129058
0.00139792
0.00150168
0.00160174
0.00169798
0.00179033
0.00187871
0.00196309
0.00204343
0.00211971
0.00219193
0.00226011
0.00232425
0.00238439
0.00244057
0.00249284
0.00254125
0.00258586
0.00262675
0.00266397
0.00269761
0.00272774
0.00275445
0.00277782
0.00279793
0.00281489
0.00282877
0.00283967
0.00284767
0.00285288
0.00285538
0.00285527
0.00285263
0.00284757
0.00284017
0.00283052
0.00281871
0.00280484
0.002789
0.00277126
0.00275173
0.00273048
0.00270759
0.00268317
0.00265727
0.00263
0.00260142
0.00257162
0.00254067
0.00250866
0.00247564
0.0024417
0.00240691
0.00237133
0.00233504
0.0022981
0.00226058
0.00222253
0.00218402
0.00214512
0.00210587
0.00206633
0.00202656
0.00198661
0.00194653
0.00190637
0.00186618
0.001826
0.00178588
0.00174585
0.00170596
0.00166625
0.00162675
0.0015875
0.00154853
0.00150987
0.00147155
0.0014336
0.00139605
0.00135892
0.00132223
0.001286
0.00125027
0.00121503
0.00118032
0.00114614
0.00111251
0.00107945
0.00104696
0.00101506
0.00098375
0.000953042
0.000922944
0.000893459
0.000864592
0.000836346
0.000808724
0.000781727
0.000755356
0.000729609
0.000704486
0.000679985
0.000656102
0.000632833
0.000610176
0.000588124
0.000566673
0.000545815
0.000525545
0.000505855
0.000486739
0.000468187
0.000450192
0.000432744
0.000415836
0.000399457
0.000383599
0.00036825
0.000353403
0.000339045
0.000325167
0.00031176
0.000298811
0.000286311
0.000274249
0.000262614
0.000251397
0.000240585
0.000230169
0.000220138
0.000210482
0.00020119
0.000192251
0.000183657
0.000175395
0.000167457
0.000159833
0.000152513
0.000145487
0.000138746
0.00013228
0.000126081
0.000120139
0.000114446
0.000108994
0.000103773
9.87766e-05
9.39954e-05
8.94222e-05
8.50492e-05
8.08691e-05
7.68747e-05
7.30588e-05
6.94148e-05
6.59358e-05
6.26155e-05
5.94476e-05
5.6426e-05
5.35449e-05
5.07985e-05
4.81813e-05
4.56879e-05
4.33132e-05
4.10522e-05
3.89001e-05
3.68522e-05
3.49039e-05
3.3051e-05
3.12894e-05
2.96148e-05
2.80235e-05
2.65118e-05
2.5076e-05
2.37128e-05
2.24187e-05
2.11905e-05
2.00253e-05
1.89201e-05
1.7872e-05
1.68784e-05
1.59367e-05
1.50443e-05
1.41989e-05
1.33982e-05
1.26401e-05
1.19224e-05
1.12431e-05
1.06004e-05
9.99246e-06
9.41746e-06
8.87377e-06
8.35981e-06
7.87406e-06
7.41508e-06
6.98149e-06
6.57198e-06
6.18529e-06
5.82023e-06
5.47567e-06
5.15053e-06
4.84378e-06
4.55445e-06
4.28159e-06
4.02433e-06
3.78182e-06
3.55327e-06
3.33792e-06
3.13504e-06
2.94397e-06
2.76403e-06
2.59462e-06
2.43516e-06
2.28509e-06
2.14389e-06
2.01105e-06
1.88611e-06
1.76862e-06
1.65815e-06
1.55432e-06
1.45673e-06
1.36503e-06
1.27888e-06
1.19797e-06
1.12198e-06
1.05062e-06
9.83642e-07
9.20774e-07
8.61776e-07
8.06423e-07
7.54497e-07
7.05795e-07
6.60126e-07
6.17308e-07
5.77171e-07
5.39554e-07
5.04304e-07
4.71278e-07
4.40342e-07
4.11369e-07
3.84238e-07
3.58838e-07
3.35061e-07
3.12809e-07
2.91986e-07
2.72505e-07
2.54281e-07
2.37238e-07
2.21301e-07
2.06401e-07
1.92472e-07
1.79455e-07
1.6729e-07
1.55925e-07
1.45308e-07
1.35393e-07
1.26133e-07
1.17488e-07
1.09417e-07
1.01885e-07
9.48556e-08
8.8297e-08
8.21786e-08
7.64718e-08
7.11499e-08
6.61877e-08
6.15616e-08
5.72497e-08
5.32311e-08
4.94867e-08
4.59983e-08
4.27489e-08
3.97226e-08
3.69047e-08
3.42811e-08
3.18389e-08
2.95659e-08
2.74508e-08
2.54829e-08
2.36522e-08
2.19495e-08
2.03662e-08
1.88939e-08
1.75253e-08
1.62532e-08
1.5071e-08
1.39726e-08
1.29521e-08
1.20042e-08
1.11238e-08
1.03064e-08
9.54748e-09
8.84301e-09
8.1892e-09
7.5825e-09
7.01961e-09
6.49745e-09
6.01315e-09
5.56405e-09
5.14765e-09
4.76164e-09
4.40386e-09
4.0723e-09
3.76509e-09
3.48048e-09
3.21686e-09
2.97273e-09
2.74667e-09
2.53739e-09
2.34367e-09
2.16439e-09
1.99849e-09
1.845e-09
1.70303e-09
1.57172e-09
1.4503e-09
1.33803e-09
1.23426e-09
1.13834e-09
1.04971e-09
9.67812e-10
8.9216e-10
8.22286e-10
7.5776e-10
6.98181e-10
6.4318e-10
5.92413e-10
5.45564e-10
5.02335e-10
4.62456e-10
4.25671e-10
3.91748e-10
3.60468e-10
3.3163e-10
3.05049e-10
2.80552e-10
2.57979e-10
2.37183e-10
2.18028e-10
2.00386e-10
1.84141e-10
1.69185e-10
1.55419e-10
1.42749e-10
1.3109e-10
1.20365e-10
1.10498e-10
1.01425e-10
9.30817e-11
8.54115e-11
7.83613e-11
7.18822e-11
6.5929e-11
6.04603e-11
5.54376e-11
5.08255e-11
4.65913e-11
4.27051e-11
3.91389e-11
3.58674e-11
3.28669e-11
3.01159e-11
2.75943e-11
2.52838e-11
2.31676e-11
2.12301e-11
1.9457e-11
1.78353e-11
1.63529e-11
1.49988e-11
1.37629e-11
1.26358e-11
1.16092e-11
1.06753e-11
9.82697e-12
9.05779e-12
8.3619e-12
7.73399e-12
7.16923e-12
6.66328e-12
6.21225e-12
5.81266e-12
5.46139e-12
5.15574e-12
4.89332e-12
4.67208e-12
4.49031e-12
4.34657e-12
4.23974e-12
4.16897e-12
4.13373e-12
6.6134e-05
0.000198151
0.000329448
0.000459599
0.000588219
0.000714959
0.000839501
0.000961558
0.00108087
0.00119721
0.00131036
0.00142014
0.0015264
0.001629
0.00172781
0.00182276
0.00191375
0.00200074
0.00208367
0.00216252
0.00223728
0.00230795
0.00237454
0.00243706
0.00249556
0.00255007
0.00260064
0.00264732
0.00269019
0.0027293
0.00276472
0.00279654
0.00282483
0.00284968
0.00287117
0.00288939
0.00290443
0.00291638
0.00292533
0.00293138
0.00293462
0.00293514
0.00293304
0.00292841
0.00292135
0.00291195
0.0029003
0.0028865
0.00287063
0.0028528
0.00283309
0.00281158
0.00278837
0.00276355
0.00273719
0.00270939
0.00268022
0.00264978
0.00261813
0.00258536
0.00255155
0.00251677
0.00248109
0.00244459
0.00240734
0.00236941
0.00233086
0.00229176
0.00225218
0.00221217
0.00217179
0.00213112
0.00209019
0.00204907
0.00200781
0.00196646
0.00192507
0.00188368
0.00184235
0.00180111
0.00176001
0.00171908
0.00167837
0.00163791
0.00159774
0.00155788
0.00151837
0.00147925
0.00144052
0.00140223
0.00136439
0.00132703
0.00129017
0.00125383
0.00121802
0.00118277
0.00114808
0.00111397
0.00108046
0.00104754
0.00101524
0.000983558
0.000952503
0.00092208
0.000892295
0.00086315
0.000834648
0.00080679
0.000779578
0.000753009
0.000727084
0.0007018
0.000677154
0.000653142
0.000629759
0.000607002
0.000584864
0.000563339
0.00054242
0.000522099
0.00050237
0.000483224
0.000464652
0.000446645
0.000429194
0.00041229
0.000395923
0.000380082
0.000364758
0.00034994
0.000335617
0.000321778
0.000308414
0.000295513
0.000283063
0.000271055
0.000259477
0.000248318
0.000237568
0.000227215
0.000217248
0.000207657
0.000198432
0.000189561
0.000181034
0.000172841
0.000164972
0.000157416
0.000150164
0.000143206
0.000136533
0.000130135
0.000124002
0.000118126
0.000112499
0.00010711
0.000101953
9.70178e-05
9.22975e-05
8.7784e-05
8.34695e-05
7.93466e-05
7.54081e-05
7.16468e-05
6.8056e-05
6.4629e-05
6.13592e-05
5.82405e-05
5.52667e-05
5.2432e-05
4.97306e-05
4.71571e-05
4.4706e-05
4.23723e-05
4.0151e-05
3.80372e-05
3.60263e-05
3.41139e-05
3.22955e-05
3.05672e-05
2.89247e-05
2.73644e-05
2.58824e-05
2.44753e-05
2.31396e-05
2.1872e-05
2.06693e-05
1.95285e-05
1.84468e-05
1.74212e-05
1.64491e-05
1.55281e-05
1.46555e-05
1.38291e-05
1.30466e-05
1.23058e-05
1.16047e-05
1.09413e-05
1.03138e-05
9.72031e-06
9.15913e-06
8.62865e-06
8.12728e-06
7.65353e-06
7.206e-06
6.78332e-06
6.38419e-06
6.0074e-06
5.65176e-06
5.31617e-06
4.99955e-06
4.70091e-06
4.41927e-06
4.15374e-06
3.90344e-06
3.66754e-06
3.44526e-06
3.23586e-06
3.03864e-06
2.85292e-06
2.67806e-06
2.51347e-06
2.35857e-06
2.21283e-06
2.07572e-06
1.94676e-06
1.82549e-06
1.71148e-06
1.6043e-06
1.50358e-06
1.40893e-06
1.32001e-06
1.23649e-06
1.15806e-06
1.08441e-06
1.01527e-06
9.50384e-07
8.89489e-07
8.32356e-07
7.7876e-07
7.28492e-07
6.81354e-07
6.3716e-07
5.95732e-07
5.56904e-07
5.20521e-07
4.86433e-07
4.54503e-07
4.24598e-07
3.96595e-07
3.70377e-07
3.45836e-07
3.22868e-07
3.01376e-07
2.81268e-07
2.62458e-07
2.44867e-07
2.28417e-07
2.13038e-07
1.98662e-07
1.85225e-07
1.7267e-07
1.60939e-07
1.49981e-07
1.39747e-07
1.30189e-07
1.21266e-07
1.12936e-07
1.05161e-07
9.79059e-08
9.11364e-08
8.48213e-08
7.8931e-08
7.34379e-08
6.83161e-08
6.35413e-08
5.90907e-08
5.49429e-08
5.10781e-08
4.74775e-08
4.41236e-08
4.1e-08
3.80914e-08
3.53835e-08
3.28628e-08
3.05167e-08
2.83335e-08
2.63023e-08
2.44128e-08
2.26554e-08
2.10211e-08
1.95015e-08
1.80889e-08
1.67759e-08
1.55557e-08
1.44219e-08
1.33686e-08
1.23902e-08
1.14815e-08
1.06378e-08
9.8545e-09
9.12738e-09
8.45254e-09
7.82633e-09
7.24534e-09
6.70639e-09
6.20652e-09
5.74298e-09
5.31319e-09
4.91476e-09
4.54548e-09
4.20325e-09
3.88616e-09
3.5924e-09
3.32031e-09
3.06832e-09
2.835e-09
2.61899e-09
2.41904e-09
2.23399e-09
2.06275e-09
1.90433e-09
1.75779e-09
1.62226e-09
1.49693e-09
1.38106e-09
1.27395e-09
1.17495e-09
1.08346e-09
9.98934e-10
9.2085e-10
8.48729e-10
7.82127e-10
7.20632e-10
6.63862e-10
6.11464e-10
5.63107e-10
5.18489e-10
4.77327e-10
4.3936e-10
4.04345e-10
3.72059e-10
3.42295e-10
3.14859e-10
2.89574e-10
2.66275e-10
2.4481e-10
2.25039e-10
2.0683e-10
1.90062e-10
1.74626e-10
1.60416e-10
1.47339e-10
1.35306e-10
1.24235e-10
1.14052e-10
1.04686e-10
9.60749e-11
8.81581e-11
8.08811e-11
7.41936e-11
6.80491e-11
6.24045e-11
5.72203e-11
5.24599e-11
4.80896e-11
4.40783e-11
4.03975e-11
3.70208e-11
3.39238e-11
3.10843e-11
2.84816e-11
2.60969e-11
2.39126e-11
2.19128e-11
2.00827e-11
1.84088e-11
1.68788e-11
1.54811e-11
1.42054e-11
1.30422e-11
1.19825e-11
1.10186e-11
1.0143e-11
9.34905e-12
8.63079e-12
7.98268e-12
7.39976e-12
6.87755e-12
6.41202e-12
5.99957e-12
5.63701e-12
5.32153e-12
5.05067e-12
4.82232e-12
4.6347e-12
4.48634e-12
4.37607e-12
4.30303e-12
4.26665e-12
6.67898e-05
0.000200149
0.000332854
0.000464501
0.000594713
0.000723141
0.000849467
0.000973399
0.00109467
0.00121304
0.0013283
0.00144025
0.00154873
0.00165358
0.00175469
0.00185194
0.00194525
0.00203455
0.00211978
0.00220092
0.00227794
0.00235083
0.00241958
0.00248423
0.00254479
0.00260129
0.00265379
0.00270233
0.00274696
0.00278775
0.00282478
0.00285811
0.00288782
0.00291399
0.00293671
0.00295606
0.00297214
0.00298503
0.00299484
0.00300164
0.00300554
0.00300663
0.00300502
0.00300078
0.00299403
0.00298486
0.00297335
0.00295962
0.00294374
0.00292582
0.00290595
0.00288422
0.00286073
0.00283555
0.00280878
0.00278051
0.00275083
0.00271981
0.00268754
0.0026541
0.00261958
0.00258404
0.00254758
0.00251025
0.00247214
0.00243332
0.00239386
0.00235382
0.00231327
0.00227227
0.0022309
0.0021892
0.00214724
0.00210507
0.00206275
0.00202033
0.00197787
0.0019354
0.00189298
0.00185066
0.00180847
0.00176645
0.00172466
0.00168312
0.00164187
0.00160094
0.00156037
0.00152018
0.00148041
0.00144108
0.00140221
0.00136383
0.00132597
0.00128863
0.00125184
0.00121562
0.00117998
0.00114494
0.0011105
0.00107668
0.00104348
0.00101093
0.000979015
0.000947752
0.000917143
0.000887192
0.0008579
0.000829271
0.000801304
0.000773999
0.000747354
0.000721368
0.000696037
0.000671358
0.000647326
0.000623936
0.000601182
0.000579058
0.000557556
0.00053667
0.000516392
0.000496712
0.000477623
0.000459114
0.000441177
0.000423802
0.000406978
0.000390696
0.000374944
0.000359713
0.00034499
0.000330766
0.000317029
0.000303767
0.00029097
0.000278627
0.000266726
0.000255256
0.000244205
0.000233563
0.000223318
0.000213459
0.000203976
0.000194857
0.000186093
0.000177671
0.000169582
0.000161815
0.00015436
0.000147208
0.000140348
0.000133771
0.000127467
0.000121427
0.000115642
0.000110103
0.000104802
9.97291e-05
9.4877e-05
9.02373e-05
8.58023e-05
8.15642e-05
7.75156e-05
7.36492e-05
6.99581e-05
6.64353e-05
6.30741e-05
5.98683e-05
5.68114e-05
5.38974e-05
5.11206e-05
4.84751e-05
4.59556e-05
4.35566e-05
4.12732e-05
3.91004e-05
3.70333e-05
3.50674e-05
3.31982e-05
3.14215e-05
2.97332e-05
2.81292e-05
2.66059e-05
2.51594e-05
2.37864e-05
2.24833e-05
2.1247e-05
2.00744e-05
1.89624e-05
1.79081e-05
1.69089e-05
1.59621e-05
1.50651e-05
1.42156e-05
1.34112e-05
1.26497e-05
1.19291e-05
1.12472e-05
1.06021e-05
9.992e-06
9.41514e-06
8.86983e-06
8.35444e-06
7.86746e-06
7.40742e-06
6.97292e-06
6.56264e-06
6.17531e-06
5.80974e-06
5.46476e-06
5.1393e-06
4.8323e-06
4.5428e-06
4.26984e-06
4.01254e-06
3.77005e-06
3.54156e-06
3.32631e-06
3.12357e-06
2.93266e-06
2.75292e-06
2.58373e-06
2.4245e-06
2.27468e-06
2.13374e-06
2.00118e-06
1.87652e-06
1.75932e-06
1.64915e-06
1.5456e-06
1.44831e-06
1.35691e-06
1.27105e-06
1.19043e-06
1.11472e-06
1.04365e-06
9.76949e-07
9.14352e-07
8.55622e-07
8.00528e-07
7.48855e-07
7.00399e-07
6.5497e-07
6.12384e-07
5.72471e-07
5.35071e-07
5.0003e-07
4.67207e-07
4.36466e-07
4.0768e-07
3.8073e-07
3.55503e-07
3.31893e-07
3.098e-07
2.8913e-07
2.69795e-07
2.51712e-07
2.34802e-07
2.18993e-07
2.04215e-07
1.90403e-07
1.77496e-07
1.65438e-07
1.54173e-07
1.43653e-07
1.33828e-07
1.24656e-07
1.16093e-07
1.08101e-07
1.00643e-07
9.36839e-08
8.71922e-08
8.11373e-08
7.54907e-08
7.02257e-08
6.53174e-08
6.07424e-08
5.64787e-08
5.25059e-08
4.88046e-08
4.5357e-08
4.21461e-08
3.91562e-08
3.63725e-08
3.37814e-08
3.13697e-08
2.91255e-08
2.70376e-08
2.50952e-08
2.32887e-08
2.16087e-08
2.00466e-08
1.85945e-08
1.72448e-08
1.59905e-08
1.4825e-08
1.37423e-08
1.27365e-08
1.18025e-08
1.09352e-08
1.013e-08
9.38252e-09
8.68882e-09
8.0451e-09
7.44787e-09
6.89385e-09
6.38001e-09
5.90351e-09
5.46171e-09
5.05215e-09
4.67254e-09
4.32075e-09
3.99479e-09
3.69282e-09
3.41312e-09
3.15409e-09
2.91424e-09
2.69219e-09
2.48666e-09
2.29643e-09
2.12042e-09
1.95757e-09
1.80693e-09
1.66761e-09
1.53878e-09
1.41966e-09
1.30956e-09
1.20779e-09
1.11375e-09
1.02686e-09
9.46591e-10
8.72454e-10
8.0399e-10
7.40776e-10
6.8242e-10
6.28556e-10
5.78848e-10
5.32983e-10
4.9067e-10
4.51641e-10
4.15648e-10
3.8246e-10
3.51863e-10
3.2366e-10
2.97668e-10
2.73718e-10
2.51654e-10
2.31329e-10
2.12611e-10
1.95375e-10
1.79507e-10
1.64901e-10
1.51458e-10
1.39088e-10
1.27708e-10
1.1724e-10
1.07613e-10
9.87606e-11
9.06224e-11
8.31421e-11
7.62676e-11
6.99513e-11
6.4149e-11
5.88198e-11
5.39263e-11
4.94339e-11
4.53105e-11
4.15268e-11
3.80556e-11
3.48721e-11
3.19532e-11
2.92778e-11
2.68264e-11
2.4581e-11
2.25253e-11
2.06441e-11
1.89234e-11
1.73506e-11
1.59139e-11
1.46025e-11
1.34067e-11
1.23175e-11
1.13266e-11
1.04265e-11
9.6104e-12
8.87206e-12
8.20583e-12
7.60662e-12
7.06981e-12
6.59126e-12
6.16729e-12
5.7946e-12
5.4703e-12
5.19187e-12
4.95714e-12
4.76428e-12
4.61178e-12
4.49842e-12
4.42331e-12
4.3859e-12
6.74041e-05
0.000202008
0.000336002
0.000468999
0.000600633
0.00073056
0.000858462
0.000984045
0.00110704
0.0012272
0.0013443
0.00145815
0.00156856
0.00167539
0.00177849
0.00187776
0.0019731
0.00206442
0.00215168
0.00223481
0.00231381
0.00238864
0.0024593
0.0025258
0.00258817
0.00264643
0.00270061
0.00275077
0.00279696
0.00283924
0.00287767
0.00291232
0.00294328
0.00297061
0.00299442
0.00301477
0.00303177
0.00304549
0.00305605
0.00306352
0.00306801
0.00306961
0.00306842
0.00306454
0.00305806
0.00304909
0.00303771
0.00302404
0.00300816
0.00299017
0.00297017
0.00294824
0.00292449
0.00289901
0.00287188
0.0028432
0.00281306
0.00278154
0.00274872
0.0027147
0.00267955
0.00264335
0.00260619
0.00256814
0.00252928
0.00248968
0.00244941
0.00240854
0.00236714
0.00232528
0.00228302
0.00224042
0.00219755
0.00215446
0.0021112
0.00206785
0.00202443
0.00198101
0.00193764
0.00189436
0.00185121
0.00180824
0.00176549
0.00172299
0.00168079
0.00163892
0.00159741
0.00155629
0.00151559
0.00147534
0.00143557
0.00139629
0.00135754
0.00131933
0.00128168
0.0012446
0.00120812
0.00117225
0.001137
0.00110238
0.0010684
0.00103507
0.0010024
0.000970399
0.000939064
0.000908401
0.000878413
0.000849103
0.000820471
0.000792516
0.000765236
0.000738631
0.000712696
0.000687428
0.000662823
0.000638874
0.000615577
0.000592925
0.00057091
0.000549525
0.000528762
0.000508612
0.000489066
0.000470115
0.000451749
0.000433958
0.000416731
0.000400059
0.000383931
0.000368334
0.000353259
0.000338694
0.000324628
0.000311049
0.000297946
0.000285307
0.000273121
0.000261375
0.00025006
0.000239163
0.000228672
0.000218578
0.000208867
0.00019953
0.000190555
0.000181931
0.000173648
0.000165695
0.000158062
0.000150738
0.000143714
0.000136979
0.000130524
0.00012434
0.000118416
0.000112744
0.000107315
0.000102121
9.71525e-05
9.24016e-05
8.78602e-05
8.35204e-05
7.93748e-05
7.54157e-05
7.1636e-05
6.80287e-05
6.4587e-05
6.13042e-05
5.8174e-05
5.51902e-05
5.23467e-05
4.96378e-05
4.70578e-05
4.46014e-05
4.22632e-05
4.00382e-05
3.79215e-05
3.59085e-05
3.39945e-05
3.21752e-05
3.04463e-05
2.88039e-05
2.7244e-05
2.57629e-05
2.43569e-05
2.30226e-05
2.17566e-05
2.05559e-05
1.94172e-05
1.83377e-05
1.73145e-05
1.6345e-05
1.54265e-05
1.45566e-05
1.37329e-05
1.29532e-05
1.22152e-05
1.15169e-05
1.08564e-05
1.02317e-05
9.64097e-06
9.08258e-06
8.55483e-06
8.05617e-06
7.58509e-06
7.14017e-06
6.72005e-06
6.32343e-06
5.94909e-06
5.59584e-06
5.26257e-06
4.94821e-06
4.65176e-06
4.37226e-06
4.10879e-06
3.86048e-06
3.62651e-06
3.40609e-06
3.19849e-06
3.003e-06
2.81895e-06
2.6457e-06
2.48265e-06
2.32924e-06
2.18492e-06
2.04918e-06
1.92153e-06
1.80151e-06
1.6887e-06
1.58268e-06
1.48305e-06
1.38945e-06
1.30154e-06
1.21898e-06
1.14146e-06
1.06869e-06
1.00038e-06
9.36283e-07
8.76144e-07
8.19729e-07
7.66816e-07
7.17199e-07
6.70679e-07
6.27072e-07
5.86202e-07
5.47904e-07
5.12024e-07
4.78413e-07
4.46935e-07
4.17459e-07
3.89862e-07
3.6403e-07
3.39853e-07
3.1723e-07
2.96065e-07
2.76266e-07
2.57749e-07
2.40434e-07
2.24245e-07
2.09113e-07
1.9497e-07
1.81754e-07
1.69406e-07
1.57871e-07
1.47098e-07
1.37038e-07
1.27645e-07
1.18877e-07
1.10694e-07
1.03056e-07
9.59309e-08
8.92835e-08
8.30834e-08
7.73013e-08
7.19101e-08
6.68841e-08
6.21993e-08
5.78334e-08
5.37652e-08
4.99752e-08
4.64448e-08
4.31569e-08
4.00953e-08
3.72449e-08
3.45916e-08
3.21221e-08
2.98241e-08
2.76861e-08
2.56971e-08
2.38472e-08
2.2127e-08
2.05275e-08
1.90405e-08
1.76584e-08
1.6374e-08
1.51806e-08
1.40719e-08
1.3042e-08
1.20856e-08
1.11974e-08
1.03729e-08
9.60755e-09
8.89721e-09
8.23806e-09
7.6265e-09
7.0592e-09
6.53303e-09
6.0451e-09
5.5927e-09
5.17332e-09
4.78461e-09
4.42438e-09
4.0906e-09
3.78139e-09
3.49498e-09
3.22974e-09
2.98414e-09
2.75676e-09
2.5463e-09
2.35151e-09
2.17127e-09
2.00452e-09
1.85027e-09
1.7076e-09
1.57568e-09
1.45371e-09
1.34097e-09
1.23676e-09
1.14046e-09
1.05149e-09
9.69294e-10
8.93378e-10
8.23273e-10
7.58543e-10
6.98787e-10
6.43631e-10
5.92731e-10
5.45766e-10
5.02438e-10
4.62473e-10
4.25617e-10
3.91633e-10
3.60302e-10
3.31423e-10
3.04808e-10
2.80283e-10
2.57689e-10
2.36878e-10
2.1771e-10
2.00061e-10
1.83812e-10
1.68856e-10
1.5509e-10
1.42424e-10
1.30771e-10
1.20052e-10
1.10194e-10
1.01129e-10
9.27959e-11
8.51361e-11
7.80968e-11
7.1629e-11
6.56875e-11
6.02306e-11
5.52197e-11
5.06195e-11
4.63972e-11
4.25227e-11
3.89684e-11
3.57085e-11
3.27196e-11
2.998e-11
2.74698e-11
2.51706e-11
2.30655e-11
2.11392e-11
1.93773e-11
1.77667e-11
1.62955e-11
1.49527e-11
1.37283e-11
1.26129e-11
1.15982e-11
1.06766e-11
9.84089e-12
9.08484e-12
8.40263e-12
7.78905e-12
7.23936e-12
6.74934e-12
6.3152e-12
5.93357e-12
5.60149e-12
5.31639e-12
5.07603e-12
4.87855e-12
4.7224e-12
4.60633e-12
4.52941e-12
4.4911e-12
6.79558e-05
0.000203673
0.000338811
0.000472997
0.000605873
0.000737102
0.000866367
0.000993373
0.00111785
0.00123954
0.00135823
0.0014737
0.00158578
0.00169429
0.00179911
0.00190011
0.00199718
0.00209024
0.00217922
0.00226407
0.00234476
0.00242126
0.00249355
0.00256165
0.00262557
0.00268533
0.00274097
0.00279253
0.00284005
0.0028836
0.00292324
0.00295904
0.00299107
0.00301941
0.00304415
0.00306536
0.00308315
0.0030976
0.0031088
0.00311685
0.00312184
0.00312388
0.00312307
0.00311949
0.00311325
0.00310445
0.0030932
0.00307958
0.0030637
0.00304565
0.00302553
0.00300344
0.00297948
0.00295373
0.0029263
0.00289727
0.00286673
0.00283478
0.00280149
0.00276696
0.00273128
0.00269451
0.00265676
0.00261808
0.00257857
0.00253829
0.00249733
0.00245575
0.00241362
0.00237101
0.00232799
0.00228462
0.00224096
0.00219707
0.00215301
0.00210884
0.00206461
0.00202037
0.00197618
0.00193207
0.00188809
0.0018443
0.00180072
0.0017574
0.00171438
0.00167169
0.00162937
0.00158745
0.00154595
0.00150491
0.00146436
0.00142431
0.00138479
0.00134582
0.00130742
0.00126961
0.00123241
0.00119582
0.00115987
0.00112456
0.00108991
0.00105591
0.00102259
0.000989946
0.000957984
0.000926707
0.000896119
0.000866221
0.000837014
0.000808498
0.000780671
0.000753531
0.000727075
0.000701299
0.000676199
0.000651769
0.000628003
0.000604894
0.000582436
0.00056062
0.000539439
0.000518883
0.000498943
0.00047961
0.000460873
0.000442724
0.00042515
0.000408142
0.000391687
0.000375776
0.000360397
0.000345538
0.000331188
0.000317335
0.000303967
0.000291073
0.00027864
0.000266658
0.000255114
0.000243997
0.000233294
0.000222996
0.000213089
0.000203563
0.000194407
0.000185609
0.000177159
0.000169045
0.000161257
0.000153786
0.000146619
0.000139748
0.000133163
0.000126853
0.00012081
0.000115023
0.000109485
0.000104186
9.91166e-05
9.42697e-05
8.96365e-05
8.5209e-05
8.09795e-05
7.69404e-05
7.30843e-05
6.94041e-05
6.58928e-05
6.25436e-05
5.93502e-05
5.6306e-05
5.34051e-05
5.06414e-05
4.80093e-05
4.55031e-05
4.31177e-05
4.08477e-05
3.86883e-05
3.66345e-05
3.46818e-05
3.28257e-05
3.10619e-05
2.93863e-05
2.77949e-05
2.62838e-05
2.48494e-05
2.34881e-05
2.21965e-05
2.09715e-05
1.98098e-05
1.87084e-05
1.76646e-05
1.66754e-05
1.57384e-05
1.48509e-05
1.40106e-05
1.32151e-05
1.24622e-05
1.17498e-05
1.10759e-05
1.04385e-05
9.8359e-06
9.26622e-06
8.7278e-06
8.21905e-06
7.73845e-06
7.28454e-06
6.85592e-06
6.45129e-06
6.06937e-06
5.70898e-06
5.36897e-06
5.04826e-06
4.74581e-06
4.46066e-06
4.19186e-06
3.93853e-06
3.69983e-06
3.47496e-06
3.26316e-06
3.06372e-06
2.87594e-06
2.69919e-06
2.53285e-06
2.37633e-06
2.22909e-06
2.09061e-06
1.96038e-06
1.83794e-06
1.72284e-06
1.61467e-06
1.51303e-06
1.41755e-06
1.32785e-06
1.24362e-06
1.16454e-06
1.09029e-06
1.02061e-06
9.55214e-07
8.93858e-07
8.36302e-07
7.8232e-07
7.31699e-07
6.84239e-07
6.3975e-07
5.98054e-07
5.58982e-07
5.22376e-07
4.88086e-07
4.55971e-07
4.25899e-07
3.97744e-07
3.7139e-07
3.46724e-07
3.23644e-07
3.0205e-07
2.81851e-07
2.6296e-07
2.45295e-07
2.28779e-07
2.13341e-07
1.98912e-07
1.85428e-07
1.72831e-07
1.61063e-07
1.50072e-07
1.39809e-07
1.30226e-07
1.21281e-07
1.12932e-07
1.0514e-07
9.78704e-08
9.10886e-08
8.47632e-08
7.88642e-08
7.3364e-08
6.82363e-08
6.34568e-08
5.90026e-08
5.48522e-08
5.09856e-08
4.73839e-08
4.40295e-08
4.0906e-08
3.79979e-08
3.5291e-08
3.27715e-08
3.04271e-08
2.82458e-08
2.62167e-08
2.43294e-08
2.25743e-08
2.09425e-08
1.94255e-08
1.80154e-08
1.67051e-08
1.54875e-08
1.43564e-08
1.33057e-08
1.23299e-08
1.14238e-08
1.05826e-08
9.80179e-09
9.07709e-09
8.40461e-09
7.78069e-09
7.20192e-09
6.66511e-09
6.16732e-09
5.70577e-09
5.27791e-09
4.88134e-09
4.51383e-09
4.1733e-09
3.85784e-09
3.56564e-09
3.29504e-09
3.04447e-09
2.8125e-09
2.59778e-09
2.39905e-09
2.21517e-09
2.04504e-09
1.88767e-09
1.74213e-09
1.60754e-09
1.4831e-09
1.36808e-09
1.26176e-09
1.16352e-09
1.07274e-09
9.8889e-10
9.1144e-10
8.39917e-10
7.73879e-10
7.12914e-10
6.56644e-10
6.04714e-10
5.56799e-10
5.12596e-10
4.71823e-10
4.34222e-10
3.9955e-10
3.67586e-10
3.38123e-10
3.1097e-10
2.8595e-10
2.62899e-10
2.41666e-10
2.22112e-10
2.04106e-10
1.87528e-10
1.72269e-10
1.58226e-10
1.45303e-10
1.33415e-10
1.22479e-10
1.12422e-10
1.03174e-10
9.46719e-11
8.68573e-11
7.96757e-11
7.30771e-11
6.70155e-11
6.14482e-11
5.63361e-11
5.16428e-11
4.73352e-11
4.33824e-11
3.97562e-11
3.64304e-11
3.33811e-11
3.05861e-11
2.80251e-11
2.56794e-11
2.35318e-11
2.15665e-11
1.9769e-11
1.81259e-11
1.6625e-11
1.5255e-11
1.40058e-11
1.28679e-11
1.18327e-11
1.08924e-11
1.00398e-11
9.2685e-12
8.5725e-12
7.94651e-12
7.38571e-12
6.88578e-12
6.44286e-12
6.05352e-12
5.71473e-12
5.42386e-12
5.17865e-12
4.97718e-12
4.81788e-12
4.69947e-12
4.62099e-12
4.58192e-12
6.84314e-05
0.000205107
0.000341225
0.000476423
0.000610352
0.000742678
0.000873088
0.00100129
0.001127
0.00124998
0.00136998
0.00148681
0.00160027
0.0017102
0.00181644
0.00191888
0.0020174
0.0021119
0.00220232
0.00228861
0.0023707
0.00244859
0.00252225
0.00259168
0.00265689
0.00271791
0.00277476
0.00282748
0.00287612
0.00292073
0.00296138
0.00299814
0.00303107
0.00306025
0.00308577
0.00310771
0.00312616
0.00314121
0.00315295
0.00316149
0.00316691
0.00316932
0.00316882
0.0031655
0.00315946
0.00315082
0.00313966
0.00312608
0.0031102
0.00309211
0.0030719
0.00304967
0.00302553
0.00299957
0.00297188
0.00294255
0.00291169
0.00287937
0.0028457
0.00281075
0.00277461
0.00273737
0.00269912
0.00265992
0.00261986
0.00257903
0.00253748
0.0024953
0.00245256
0.00240933
0.00236567
0.00232165
0.00227733
0.00223278
0.00218805
0.0021432
0.00209829
0.00205336
0.00200847
0.00196367
0.001919
0.00187452
0.00183025
0.00178624
0.00174253
0.00169916
0.00165616
0.00161357
0.0015714
0.0015297
0.00148849
0.00144779
0.00140763
0.00136803
0.00132901
0.00129058
0.00125277
0.00121558
0.00117904
0.00114315
0.00110793
0.00107338
0.00103951
0.00100633
0.000973843
0.000942051
0.00091096
0.000880569
0.000850881
0.000821895
0.000793609
0.000766021
0.000739128
0.000712926
0.000687411
0.000662577
0.000638418
0.000614928
0.000592098
0.000569921
0.000548389
0.000527492
0.000507222
0.000487569
0.000468522
0.000450072
0.000432207
0.000414916
0.000398189
0.000382015
0.00036638
0.000351275
0.000336687
0.000322604
0.000309014
0.000295906
0.000283267
0.000271086
0.000259351
0.000248049
0.000237169
0.000226699
0.000216628
0.000206944
0.000197636
0.000188692
0.000180101
0.000171853
0.000163936
0.00015634
0.000149055
0.00014207
0.000135375
0.00012896
0.000122817
0.000116934
0.000111304
0.000105916
0.000100763
9.58356e-05
9.11255e-05
8.66245e-05
8.23248e-05
7.82186e-05
7.42984e-05
7.05571e-05
6.69874e-05
6.35826e-05
6.03361e-05
5.72414e-05
5.42923e-05
5.14827e-05
4.88068e-05
4.62591e-05
4.3834e-05
4.15263e-05
3.9331e-05
3.72431e-05
3.5258e-05
3.3371e-05
3.1578e-05
2.98745e-05
2.82566e-05
2.67204e-05
2.52622e-05
2.38783e-05
2.25653e-05
2.13199e-05
2.01389e-05
1.90192e-05
1.7958e-05
1.69525e-05
1.59999e-05
1.50976e-05
1.42433e-05
1.34346e-05
1.26692e-05
1.1945e-05
1.12599e-05
1.0612e-05
9.99931e-06
9.42016e-06
8.8728e-06
8.3556e-06
7.86701e-06
7.40555e-06
6.96982e-06
6.55846e-06
6.1702e-06
5.80382e-06
5.45816e-06
5.13212e-06
4.82466e-06
4.53476e-06
4.2615e-06
4.00396e-06
3.76129e-06
3.53269e-06
3.31737e-06
3.11461e-06
2.92372e-06
2.74403e-06
2.57493e-06
2.41581e-06
2.26613e-06
2.12534e-06
1.99295e-06
1.86847e-06
1.75146e-06
1.6415e-06
1.53817e-06
1.4411e-06
1.34991e-06
1.26428e-06
1.18388e-06
1.10841e-06
1.03756e-06
9.71082e-07
9.08708e-07
8.50195e-07
7.95317e-07
7.43855e-07
6.95606e-07
6.50378e-07
6.07989e-07
5.68268e-07
5.31054e-07
4.96194e-07
4.63546e-07
4.32974e-07
4.04352e-07
3.7756e-07
3.52484e-07
3.29021e-07
3.07068e-07
2.86534e-07
2.67329e-07
2.4937e-07
2.3258e-07
2.16885e-07
2.02216e-07
1.88509e-07
1.75702e-07
1.63739e-07
1.52565e-07
1.42131e-07
1.3239e-07
1.23296e-07
1.14808e-07
1.06887e-07
9.94963e-08
9.26019e-08
8.61713e-08
8.01743e-08
7.45827e-08
6.93699e-08
6.4511e-08
5.99828e-08
5.57635e-08
5.18326e-08
4.8171e-08
4.47609e-08
4.15855e-08
3.86292e-08
3.58772e-08
3.3316e-08
3.09326e-08
2.8715e-08
2.66522e-08
2.47335e-08
2.29493e-08
2.12904e-08
1.97482e-08
1.83147e-08
1.69826e-08
1.57448e-08
1.45949e-08
1.35267e-08
1.25347e-08
1.16136e-08
1.07584e-08
9.96462e-09
9.22789e-09
8.54423e-09
7.90995e-09
7.32156e-09
6.77584e-09
6.26977e-09
5.80056e-09
5.36559e-09
4.96243e-09
4.58881e-09
4.24263e-09
3.92193e-09
3.62488e-09
3.34978e-09
3.09505e-09
2.85922e-09
2.64093e-09
2.43891e-09
2.25197e-09
2.07902e-09
1.91903e-09
1.77107e-09
1.63424e-09
1.50774e-09
1.3908e-09
1.28272e-09
1.18284e-09
1.09056e-09
1.00532e-09
9.26581e-10
8.5387e-10
7.86734e-10
7.24757e-10
6.67552e-10
6.1476e-10
5.66049e-10
5.21111e-10
4.79661e-10
4.41435e-10
4.06188e-10
3.73693e-10
3.4374e-10
3.16136e-10
2.907e-10
2.67266e-10
2.45681e-10
2.25802e-10
2.07496e-10
1.90644e-10
1.75131e-10
1.60854e-10
1.47717e-10
1.35631e-10
1.24514e-10
1.14289e-10
1.04888e-10
9.62446e-11
8.83002e-11
8.09993e-11
7.42911e-11
6.81288e-11
6.2469e-11
5.72719e-11
5.25007e-11
4.81215e-11
4.41031e-11
4.04166e-11
3.70356e-11
3.39356e-11
3.10942e-11
2.84907e-11
2.6106e-11
2.39228e-11
2.19248e-11
2.00974e-11
1.8427e-11
1.69011e-11
1.55085e-11
1.42385e-11
1.30817e-11
1.20293e-11
1.10733e-11
1.02066e-11
9.42246e-12
8.71491e-12
8.07852e-12
7.5084e-12
7.00017e-12
6.54989e-12
6.15408e-12
5.80966e-12
5.51397e-12
5.26468e-12
5.05987e-12
4.89792e-12
4.77754e-12
4.69777e-12
4.65804e-12
6.88215e-05
0.000206283
0.000343202
0.000479223
0.000614005
0.000747219
0.000878551
0.00100771
0.00113442
0.00125842
0.00137948
0.0014974
0.00161197
0.00172302
0.00183041
0.00193399
0.00203367
0.00212933
0.0022209
0.00230833
0.00239155
0.00247055
0.0025453
0.0026158
0.00268205
0.00274407
0.00280189
0.00285555
0.00290508
0.00295055
0.00299201
0.00302953
0.00306318
0.00309304
0.00311919
0.00314171
0.00316069
0.00317622
0.00318841
0.00319733
0.0032031
0.00320581
0.00320555
0.00320244
0.00319657
0.00318805
0.00317697
0.00316344
0.00314755
0.00312942
0.00310914
0.00308681
0.00306252
0.00303639
0.00300849
0.00297893
0.0029478
0.0029152
0.00288121
0.00284592
0.00280943
0.00277181
0.00273315
0.00269354
0.00265305
0.00261176
0.00256974
0.00252709
0.00248386
0.00244012
0.00239595
0.00235141
0.00230656
0.00226148
0.00221621
0.00217081
0.00212535
0.00207987
0.00203443
0.00198907
0.00194385
0.0018988
0.00185398
0.00180942
0.00176516
0.00172124
0.0016777
0.00163456
0.00159186
0.00154962
0.00150788
0.00146666
0.00142599
0.00138588
0.00134635
0.00130743
0.00126913
0.00123147
0.00119445
0.0011581
0.00112242
0.00108742
0.00105311
0.0010195
0.00098659
0.000954385
0.000922889
0.000892103
0.000862027
0.000832663
0.000804008
0.00077606
0.000748816
0.000722272
0.000696424
0.000671265
0.000646791
0.000622993
0.000599864
0.000577397
0.000555583
0.000534413
0.000513877