/*--------------------------------*- C++ -*----------------------------------*\
  =========                 |
  \\      /  F ield         | OpenFOAM: The Open Source CFD Toolbox
   \\    /   O peration     | Website:  https://openfoam.org
    \\  /    A nd           | Version:  10
     \\/     M anipulation  |
\*---------------------------------------------------------------------------*/
FoamFile
{
    format      ascii;
    class       volScalarField;
    location    "0.1";
    object      s;
}
// * * * * * * * * * * * * * * * * * * * * * * * * * * * * * * * * * * * * * //

dimensions      [0 0 1 0 0 0 0];

internalField   nonuniform List<scalar> 
400
(
-4.65094e-15
-3.95026e-16
-1.40136e-13
-1.8097e-13
1.5874e-11
5.34706e-11
4.13681e-11
1.80021e-10
8.35065e-10
-3.3191e-09
-3.71521e-08
-5.55356e-08
-2.46132e-07
1.16442e-07
-1.68143e-08
9.83807e-10
-2.3216e-11
1.77972e-13
-1.99579e-16
-1.32461e-17
-4.64679e-14
2.50411e-12
2.03642e-10
-1.10179e-10
-1.34793e-08
-3.87195e-08
-3.08802e-08
-7.01529e-08
-1.50086e-07
1.73938e-06
1.05453e-05
1.10657e-05
-1.28177e-05
2.79092e-06
-2.14579e-07
5.81273e-09
-4.43624e-11
3.9399e-13
-3.41212e-15
8.46326e-19
4.60075e-11
-1.33863e-09
-5.39549e-08
5.78189e-08
2.4335e-06
6.3585e-06
4.37524e-06
-4.59536e-07
5.9002e-06
3.22897e-05
5.30529e-05
3.56371e-05
8.33654e-05
-4.65392e-05
8.26942e-06
-6.42719e-07
2.23533e-08
-3.05552e-10
1.18832e-12
-6.19353e-16
-7.7246e-09
1.70149e-07
4.59336e-06
-5.14331e-06
-0.000151241
-0.000374094
-0.000298542
-4.55866e-05
-0.000173601
-0.00114788
-0.00221051
-0.000440057
0.00128794
-0.000394567
5.04855e-05
-3.26592e-06
1.1243e-07
-1.90351e-09
1.14019e-11
-1.09746e-14
4.40243e-07
-7.12672e-06
-0.00015146
0.000137826
0.00377538
0.00927524
0.00875752
0.00268434
-0.00464039
-0.0104134
-0.00817805
-0.00122836
-0.000518517
0.000912785
-0.000238046
2.54529e-05
-1.22446e-06
2.41615e-08
-1.5265e-10
1.77319e-13
-9.40346e-06
9.91285e-05
0.00190214
-0.000899382
-0.0357382
-0.0917217
-0.104855
-0.0688514
-0.00644179
0.0595712
0.0544705
-0.0129524
-0.0201632
0.00978088
-0.00190083
0.000190216
-9.85281e-06
2.35144e-07
-1.98864e-09
3.28177e-12
5.60371e-05
-0.000196345
-0.00573619
-0.00480875
0.0633826
0.219226
0.399816
0.594482
0.720729
0.554791
0.172015
-0.0611524
-0.0337367
0.0185912
-0.0039114
0.000441938
-2.71256e-05
8.03137e-07
-8.7562e-09
1.89944e-11
0.000148557
-0.00174289
-0.0178942
0.0195693
0.290571
0.691858
0.905695
0.950338
0.826631
0.437007
0.0628932
-0.0632495
-0.0139505
0.0146055
-0.00407661
0.000582699
-4.47516e-05
1.67228e-06
-2.34841e-08
6.62051e-11
0.000195551
-0.00419359
-0.0246761
0.0728101
0.50485
0.981025
1.08292
0.965233
0.717079
0.311973
0.00849214
-0.0592591
-0.00358231
0.0119205
-0.00402332
0.000656776
-5.77899e-05
2.55818e-06
-4.49509e-08
1.68159e-10
0.000176163
-0.00695834
-0.0237742
0.136237
0.645449
1.07605
1.0753
0.896656
0.613632
0.226743
-0.0217401
-0.0504711
0.00188883
0.00816059
-0.0029664
0.000503986
-4.74955e-05
2.38755e-06
-5.17739e-08
2.64837e-10
8.49917e-05
-0.0094854
-0.0168011
0.192624
0.711552
1.06238
1.01589
0.838304
0.548959
0.179508
-0.0291129
-0.0351685
0.00354286
0.00321137
-0.00113181
0.000182223
-1.73177e-05
9.72452e-07
-2.6812e-08
2.03121e-10
-6.70406e-05
-0.0126116
-0.00855154
0.246004
0.774728
1.09603
1.05461
0.859908
0.507925
0.126295
-0.0263625
-0.00988589
0.00213401
-0.000343816
0.000117802
-2.48713e-05
2.62677e-06
-1.28594e-07
1.79272e-09
1.37917e-11
-0.000501625
-0.016616
0.00418402
0.314305
0.863462
1.12963
0.96682
0.609994
0.211363
-0.0137767
-0.0101297
0.00655961
-0.000274136
-0.000470683
0.000139193
-2.03789e-05
1.8698e-06
-1.08585e-07
3.69831e-09
-4.97527e-11
-0.00133042
-0.0186189
0.0280409
0.377062
0.876168
0.987575
0.656684
0.252833
0.0127109
-0.0199932
0.00526981
-0.00149453
-7.38455e-05
0.00018487
-5.46878e-05
8.49329e-06
-7.90175e-07
5.22053e-08
1.41553e-10
-6.59489e-11
-0.00220422
-0.0152741
0.0561796
0.380312
0.726628
0.669786
0.307822
0.0305389
-0.0366584
-0.0055372
0.000822834
4.20991e-05
4.84835e-05
-3.92202e-05
1.09393e-05
-1.62426e-06
2.20801e-07
1.71948e-08
9.35932e-09
-6.83109e-11
-0.00252653
-0.0073548
0.0700566
0.30232
0.468659
0.338808
0.0802219
-0.0408034
-0.0291826
-0.00216178
0.000536238
0.000145508
2.39881e-05
7.9166e-06
-1.80213e-06
5.82454e-07
1.83503e-07
9.81696e-08
4.13754e-08
2.81968e-09
-0.00201067
6.29716e-05
0.0591095
0.181959
0.229695
0.120386
-0.00105533
-0.0369477
-0.0222589
-0.00649033
-0.00059439
0.000298897
0.000111897
7.1405e-06
-5.46207e-07
1.00826e-06
6.12731e-07
3.14699e-07
1.57354e-07
2.5466e-08
-0.00109316
0.00251757
0.0327097
0.077994
0.0786065
0.034716
-0.00212966
-0.0140314
-0.0115873
-0.00633899
-0.00270237
-0.00091303
-0.000233695
-3.83726e-05
-8.53785e-07
2.1229e-06
1.52102e-06
9.46738e-07
5.23535e-07
1.27988e-07
-0.000423989
0.00136205
0.010229
0.0178199
0.0156215
0.00885277
0.00341806
0.000507206
-0.000555497
-0.000653026
-0.000440151
-0.000237806
-0.000108398
-3.99528e-05
-9.19761e-06
1.68901e-06
3.66526e-06
2.75397e-06
1.54841e-06
4.48841e-07
-0.000127905
0.000152896
0.000719318
0.000787278
0.000566774
0.000449557
0.0004055
0.000347275
0.000270579
0.000198632
0.000142687
0.000101404
7.10654e-05
4.88605e-05
3.27753e-05
2.12932e-05
1.3229e-05
7.64209e-06
3.77246e-06
1.13137e-06
)
;

boundaryField
{
    movingWall
    {
        type            zeroGradient;
    }
    fixedWalls
    {
        type            zeroGradient;
    }
    frontAndBack
    {
        type            empty;
    }
}


// ************************************************************************* //
