/*--------------------------------*- C++ -*----------------------------------*\
  =========                 |
  \\      /  F ield         | OpenFOAM: The Open Source CFD Toolbox
   \\    /   O peration     | Website:  https://openfoam.org
    \\  /    A nd           | Version:  10
     \\/     M anipulation  |
\*---------------------------------------------------------------------------*/
FoamFile
{
    format      ascii;
    class       volScalarField;
    location    "0.44";
    object      beta;
}
// * * * * * * * * * * * * * * * * * * * * * * * * * * * * * * * * * * * * * //

dimensions      [0 0 0 0 0 0 0];

internalField   uniform 0;

boundaryField
{
    frontAndBack
    {
        type            empty;
    }
    inlet
    {
        type            calculated;
        value           uniform 0;
    }
    outlet
    {
        type            calculated;
        value           uniform 0;
    }
    substrate
    {
        type            calculated;
        value           nonuniform List<scalar> 
400
(
0.00265327
0.00287575
0.00308653
0.00329102
0.00349175
0.00368999
0.00388634
0.00408104
0.00427413
0.00446549
0.00465494
0.00484226
0.00502719
0.00520947
0.00538884
0.00556503
0.00573782
0.00590698
0.00607232
0.00623366
0.00639086
0.00654378
0.00669234
0.00683646
0.00697607
0.00711116
0.0072417
0.00736771
0.0074892
0.00760622
0.00771881
0.00782704
0.00793099
0.00803074
0.00812637
0.00821799
0.00830571
0.00838962
0.00846984
0.00854649
0.00861968
0.00868953
0.00875615
0.00881966
0.00888018
0.00893782
0.0089927
0.00904493
0.00909461
0.00914185
0.00918676
0.00922944
0.00926999
0.0093085
0.00934506
0.00937976
0.0094127
0.00944395
0.00947359
0.0095017
0.00952836
0.00955362
0.00957757
0.00960027
0.00962178
0.00964215
0.00966145
0.00967973
0.00969704
0.00971344
0.00972895
0.00974365
0.00975755
0.00977072
0.00978318
0.00979497
0.00980612
0.00981668
0.00982667
0.00983611
0.00984505
0.00985351
0.0098615
0.00986907
0.00987622
0.00988299
0.00988939
0.00989544
0.00990116
0.00990657
0.00991169
0.00991652
0.0099211
0.00992542
0.00992951
0.00993338
0.00993703
0.00994048
0.00994375
0.00994684
0.00994975
0.00995251
0.00995512
0.00995758
0.00995991
0.00996211
0.0099642
0.00996616
0.00996802
0.00996978
0.00997144
0.00997301
0.00997449
0.0099759
0.00997722
0.00997847
0.00997966
0.00998078
0.00998183
0.00998283
0.00998378
0.00998467
0.00998551
0.00998631
0.00998706
0.00998777
0.00998845
0.00998908
0.00998968
0.00999025
0.00999079
0.00999129
0.00999177
0.00999223
0.00999265
0.00999306
0.00999344
0.0099938
0.00999414
0.00999447
0.00999477
0.00999506
0.00999533
0.00999559
0.00999583
0.00999606
0.00999628
0.00999648
0.00999668
0.00999686
0.00999703
0.0099972
0.00999735
0.0099975
0.00999763
0.00999776
0.00999789
0.009998
0.00999811
0.00999822
0.00999832
0.00999841
0.0099985
0.00999858
0.00999866
0.00999873
0.0099988
0.00999887
0.00999893
0.00999899
0.00999904
0.0099991
0.00999915
0.00999919
0.00999924
0.00999928
0.00999932
0.00999936
0.00999939
0.00999943
0.00999946
0.00999949
0.00999952
0.00999954
0.00999957
0.00999959
0.00999961
0.00999964
0.00999966
0.00999967
0.00999969
0.00999971
0.00999973
0.00999974
0.00999976
0.00999977
0.00999978
0.00999979
0.00999981
0.00999982
0.00999983
0.00999984
0.00999984
0.00999985
0.00999986
0.00999987
0.00999988
0.00999988
0.00999989
0.0099999
0.0099999
0.00999991
0.00999991
0.00999992
0.00999992
0.00999993
0.00999993
0.00999993
0.00999994
0.00999994
0.00999994
0.00999995
0.00999995
0.00999995
0.00999996
0.00999996
0.00999996
0.00999996
0.00999996
0.00999997
0.00999997
0.00999997
0.00999997
0.00999997
0.00999997
0.00999998
0.00999998
0.00999998
0.00999998
0.00999998
0.00999998
0.00999998
0.00999998
0.00999999
0.00999999
0.00999999
0.00999999
0.00999999
0.00999999
0.00999999
0.00999999
0.00999999
0.00999999
0.00999999
0.00999999
0.00999999
0.00999999
0.00999999
0.00999999
0.00999999
0.00999999
0.00999999
0.00999999
0.01
0.01
0.01
0.01
0.01
0.01
0.01
0.01
0.01
0.01
0.01
0.01
0.01
0.01
0.01
0.01
0.01
0.01
0.01
0.01
0.01
0.01
0.01
0.01
0.01
0.01
0.01
0.01
0.01
0.01
0.01
0.01
0.01
0.01
0.01
0.01
0.01
0.01
0.01
0.01
0.01
0.01
0.01
0.01
0.01
0.01
0.01
0.01
0.01
0.01
0.01
0.01
0.01
0.01
0.01
0.01
0.01
0.01
0.01
0.01
0.01
0.01
0.01
0.01
0.01
0.01
0.01
0.01
0.01
0.01
0.01
0.01
0.01
0.01
0.01
0.01
0.01
0.01
0.01
0.01
0.01
0.01
0.01
0.01
0.01
0.01
0.01
0.01
0.01
0.01
0.01
0.01
0.01
0.01
0.01
0.01
0.01
0.01
0.01
0.01
0.01
0.01
0.01
0.01
0.01
0.01
0.01
0.01
0.01
0.01
0.01
0.01
0.01
0.01
0.01
0.01
0.01
0.01
0.01
0.01
0.01
0.01
0.01
0.01
0.01
0.01
0.01
0.01
0.01
0.01
0.01
0.01
0.01
0.01
0.01
0.01
0.01
)
;
    }
    Wall
    {
        type            calculated;
        value           nonuniform List<scalar> 
400
(
0.00265327
0.00287576
0.00308653
0.00329101
0.00349175
0.00368999
0.00388634
0.00408105
0.00427413
0.00446549
0.00465494
0.00484226
0.00502719
0.00520947
0.00538883
0.00556502
0.0057378
0.00590696
0.0060723
0.00623363
0.00639083
0.00654375
0.00669231
0.00683642
0.00697603
0.00711112
0.00724166
0.00736766
0.00748915
0.00760617
0.00771876
0.00782699
0.00793094
0.00803068
0.00812632
0.00821794
0.00830565
0.00838957
0.00846979
0.00854644
0.00861963
0.00868948
0.0087561
0.00881961
0.00888014
0.00893778
0.00899266
0.00904489
0.00909457
0.00914181
0.00918672
0.00922941
0.00926995
0.00930846
0.00934503
0.00937973
0.00941267
0.00944392
0.00947356
0.00950167
0.00952833
0.0095536
0.00957755
0.00960025
0.00962176
0.00964213
0.00966143
0.00967971
0.00969703
0.00971342
0.00972894
0.00974363
0.00975754
0.0097707
0.00978316
0.00979495
0.00980611
0.00981667
0.00982666
0.0098361
0.00984504
0.0098535
0.0098615
0.00986906
0.00987622
0.00988298
0.00988938
0.00989543
0.00990116
0.00990657
0.00991168
0.00991652
0.00992109
0.00992542
0.00992951
0.00993337
0.00993703
0.00994048
0.00994375
0.00994683
0.00994975
0.00995251
0.00995512
0.00995758
0.00995991
0.00996211
0.00996419
0.00996616
0.00996802
0.00996978
0.00997144
0.00997301
0.00997449
0.00997589
0.00997722
0.00997847
0.00997966
0.00998077
0.00998183
0.00998283
0.00998378
0.00998467
0.00998551
0.00998631
0.00998706
0.00998777
0.00998845
0.00998908
0.00998968
0.00999025
0.00999079
0.00999129
0.00999177
0.00999223
0.00999265
0.00999306
0.00999344
0.0099938
0.00999414
0.00999447
0.00999477
0.00999506
0.00999533
0.00999559
0.00999583
0.00999606
0.00999628
0.00999648
0.00999668
0.00999686
0.00999703
0.0099972
0.00999735
0.0099975
0.00999763
0.00999776
0.00999789
0.009998
0.00999811
0.00999822
0.00999832
0.00999841
0.0099985
0.00999858
0.00999866
0.00999873
0.0099988
0.00999887
0.00999893
0.00999899
0.00999904
0.0099991
0.00999915
0.00999919
0.00999924
0.00999928
0.00999932
0.00999936
0.00999939
0.00999943
0.00999946
0.00999949
0.00999952
0.00999954
0.00999957
0.00999959
0.00999961
0.00999964
0.00999966
0.00999967
0.00999969
0.00999971
0.00999973
0.00999974
0.00999976
0.00999977
0.00999978
0.00999979
0.00999981
0.00999982
0.00999983
0.00999984
0.00999984
0.00999985
0.00999986
0.00999987
0.00999988
0.00999988
0.00999989
0.0099999
0.0099999
0.00999991
0.00999991
0.00999992
0.00999992
0.00999993
0.00999993
0.00999993
0.00999994
0.00999994
0.00999994
0.00999995
0.00999995
0.00999995
0.00999996
0.00999996
0.00999996
0.00999996
0.00999996
0.00999997
0.00999997
0.00999997
0.00999997
0.00999997
0.00999997
0.00999998
0.00999998
0.00999998
0.00999998
0.00999998
0.00999998
0.00999998
0.00999998
0.00999999
0.00999999
0.00999999
0.00999999
0.00999999
0.00999999
0.00999999
0.00999999
0.00999999
0.00999999
0.00999999
0.00999999
0.00999999
0.00999999
0.00999999
0.00999999
0.00999999
0.00999999
0.00999999
0.00999999
0.01
0.01
0.01
0.01
0.01
0.01
0.01
0.01
0.01
0.01
0.01
0.01
0.01
0.01
0.01
0.01
0.01
0.01
0.01
0.01
0.01
0.01
0.01
0.01
0.01
0.01
0.01
0.01
0.01
0.01
0.01
0.01
0.01
0.01
0.01
0.01
0.01
0.01
0.01
0.01
0.01
0.01
0.01
0.01
0.01
0.01
0.01
0.01
0.01
0.01
0.01
0.01
0.01
0.01
0.01
0.01
0.01
0.01
0.01
0.01
0.01
0.01
0.01
0.01
0.01
0.01
0.01
0.01
0.01
0.01
0.01
0.01
0.01
0.01
0.01
0.01
0.01
0.01
0.01
0.01
0.01
0.01
0.01
0.01
0.01
0.01
0.01
0.01
0.01
0.01
0.01
0.01
0.01
0.01
0.01
0.01
0.01
0.01
0.01
0.01
0.01
0.01
0.01
0.01
0.01
0.01
0.01
0.01
0.01
0.01
0.01
0.01
0.01
0.01
0.01
0.01
0.01
0.01
0.01
0.01
0.01
0.01
0.01
0.01
0.01
0.01
0.01
0.01
0.01
0.01
0.01
0.01
0.01
0.01
0.01
0.01
0.01
)
;
    }
}


// ************************************************************************* //
