/*--------------------------------*- C++ -*----------------------------------*\
  =========                 |
  \\      /  F ield         | OpenFOAM: The Open Source CFD Toolbox
   \\    /   O peration     | Website:  https://openfoam.org
    \\  /    A nd           | Version:  10
     \\/     M anipulation  |
\*---------------------------------------------------------------------------*/
FoamFile
{
    format      ascii;
    class       volScalarField;
    location    "0.44";
    object      growth;
}
// * * * * * * * * * * * * * * * * * * * * * * * * * * * * * * * * * * * * * //

dimensions      [0 0 0 0 0 0 0];

internalField   uniform 0;

boundaryField
{
    frontAndBack
    {
        type            empty;
    }
    inlet
    {
        type            calculated;
        value           uniform 0;
    }
    outlet
    {
        type            calculated;
        value           uniform 0;
    }
    substrate
    {
        type            calculated;
        value           nonuniform List<scalar> 
400
(
0.734673
0.712425
0.691347
0.670898
0.650825
0.631001
0.611366
0.591896
0.572587
0.553451
0.534506
0.515774
0.497281
0.479053
0.461116
0.443497
0.426218
0.409302
0.392768
0.376634
0.360914
0.345622
0.330766
0.316354
0.302393
0.288884
0.27583
0.263229
0.25108
0.239378
0.228119
0.217296
0.206901
0.196926
0.187363
0.178201
0.169429
0.161038
0.153016
0.145351
0.138032
0.131047
0.124385
0.118034
0.111982
0.106218
0.10073
0.0955073
0.0905392
0.0858148
0.0813237
0.0770558
0.0730012
0.0691504
0.0654941
0.0620235
0.0587299
0.0556051
0.0526409
0.0498298
0.0471644
0.0446375
0.0422425
0.0399728
0.0378222
0.0357847
0.0338547
0.0320267
0.0302956
0.0286565
0.0271045
0.0256353
0.0242445
0.0229282
0.0216824
0.0205034
0.0193878
0.0183322
0.0173335
0.0163886
0.0154948
0.0146493
0.0138496
0.0130931
0.0123777
0.0117011
0.0110612
0.0104561
0.00988392
0.00934287
0.00883127
0.00834755
0.0078902
0.00745779
0.00704898
0.00666249
0.00629711
0.0059517
0.00562517
0.0053165
0.00502471
0.00474889
0.00448817
0.00424172
0.00400878
0.0037886
0.00358048
0.00338378
0.00319785
0.00302213
0.00285604
0.00269907
0.00255071
0.00241049
0.00227797
0.00215272
0.00203435
0.00192248
0.00181676
0.00171684
0.00162241
0.00153317
0.00144883
0.00136913
0.00129381
0.00122263
0.00115536
0.00109179
0.00103171
0.000974937
0.000921285
0.000870584
0.00082267
0.000777392
0.000734604
0.000694169
0.000655958
0.00061985
0.000585727
0.000553482
0.00052301
0.000494215
0.000467005
0.000441291
0.000416992
0.000394031
0.000372333
0.000351829
0.000332453
0.000314144
0.000296842
0.000280492
0.000265043
0.000250443
0.000236648
0.000223611
0.000211293
0.000199652
0.000188652
0.000178258
0.000168436
0.000159155
0.000150384
0.000142097
0.000134266
0.000126866
0.000119873
0.000113266
0.000107022
0.000101122
9.55475e-05
9.02796e-05
8.53019e-05
8.05983e-05
7.61538e-05
7.19541e-05
6.79857e-05
6.42359e-05
6.06927e-05
5.73446e-05
5.4181e-05
5.11918e-05
4.83672e-05
4.56982e-05
4.31763e-05
4.07934e-05
3.85417e-05
3.64142e-05
3.44039e-05
3.25045e-05
3.07097e-05
2.90138e-05
2.74114e-05
2.58974e-05
2.44669e-05
2.31152e-05
2.1838e-05
2.06313e-05
1.94911e-05
1.84138e-05
1.73959e-05
1.64342e-05
1.55255e-05
1.46669e-05
1.38557e-05
1.30893e-05
1.23652e-05
1.1681e-05
1.10346e-05
1.04238e-05
9.8468e-06
9.30163e-06
8.78656e-06
8.29994e-06
7.84018e-06
7.40582e-06
6.99545e-06
6.60775e-06
6.24147e-06
5.89543e-06
5.56851e-06
5.25966e-06
4.96788e-06
4.69224e-06
4.43183e-06
4.18582e-06
3.95342e-06
3.73388e-06
3.52648e-06
3.33055e-06
3.14547e-06
2.97063e-06
2.80547e-06
2.64946e-06
2.50208e-06
2.36287e-06
2.23137e-06
2.10715e-06
1.98982e-06
1.87899e-06
1.77431e-06
1.67543e-06
1.58203e-06
1.49382e-06
1.4105e-06
1.3318e-06
1.25747e-06
1.18727e-06
1.12096e-06
1.05834e-06
9.99198e-07
9.43342e-07
8.90591e-07
8.40772e-07
7.93724e-07
7.49293e-07
7.07335e-07
6.67711e-07
6.30294e-07
5.9496e-07
5.61594e-07
5.30088e-07
5.00337e-07
4.72245e-07
4.4572e-07
4.20675e-07
3.97027e-07
3.74699e-07
3.53618e-07
3.33714e-07
3.14923e-07
2.97182e-07
2.80433e-07
2.64621e-07
2.49693e-07
2.35601e-07
2.22299e-07
2.09741e-07
1.97887e-07
1.86698e-07
1.76136e-07
1.66167e-07
1.56757e-07
1.47875e-07
1.39493e-07
1.31582e-07
1.24115e-07
1.17068e-07
1.10418e-07
1.04142e-07
9.822e-08
9.26314e-08
8.73578e-08
8.23816e-08
7.76862e-08
7.32559e-08
6.90758e-08
6.51319e-08
6.1411e-08
5.79005e-08
5.45887e-08
5.14645e-08
4.85172e-08
4.5737e-08
4.31145e-08
4.06408e-08
3.83075e-08
3.61067e-08
3.40311e-08
3.20735e-08
3.02273e-08
2.84862e-08
2.68443e-08
2.5296e-08
2.38359e-08
2.24593e-08
2.11612e-08
1.99373e-08
1.87834e-08
1.76955e-08
1.66699e-08
1.57031e-08
1.47917e-08
1.39325e-08
1.31227e-08
1.23594e-08
1.164e-08
1.09619e-08
1.03229e-08
9.72067e-09
9.15317e-09
8.61841e-09
8.11452e-09
7.63974e-09
7.19242e-09
6.77097e-09
6.37393e-09
5.9999e-09
5.64756e-09
5.31568e-09
5.00308e-09
4.70866e-09
4.43138e-09
4.17025e-09
3.92435e-09
3.6928e-09
3.47478e-09
3.26952e-09
3.07628e-09
2.89436e-09
2.72312e-09
2.56195e-09
2.41026e-09
2.26751e-09
2.13319e-09
2.00681e-09
1.88791e-09
1.77606e-09
1.67086e-09
1.57193e-09
1.4789e-09
1.39144e-09
1.30923e-09
1.23197e-09
1.15937e-09
1.09117e-09
1.02711e-09
9.66974e-10
9.10526e-10
8.5756e-10
8.07883e-10
7.61308e-10
7.17665e-10
6.76791e-10
6.38534e-10
6.02752e-10
5.69311e-10
5.38087e-10
5.08962e-10
4.81829e-10
4.56585e-10
4.33135e-10
4.11392e-10
3.91274e-10
3.72705e-10
3.55614e-10
3.39938e-10
3.25617e-10
3.12597e-10
3.00829e-10
2.90268e-10
2.80875e-10
2.72613e-10
2.65451e-10
2.59362e-10
2.54323e-10
2.50314e-10
2.47321e-10
2.45332e-10
2.4434e-10
)
;
    }
    Wall
    {
        type            calculated;
        value           nonuniform List<scalar> 
400
(
0.734673
0.712424
0.691347
0.670899
0.650825
0.631001
0.611366
0.591895
0.572587
0.553451
0.534506
0.515774
0.497281
0.479053
0.461117
0.443498
0.42622
0.409304
0.39277
0.376637
0.360917
0.345625
0.330769
0.316358
0.302397
0.288888
0.275834
0.263234
0.251085
0.239383
0.228124
0.217301
0.206906
0.196932
0.187368
0.178206
0.169435
0.161043
0.153021
0.145356
0.138037
0.131052
0.12439
0.118039
0.111986
0.106222
0.100734
0.0955115
0.0905433
0.0858187
0.0813275
0.0770595
0.0730047
0.0691538
0.0654975
0.0620267
0.058733
0.055608
0.0526437
0.0498325
0.047167
0.04464
0.0422449
0.0399751
0.0378243
0.0357867
0.0338566
0.0320286
0.0302974
0.0286581
0.0271061
0.0256368
0.024246
0.0229295
0.0216836
0.0205046
0.0193889
0.0183333
0.0173345
0.0163896
0.0154957
0.0146502
0.0138504
0.0130939
0.0123784
0.0117017
0.0110618
0.0104567
0.00988448
0.00934338
0.00883176
0.00834801
0.00789062
0.00745819
0.00704936
0.00666284
0.00629744
0.005952
0.00562545
0.00531676
0.00502495
0.00474912
0.00448838
0.00424192
0.00400896
0.00378877
0.00358064
0.00338392
0.00319799
0.00302226
0.00285616
0.00269918
0.00255081
0.00241058
0.00227805
0.0021528
0.00203443
0.00192255
0.00181682
0.0017169
0.00162247
0.00153322
0.00144888
0.00136917
0.00129385
0.00122266
0.00115539
0.00109182
0.00103174
0.000974963
0.000921309
0.000870606
0.000822691
0.000777411
0.000734621
0.000694185
0.000655973
0.000619863
0.000585739
0.000553493
0.00052302
0.000494225
0.000467013
0.000441299
0.000417
0.000394037
0.000372339
0.000351834
0.000332458
0.000314148
0.000296846
0.000280496
0.000265046
0.000250446
0.000236651
0.000223614
0.000211295
0.000199654
0.000188654
0.00017826
0.000168437
0.000159156
0.000150386
0.000142098
0.000134267
0.000126867
0.000119874
0.000113267
0.000107023
0.000101123
9.5548e-05
9.02801e-05
8.53023e-05
8.05987e-05
7.61541e-05
7.19544e-05
6.7986e-05
6.42362e-05
6.06929e-05
5.73448e-05
5.41812e-05
5.11919e-05
4.83673e-05
4.56983e-05
4.31764e-05
4.07935e-05
3.85418e-05
3.64143e-05
3.4404e-05
3.25045e-05
3.07097e-05
2.90139e-05
2.74115e-05
2.58975e-05
2.44669e-05
2.31152e-05
2.1838e-05
2.06313e-05
1.94911e-05
1.84138e-05
1.73959e-05
1.64342e-05
1.55255e-05
1.46669e-05
1.38557e-05
1.30893e-05
1.23652e-05
1.1681e-05
1.10346e-05
1.04238e-05
9.8468e-06
9.30164e-06
8.78657e-06
8.29994e-06
7.84018e-06
7.40582e-06
6.99545e-06
6.60775e-06
6.24147e-06
5.89543e-06
5.56851e-06
5.25966e-06
4.96789e-06
4.69224e-06
4.43183e-06
4.18582e-06
3.95342e-06
3.73388e-06
3.52648e-06
3.33055e-06
3.14547e-06
2.97063e-06
2.80548e-06
2.64946e-06
2.50209e-06
2.36287e-06
2.23137e-06
2.10716e-06
1.98982e-06
1.87899e-06
1.77431e-06
1.67543e-06
1.58203e-06
1.49382e-06
1.4105e-06
1.3318e-06
1.25747e-06
1.18727e-06
1.12096e-06
1.05834e-06
9.99198e-07
9.43342e-07
8.90591e-07
8.40773e-07
7.93725e-07
7.49294e-07
7.07335e-07
6.67712e-07
6.30295e-07
5.94961e-07
5.61595e-07
5.30088e-07
5.00338e-07
4.72246e-07
4.45721e-07
4.20675e-07
3.97027e-07
3.74699e-07
3.53618e-07
3.33715e-07
3.14923e-07
2.97182e-07
2.80433e-07
2.64621e-07
2.49694e-07
2.35602e-07
2.22299e-07
2.09741e-07
1.97887e-07
1.86698e-07
1.76136e-07
1.66167e-07
1.56757e-07
1.47876e-07
1.39493e-07
1.31582e-07
1.24115e-07
1.17069e-07
1.10418e-07
1.04143e-07
9.82202e-08
9.26316e-08
8.7358e-08
8.23818e-08
7.76864e-08
7.32561e-08
6.9076e-08
6.51321e-08
6.14111e-08
5.79007e-08
5.45889e-08
5.14646e-08
4.85174e-08
4.57372e-08
4.31146e-08
4.06409e-08
3.83076e-08
3.61069e-08
3.40312e-08
3.20736e-08
3.02274e-08
2.84863e-08
2.68444e-08
2.5296e-08
2.3836e-08
2.24594e-08
2.11613e-08
1.99374e-08
1.87835e-08
1.76956e-08
1.667e-08
1.57031e-08
1.47917e-08
1.39326e-08
1.31228e-08
1.23594e-08
1.164e-08
1.0962e-08
1.03229e-08
9.72072e-09
9.15322e-09
8.61846e-09
8.11456e-09
7.63978e-09
7.19245e-09
6.77101e-09
6.37396e-09
5.99993e-09
5.6476e-09
5.31571e-09
5.00311e-09
4.70869e-09
4.43141e-09
4.17028e-09
3.92437e-09
3.69283e-09
3.47481e-09
3.26954e-09
3.0763e-09
2.89438e-09
2.72314e-09
2.56197e-09
2.41028e-09
2.26753e-09
2.13321e-09
2.00682e-09
1.88792e-09
1.77607e-09
1.67087e-09
1.57194e-09
1.47891e-09
1.39145e-09
1.30924e-09
1.23198e-09
1.15938e-09
1.09118e-09
1.02712e-09
9.66982e-10
9.10533e-10
8.57568e-10
8.07889e-10
7.61315e-10
7.17671e-10
6.76797e-10
6.38539e-10
6.02757e-10
5.69316e-10
5.38092e-10
5.08967e-10
4.81834e-10
4.56589e-10
4.3314e-10
4.11396e-10
3.91278e-10
3.72708e-10
3.55617e-10
3.39941e-10
3.2562e-10
3.126e-10
3.00832e-10
2.90271e-10
2.80878e-10
2.72615e-10
2.65454e-10
2.59365e-10
2.54326e-10
2.50317e-10
2.47324e-10
2.45334e-10
2.44341e-10
)
;
    }
}


// ************************************************************************* //
