/*--------------------------------*- C++ -*----------------------------------*\
  =========                 |
  \\      /  F ield         | OpenFOAM: The Open Source CFD Toolbox
   \\    /   O peration     | Website:  https://openfoam.org
    \\  /    A nd           | Version:  10
     \\/     M anipulation  |
\*---------------------------------------------------------------------------*/
FoamFile
{
    format      ascii;
    class       volScalarField;
    location    "0.44";
    object      N1;
}
// * * * * * * * * * * * * * * * * * * * * * * * * * * * * * * * * * * * * * //

dimensions      [0 0 0 0 0 0 0];

internalField   nonuniform List<scalar> 
8000
(
4.62589e-08
1.38582e-07
2.30389e-07
3.21416e-07
4.11435e-07
5.00244e-07
5.87665e-07
6.7354e-07
7.5773e-07
8.40115e-07
9.20589e-07
9.99063e-07
1.07546e-06
1.14973e-06
1.2218e-06
1.29166e-06
1.35927e-06
1.42461e-06
1.48768e-06
1.54848e-06
1.60702e-06
1.66331e-06
1.71736e-06
1.76922e-06
1.81889e-06
1.86643e-06
1.91185e-06
1.95521e-06
1.99654e-06
2.03589e-06
2.07329e-06
2.1088e-06
2.14245e-06
2.1743e-06
2.20439e-06
2.23276e-06
2.25947e-06
2.28454e-06
2.30804e-06
2.33e-06
2.35046e-06
2.36948e-06
2.38708e-06
2.40331e-06
2.41821e-06
2.43181e-06
2.44416e-06
2.45529e-06
2.46524e-06
2.47403e-06
2.48171e-06
2.4883e-06
2.49385e-06
2.49836e-06
2.50189e-06
2.50445e-06
2.50608e-06
2.50679e-06
2.50663e-06
2.5056e-06
2.50375e-06
2.50109e-06
2.49764e-06
2.49343e-06
2.48848e-06
2.48282e-06
2.47645e-06
2.46942e-06
2.46172e-06
2.45339e-06
2.44445e-06
2.4349e-06
2.42478e-06
2.4141e-06
2.40287e-06
2.39112e-06
2.37885e-06
2.3661e-06
2.35286e-06
2.33917e-06
2.32503e-06
2.31046e-06
2.29548e-06
2.28009e-06
2.26433e-06
2.24819e-06
2.2317e-06
2.21486e-06
2.1977e-06
2.18022e-06
2.16244e-06
2.14437e-06
2.12603e-06
2.10742e-06
2.08857e-06
2.06948e-06
2.05016e-06
2.03063e-06
2.0109e-06
1.99098e-06
1.97089e-06
1.95062e-06
1.93021e-06
1.90965e-06
1.88895e-06
1.86814e-06
1.84721e-06
1.82618e-06
1.80506e-06
1.78386e-06
1.76259e-06
1.74126e-06
1.71987e-06
1.69845e-06
1.67699e-06
1.65551e-06
1.63401e-06
1.61251e-06
1.591e-06
1.56951e-06
1.54804e-06
1.52659e-06
1.50518e-06
1.48381e-06
1.46249e-06
1.44122e-06
1.42002e-06
1.39889e-06
1.37784e-06
1.35688e-06
1.336e-06
1.31522e-06
1.29454e-06
1.27397e-06
1.25351e-06
1.23318e-06
1.21297e-06
1.19289e-06
1.17294e-06
1.15313e-06
1.13347e-06
1.11396e-06
1.0946e-06
1.07539e-06
1.05635e-06
1.03747e-06
1.01876e-06
1.00023e-06
9.81862e-07
9.63677e-07
9.45673e-07
9.27852e-07
9.10217e-07
8.92771e-07
8.75516e-07
8.58454e-07
8.41587e-07
8.24916e-07
8.08444e-07
7.92172e-07
7.76101e-07
7.60233e-07
7.44569e-07
7.29109e-07
7.13855e-07
6.98808e-07
6.83967e-07
6.69334e-07
6.54908e-07
6.40691e-07
6.26681e-07
6.1288e-07
5.99287e-07
5.85902e-07
5.72724e-07
5.59754e-07
5.4699e-07
5.34432e-07
5.2208e-07
5.09932e-07
4.97989e-07
4.86247e-07
4.74708e-07
4.6337e-07
4.52231e-07
4.4129e-07
4.30546e-07
4.19998e-07
4.09644e-07
3.99483e-07
3.89513e-07
3.79732e-07
3.70139e-07
3.60732e-07
3.5151e-07
3.42469e-07
3.3361e-07
3.24929e-07
3.16425e-07
3.08096e-07
2.9994e-07
2.91954e-07
2.84138e-07
2.76488e-07
2.69002e-07
2.61679e-07
2.54516e-07
2.47511e-07
2.40662e-07
2.33967e-07
2.27423e-07
2.21028e-07
2.14781e-07
2.08678e-07
2.02717e-07
1.96897e-07
1.91215e-07
1.85669e-07
1.80256e-07
1.74975e-07
1.69823e-07
1.64797e-07
1.59896e-07
1.55117e-07
1.50459e-07
1.45918e-07
1.41493e-07
1.37182e-07
1.32982e-07
1.28892e-07
1.24908e-07
1.2103e-07
1.17254e-07
1.13579e-07
1.10003e-07
1.06524e-07
1.0314e-07
9.98479e-08
9.66468e-08
9.35345e-08
9.0509e-08
8.75684e-08
8.47108e-08
8.19344e-08
7.92373e-08
7.66177e-08
7.40738e-08
7.16039e-08
6.92061e-08
6.68789e-08
6.46204e-08
6.24291e-08
6.03033e-08
5.82413e-08
5.62417e-08
5.43028e-08
5.24231e-08
5.06012e-08
4.88355e-08
4.71245e-08
4.54669e-08
4.38613e-08
4.23063e-08
4.08005e-08
3.93427e-08
3.79314e-08
3.65656e-08
3.52438e-08
3.3965e-08
3.27278e-08
3.15313e-08
3.03741e-08
2.92552e-08
2.81735e-08
2.7128e-08
2.61175e-08
2.51411e-08
2.41977e-08
2.32865e-08
2.24064e-08
2.15565e-08
2.07359e-08
1.99438e-08
1.91792e-08
1.84413e-08
1.77293e-08
1.70424e-08
1.63798e-08
1.57408e-08
1.51246e-08
1.45305e-08
1.39578e-08
1.34057e-08
1.28738e-08
1.23612e-08
1.18673e-08
1.13917e-08
1.09335e-08
1.04924e-08
1.00677e-08
9.65878e-09
9.26523e-09
8.88649e-09
8.52207e-09
8.17147e-09
7.83422e-09
7.50987e-09
7.19796e-09
6.89807e-09
6.60977e-09
6.33266e-09
6.06635e-09
5.81045e-09
5.5646e-09
5.32843e-09
5.1016e-09
4.88377e-09
4.67461e-09
4.47382e-09
4.28108e-09
4.0961e-09
3.91859e-09
3.74828e-09
3.5849e-09
3.4282e-09
3.27792e-09
3.13381e-09
2.99566e-09
2.86322e-09
2.7363e-09
2.61466e-09
2.49812e-09
2.38647e-09
2.27952e-09
2.1771e-09
2.07903e-09
1.98514e-09
1.89525e-09
1.80923e-09
1.72691e-09
1.64814e-09
1.57279e-09
1.50072e-09
1.4318e-09
1.3659e-09
1.3029e-09
1.24268e-09
1.18513e-09
1.13015e-09
1.07762e-09
1.02745e-09
9.79548e-10
9.33812e-10
8.90155e-10
8.48494e-10
8.08746e-10
7.70832e-10
7.34676e-10
7.00207e-10
6.67354e-10
6.36052e-10
6.06236e-10
5.77844e-10
5.50819e-10
5.25105e-10
5.00647e-10
4.77394e-10
4.55298e-10
4.34311e-10
4.14389e-10
3.95489e-10
3.77571e-10
3.60595e-10
3.44525e-10
3.29325e-10
3.14963e-10
3.01407e-10
2.88626e-10
2.76593e-10
2.6528e-10
2.54663e-10
2.44717e-10
2.35419e-10
2.2675e-10
2.18689e-10
2.11218e-10
2.0432e-10
1.97979e-10
1.92181e-10
1.86911e-10
1.82159e-10
1.77913e-10
1.74163e-10
1.70901e-10
1.68118e-10
1.6581e-10
1.63969e-10
1.62592e-10
1.61676e-10
1.61219e-10
4.67321e-08
1.40043e-07
2.32916e-07
3.25096e-07
4.16358e-07
5.065e-07
5.95338e-07
6.82713e-07
7.6848e-07
8.52511e-07
9.34697e-07
1.01494e-06
1.09316e-06
1.16929e-06
1.24327e-06
1.31506e-06
1.38462e-06
1.45193e-06
1.51697e-06
1.57975e-06
1.64026e-06
1.69851e-06
1.75451e-06
1.80828e-06
1.85986e-06
1.90926e-06
1.95651e-06
2.00166e-06
2.04474e-06
2.08579e-06
2.12485e-06
2.16197e-06
2.19718e-06
2.23053e-06
2.26206e-06
2.29183e-06
2.31987e-06
2.34622e-06
2.37095e-06
2.39407e-06
2.41565e-06
2.43572e-06
2.45432e-06
2.47149e-06
2.48728e-06
2.50172e-06
2.51486e-06
2.52672e-06
2.53735e-06
2.54677e-06
2.55503e-06
2.56216e-06
2.56819e-06
2.57315e-06
2.57708e-06
2.58e-06
2.58194e-06
2.58293e-06
2.58299e-06
2.58216e-06
2.58047e-06
2.57793e-06
2.57456e-06
2.57041e-06
2.56548e-06
2.5598e-06
2.55339e-06
2.54628e-06
2.53849e-06
2.53003e-06
2.52093e-06
2.5112e-06
2.50087e-06
2.48995e-06
2.47847e-06
2.46643e-06
2.45387e-06
2.44079e-06
2.42721e-06
2.41316e-06
2.39864e-06
2.38367e-06
2.36827e-06
2.35246e-06
2.33624e-06
2.31964e-06
2.30267e-06
2.28534e-06
2.26767e-06
2.24968e-06
2.23137e-06
2.21276e-06
2.19386e-06
2.17469e-06
2.15526e-06
2.13559e-06
2.11568e-06
2.09555e-06
2.07521e-06
2.05467e-06
2.03395e-06
2.01306e-06
1.992e-06
1.9708e-06
1.94946e-06
1.92799e-06
1.9064e-06
1.88471e-06
1.86293e-06
1.84106e-06
1.81911e-06
1.79711e-06
1.77504e-06
1.75294e-06
1.7308e-06
1.70863e-06
1.68645e-06
1.66426e-06
1.64208e-06
1.6199e-06
1.59774e-06
1.57561e-06
1.55351e-06
1.53146e-06
1.50946e-06
1.48752e-06
1.46564e-06
1.44383e-06
1.42211e-06
1.40047e-06
1.37892e-06
1.35748e-06
1.33614e-06
1.31491e-06
1.2938e-06
1.27281e-06
1.25195e-06
1.23122e-06
1.21064e-06
1.1902e-06
1.1699e-06
1.14976e-06
1.12978e-06
1.10996e-06
1.09031e-06
1.07082e-06
1.05151e-06
1.03238e-06
1.01343e-06
9.94659e-07
9.76076e-07
9.57683e-07
9.39482e-07
9.21475e-07
9.03666e-07
8.86055e-07
8.68646e-07
8.5144e-07
8.34438e-07
8.17643e-07
8.01056e-07
7.84678e-07
7.6851e-07
7.52554e-07
7.3681e-07
7.21278e-07
7.0596e-07
6.90857e-07
6.75967e-07
6.61293e-07
6.46833e-07
6.32588e-07
6.18558e-07
6.04743e-07
5.91141e-07
5.77754e-07
5.6458e-07
5.51618e-07
5.38869e-07
5.26331e-07
5.14003e-07
5.01884e-07
4.89974e-07
4.78271e-07
4.66774e-07
4.55481e-07
4.44392e-07
4.33505e-07
4.22818e-07
4.1233e-07
4.02039e-07
3.91944e-07
3.82042e-07
3.72333e-07
3.62814e-07
3.53483e-07
3.44338e-07
3.35379e-07
3.26601e-07
3.18004e-07
3.09586e-07
3.01343e-07
2.93275e-07
2.85379e-07
2.77653e-07
2.70094e-07
2.62701e-07
2.55471e-07
2.48402e-07
2.41491e-07
2.34737e-07
2.28136e-07
2.21688e-07
2.15389e-07
2.09237e-07
2.03229e-07
1.97365e-07
1.9164e-07
1.86053e-07
1.80602e-07
1.75284e-07
1.70097e-07
1.65038e-07
1.60106e-07
1.55297e-07
1.50611e-07
1.46044e-07
1.41594e-07
1.37259e-07
1.33037e-07
1.28925e-07
1.24922e-07
1.21025e-07
1.17232e-07
1.13541e-07
1.0995e-07
1.06457e-07
1.03059e-07
9.97549e-08
9.65425e-08
9.34197e-08
9.03845e-08
8.7435e-08
8.45693e-08
8.17855e-08
7.90817e-08
7.6456e-08
7.39066e-08
7.14317e-08
6.90296e-08
6.66985e-08
6.44368e-08
6.22426e-08
6.01143e-08
5.80504e-08
5.60491e-08
5.4109e-08
5.22285e-08
5.0406e-08
4.864e-08
4.69291e-08
4.52719e-08
4.36668e-08
4.21126e-08
4.06079e-08
3.91513e-08
3.77415e-08
3.63772e-08
3.50573e-08
3.37803e-08
3.25453e-08
3.13509e-08
3.0196e-08
2.90795e-08
2.80004e-08
2.69574e-08
2.59496e-08
2.49759e-08
2.40354e-08
2.3127e-08
2.22497e-08
2.14028e-08
2.05851e-08
1.97959e-08
1.90343e-08
1.82994e-08
1.75905e-08
1.69066e-08
1.6247e-08
1.5611e-08
1.49978e-08
1.44066e-08
1.38369e-08
1.32878e-08
1.27587e-08
1.2249e-08
1.1758e-08
1.12852e-08
1.08298e-08
1.03914e-08
9.96939e-09
9.56319e-09
9.17228e-09
8.79613e-09
8.43426e-09
8.08617e-09
7.75138e-09
7.42944e-09
7.1199e-09
6.82234e-09
6.53632e-09
6.26144e-09
5.99731e-09
5.74355e-09
5.49979e-09
5.26566e-09
5.04082e-09
4.82494e-09
4.61769e-09
4.41875e-09
4.22782e-09
4.04461e-09
3.86882e-09
3.70019e-09
3.53845e-09
3.38333e-09
3.23459e-09
3.09199e-09
2.9553e-09
2.82429e-09
2.69875e-09
2.57845e-09
2.46321e-09
2.35283e-09
2.24712e-09
2.14589e-09
2.04898e-09
1.9562e-09
1.86741e-09
1.78244e-09
1.70114e-09
1.62337e-09
1.54898e-09
1.47784e-09
1.40982e-09
1.3448e-09
1.28264e-09
1.22324e-09
1.16649e-09
1.11228e-09
1.0605e-09
1.01105e-09
9.63842e-10
9.18782e-10
8.75781e-10
8.34754e-10
7.95621e-10
7.58302e-10
7.22725e-10
6.88816e-10
6.56507e-10
6.25731e-10
5.96427e-10
5.68533e-10
5.41992e-10
5.16747e-10
4.92747e-10
4.6994e-10
4.48278e-10
4.27716e-10
4.08208e-10
3.89713e-10
3.72191e-10
3.55604e-10
3.39916e-10
3.25092e-10
3.111e-10
2.97908e-10
2.85488e-10
2.73811e-10
2.62852e-10
2.52586e-10
2.4299e-10
2.34042e-10
2.25722e-10
2.18011e-10
2.10891e-10
2.04346e-10
1.98361e-10
1.92922e-10
1.88017e-10
1.83634e-10
1.79764e-10
1.76397e-10
1.73525e-10
1.71142e-10
1.69242e-10
1.67821e-10
1.66876e-10
1.66403e-10
4.71958e-08
1.41455e-07
2.35325e-07
3.28565e-07
4.20956e-07
5.12298e-07
6.02408e-07
6.91123e-07
7.78295e-07
8.63793e-07
9.47502e-07
1.02932e-06
1.10916e-06
1.18694e-06
1.26261e-06
1.33611e-06
1.40741e-06
1.47647e-06
1.54327e-06
1.60781e-06
1.67007e-06
1.73007e-06
1.7878e-06
1.84329e-06
1.89655e-06
1.94761e-06
1.9965e-06
2.04325e-06
2.08789e-06
2.13047e-06
2.17101e-06
2.20956e-06
2.24616e-06
2.28086e-06
2.31369e-06
2.3447e-06
2.37394e-06
2.40145e-06
2.42726e-06
2.45144e-06
2.47401e-06
2.49503e-06
2.51453e-06
2.53255e-06
2.54914e-06
2.56434e-06
2.57818e-06
2.5907e-06
2.60194e-06
2.61194e-06
2.62072e-06
2.62834e-06
2.63481e-06
2.64017e-06
2.64445e-06
2.64769e-06
2.64992e-06
2.65115e-06
2.65143e-06
2.65078e-06
2.64923e-06
2.6468e-06
2.64352e-06
2.63941e-06
2.6345e-06
2.62881e-06
2.62237e-06
2.61519e-06
2.60731e-06
2.59873e-06
2.58949e-06
2.5796e-06
2.56909e-06
2.55796e-06
2.54625e-06
2.53397e-06
2.52113e-06
2.50777e-06
2.49389e-06
2.47951e-06
2.46465e-06
2.44933e-06
2.43356e-06
2.41735e-06
2.40074e-06
2.38372e-06
2.36632e-06
2.34855e-06
2.33043e-06
2.31197e-06
2.29318e-06
2.27409e-06
2.2547e-06
2.23502e-06
2.21508e-06
2.19488e-06
2.17444e-06
2.15377e-06
2.13288e-06
2.11179e-06
2.09051e-06
2.06905e-06
2.04743e-06
2.02565e-06
2.00372e-06
1.98167e-06
1.95949e-06
1.93721e-06
1.91483e-06
1.89236e-06
1.86981e-06
1.8472e-06
1.82453e-06
1.80181e-06
1.77906e-06
1.75629e-06
1.73349e-06
1.71069e-06
1.68789e-06
1.6651e-06
1.64232e-06
1.61958e-06
1.59687e-06
1.57421e-06
1.55159e-06
1.52904e-06
1.50655e-06
1.48414e-06
1.46181e-06
1.43957e-06
1.41743e-06
1.39538e-06
1.37345e-06
1.35163e-06
1.32993e-06
1.30836e-06
1.28692e-06
1.26561e-06
1.24445e-06
1.22344e-06
1.20258e-06
1.18188e-06
1.16134e-06
1.14097e-06
1.12077e-06
1.10074e-06
1.08089e-06
1.06122e-06
1.04174e-06
1.02245e-06
1.00335e-06
9.84442e-07
9.65733e-07
9.47223e-07
9.28916e-07
9.10814e-07
8.92919e-07
8.75232e-07
8.57756e-07
8.40492e-07
8.23441e-07
8.06606e-07
7.89986e-07
7.73584e-07
7.574e-07
7.41435e-07
7.25689e-07
7.10164e-07
6.94858e-07
6.79774e-07
6.6491e-07
6.50267e-07
6.35845e-07
6.21644e-07
6.07662e-07
5.93901e-07
5.80358e-07
5.67035e-07
5.53929e-07
5.4104e-07
5.28368e-07
5.15911e-07
5.03668e-07
4.91638e-07
4.79819e-07
4.68211e-07
4.56812e-07
4.4562e-07
4.34635e-07
4.23854e-07
4.13275e-07
4.02898e-07
3.9272e-07
3.82739e-07
3.72954e-07
3.63362e-07
3.53962e-07
3.44752e-07
3.35729e-07
3.26892e-07
3.18238e-07
3.09766e-07
3.01472e-07
2.93355e-07
2.85413e-07
2.77643e-07
2.70043e-07
2.62611e-07
2.55344e-07
2.4824e-07
2.41297e-07
2.34513e-07
2.27884e-07
2.21409e-07
2.15085e-07
2.0891e-07
2.02881e-07
1.96996e-07
1.91253e-07
1.8565e-07
1.80183e-07
1.74851e-07
1.69651e-07
1.64581e-07
1.59638e-07
1.5482e-07
1.50125e-07
1.45551e-07
1.41095e-07
1.36755e-07
1.32528e-07
1.28413e-07
1.24408e-07
1.20509e-07
1.16715e-07
1.13023e-07
1.09432e-07
1.05939e-07
1.02543e-07
9.92408e-08
9.60307e-08
9.29107e-08
8.98788e-08
8.6933e-08
8.40714e-08
8.1292e-08
7.85929e-08
7.59723e-08
7.34282e-08
7.0959e-08
6.85628e-08
6.62378e-08
6.39822e-08
6.17945e-08
5.96729e-08
5.76157e-08
5.56214e-08
5.36883e-08
5.18148e-08
4.99995e-08
4.82408e-08
4.65372e-08
4.48873e-08
4.32897e-08
4.17429e-08
4.02455e-08
3.87963e-08
3.7394e-08
3.60371e-08
3.47245e-08
3.34549e-08
3.22271e-08
3.104e-08
2.98923e-08
2.8783e-08
2.77109e-08
2.66749e-08
2.5674e-08
2.47072e-08
2.37734e-08
2.28716e-08
2.2001e-08
2.11605e-08
2.03492e-08
1.95663e-08
1.88109e-08
1.80821e-08
1.73791e-08
1.67011e-08
1.60473e-08
1.5417e-08
1.48093e-08
1.42236e-08
1.36592e-08
1.31153e-08
1.25914e-08
1.20867e-08
1.16006e-08
1.11325e-08
1.06819e-08
1.0248e-08
9.83048e-09
9.42864e-09
9.04199e-09
8.67e-09
8.31218e-09
7.96803e-09
7.6371e-09
7.31891e-09
7.01302e-09
6.71901e-09
6.43645e-09
6.16494e-09
5.90408e-09
5.65351e-09
5.41284e-09
5.18172e-09
4.9598e-09
4.74676e-09
4.54226e-09
4.34599e-09
4.15766e-09
3.97696e-09
3.80361e-09
3.63735e-09
3.4779e-09
3.325e-09
3.17842e-09
3.0379e-09
2.90323e-09
2.77418e-09
2.65052e-09
2.53206e-09
2.41859e-09
2.30993e-09
2.20587e-09
2.10625e-09
2.01088e-09
1.91961e-09
1.83226e-09
1.74869e-09
1.66874e-09
1.59228e-09
1.51915e-09
1.44923e-09
1.38238e-09
1.31849e-09
1.25743e-09
1.1991e-09
1.14337e-09
1.09014e-09
1.03931e-09
9.90782e-10
9.44462e-10
9.00259e-10
8.58086e-10
8.17859e-10
7.79498e-10
7.42925e-10
7.08069e-10
6.74856e-10
6.43221e-10
6.13098e-10
5.84424e-10
5.57141e-10
5.31191e-10
5.06519e-10
4.83075e-10
4.60808e-10
4.39671e-10
4.19618e-10
4.00606e-10
3.82594e-10
3.65544e-10
3.49417e-10
3.34179e-10
3.19795e-10
3.06235e-10
2.93467e-10
2.81464e-10
2.70199e-10
2.59646e-10
2.49782e-10
2.40584e-10
2.32031e-10
2.24104e-10
2.16785e-10
2.10058e-10
2.03905e-10
1.98315e-10
1.93272e-10
1.88767e-10
1.84789e-10
1.81327e-10
1.78375e-10
1.75925e-10
1.73972e-10
1.72512e-10
1.7154e-10
1.71055e-10
4.76299e-08
1.42769e-07
2.37551e-07
3.31748e-07
4.25148e-07
5.17555e-07
6.08789e-07
6.98684e-07
7.87092e-07
8.73877e-07
9.5892e-07
1.04211e-06
1.12337e-06
1.2026e-06
1.27975e-06
1.35475e-06
1.42757e-06
1.49816e-06
1.5665e-06
1.63258e-06
1.69638e-06
1.75791e-06
1.81716e-06
1.87415e-06
1.9289e-06
1.98142e-06
2.03174e-06
2.0799e-06
2.12591e-06
2.16982e-06
2.21167e-06
2.25148e-06
2.28931e-06
2.32519e-06
2.35916e-06
2.39128e-06
2.42157e-06
2.45009e-06
2.47688e-06
2.50198e-06
2.52544e-06
2.54729e-06
2.56758e-06
2.58636e-06
2.60366e-06
2.61952e-06
2.63398e-06
2.64709e-06
2.65887e-06
2.66937e-06
2.67862e-06
2.68666e-06
2.69352e-06
2.69924e-06
2.70385e-06
2.70737e-06
2.70985e-06
2.71131e-06
2.71177e-06
2.71128e-06
2.70986e-06
2.70753e-06
2.70432e-06
2.70026e-06
2.69536e-06
2.68967e-06
2.6832e-06
2.67597e-06
2.668e-06
2.65933e-06
2.64997e-06
2.63993e-06
2.62925e-06
2.61795e-06
2.60604e-06
2.59354e-06
2.58047e-06
2.56685e-06
2.5527e-06
2.53803e-06
2.52288e-06
2.50724e-06
2.49114e-06
2.4746e-06
2.45763e-06
2.44025e-06
2.42247e-06
2.40432e-06
2.38579e-06
2.36692e-06
2.34772e-06
2.32819e-06
2.30836e-06
2.28824e-06
2.26785e-06
2.24719e-06
2.22628e-06
2.20513e-06
2.18377e-06
2.16219e-06
2.14042e-06
2.11846e-06
2.09633e-06
2.07404e-06
2.0516e-06
2.02903e-06
2.00633e-06
1.98353e-06
1.96062e-06
1.93762e-06
1.91454e-06
1.89139e-06
1.86819e-06
1.84494e-06
1.82165e-06
1.79833e-06
1.77499e-06
1.75165e-06
1.72831e-06
1.70497e-06
1.68166e-06
1.65837e-06
1.63512e-06
1.61192e-06
1.58877e-06
1.56568e-06
1.54265e-06
1.51971e-06
1.49685e-06
1.47407e-06
1.4514e-06
1.42883e-06
1.40637e-06
1.38403e-06
1.36181e-06
1.33972e-06
1.31777e-06
1.29596e-06
1.27429e-06
1.25278e-06
1.23142e-06
1.21022e-06
1.18919e-06
1.16833e-06
1.14764e-06
1.12714e-06
1.10681e-06
1.08667e-06
1.06673e-06
1.04697e-06
1.02741e-06
1.00805e-06
9.88894e-07
9.69941e-07
9.51195e-07
9.32659e-07
9.14335e-07
8.96224e-07
8.78329e-07
8.60651e-07
8.43192e-07
8.25952e-07
8.08935e-07
7.92139e-07
7.75567e-07
7.59219e-07
7.43096e-07
7.27198e-07
7.11525e-07
6.96079e-07
6.80859e-07
6.65865e-07
6.51097e-07
6.36555e-07
6.22238e-07
6.08147e-07
5.9428e-07
5.80636e-07
5.67216e-07
5.54019e-07
5.41042e-07
5.28286e-07
5.1575e-07
5.03431e-07
4.91329e-07
4.79442e-07
4.6777e-07
4.5631e-07
4.45061e-07
4.34021e-07
4.23189e-07
4.12563e-07
4.0214e-07
3.9192e-07
3.819e-07
3.72079e-07
3.62453e-07
3.53022e-07
3.43783e-07
3.34734e-07
3.25872e-07
3.17196e-07
3.08704e-07
3.00392e-07
2.9226e-07
2.84303e-07
2.76521e-07
2.68911e-07
2.61469e-07
2.54195e-07
2.47086e-07
2.40138e-07
2.3335e-07
2.2672e-07
2.20244e-07
2.13921e-07
2.07748e-07
2.01722e-07
1.95841e-07
1.90103e-07
1.84505e-07
1.79045e-07
1.7372e-07
1.68529e-07
1.63467e-07
1.58534e-07
1.53727e-07
1.49043e-07
1.4448e-07
1.40035e-07
1.35708e-07
1.31494e-07
1.27392e-07
1.23399e-07
1.19514e-07
1.15734e-07
1.12057e-07
1.08481e-07
1.05003e-07
1.01621e-07
9.83343e-08
9.51395e-08
9.20349e-08
8.90184e-08
8.60881e-08
8.3242e-08
8.04782e-08
7.77947e-08
7.51896e-08
7.26612e-08
7.02075e-08
6.78267e-08
6.5517e-08
6.32768e-08
6.11043e-08
5.89978e-08
5.69556e-08
5.49761e-08
5.30577e-08
5.11989e-08
4.9398e-08
4.76536e-08
4.59641e-08
4.43281e-08
4.27442e-08
4.12109e-08
3.9727e-08
3.8291e-08
3.69016e-08
3.55575e-08
3.42574e-08
3.30002e-08
3.17846e-08
3.06094e-08
2.94734e-08
2.83756e-08
2.73148e-08
2.62899e-08
2.52998e-08
2.43436e-08
2.34203e-08
2.25287e-08
2.16681e-08
2.08374e-08
2.00357e-08
1.92622e-08
1.85159e-08
1.7796e-08
1.71017e-08
1.64323e-08
1.57868e-08
1.51645e-08
1.45648e-08
1.39868e-08
1.34299e-08
1.28934e-08
1.23766e-08
1.18789e-08
1.13996e-08
1.09381e-08
1.04939e-08
1.00663e-08
9.65481e-09
9.25888e-09
8.87797e-09
8.51156e-09
8.15917e-09
7.82029e-09
7.49447e-09
7.18125e-09
6.88018e-09
6.59084e-09
6.31282e-09
6.04571e-09
5.78912e-09
5.54268e-09
5.30601e-09
5.07877e-09
4.86062e-09
4.65121e-09
4.45024e-09
4.25739e-09
4.07235e-09
3.89485e-09
3.7246e-09
3.56132e-09
3.40476e-09
3.25466e-09
3.11078e-09
2.97287e-09
2.84072e-09
2.7141e-09
2.5928e-09
2.47661e-09
2.36533e-09
2.25878e-09
2.15677e-09
2.05912e-09
1.96565e-09
1.87621e-09
1.79064e-09
1.70877e-09
1.63047e-09
1.55559e-09
1.48399e-09
1.41554e-09
1.35012e-09
1.2876e-09
1.22786e-09
1.17079e-09
1.11629e-09
1.06424e-09
1.01455e-09
9.67117e-10
9.21854e-10
8.78669e-10
8.37477e-10
7.98195e-10
7.60746e-10
7.25053e-10
6.91044e-10
6.5865e-10
6.27804e-10
5.98442e-10
5.70505e-10
5.43932e-10
5.18669e-10
4.94663e-10
4.71861e-10
4.50217e-10
4.29683e-10
4.10215e-10
3.91771e-10
3.74312e-10
3.57798e-10
3.42194e-10
3.27466e-10
3.1358e-10
3.00507e-10
2.88216e-10
2.7668e-10
2.65874e-10
2.55773e-10
2.46355e-10
2.37597e-10
2.2948e-10
2.21985e-10
2.15096e-10
2.08796e-10
2.03071e-10
1.97908e-10
1.93295e-10
1.89221e-10
1.85677e-10
1.82654e-10
1.80145e-10
1.78145e-10
1.7665e-10
1.75655e-10
1.75158e-10
4.80198e-08
1.43947e-07
2.39537e-07
3.34577e-07
4.28859e-07
5.22192e-07
6.14398e-07
7.05312e-07
7.94782e-07
8.82673e-07
9.68862e-07
1.05324e-06
1.13571e-06
1.21619e-06
1.2946e-06
1.37089e-06
1.44501e-06
1.51691e-06
1.58658e-06
1.65397e-06
1.7191e-06
1.78193e-06
1.84249e-06
1.90077e-06
1.95679e-06
2.01057e-06
2.06213e-06
2.11149e-06
2.15869e-06
2.20375e-06
2.24671e-06
2.28762e-06
2.3265e-06
2.3634e-06
2.39836e-06
2.43142e-06
2.46263e-06
2.49202e-06
2.51965e-06
2.54555e-06
2.56976e-06
2.59234e-06
2.61332e-06
2.63274e-06
2.65066e-06
2.66709e-06
2.6821e-06
2.69571e-06
2.70796e-06
2.7189e-06
2.72855e-06
2.73696e-06
2.74416e-06
2.75019e-06
2.75507e-06
2.75885e-06
2.76154e-06
2.76319e-06
2.76383e-06
2.76347e-06
2.76216e-06
2.75992e-06
2.75677e-06
2.75275e-06
2.74788e-06
2.74218e-06
2.73568e-06
2.7284e-06
2.72038e-06
2.71162e-06
2.70215e-06
2.69199e-06
2.68118e-06
2.66971e-06
2.65763e-06
2.64494e-06
2.63167e-06
2.61783e-06
2.60345e-06
2.58854e-06
2.57313e-06
2.55722e-06
2.54084e-06
2.52401e-06
2.50673e-06
2.48904e-06
2.47093e-06
2.45244e-06
2.43358e-06
2.41435e-06
2.39479e-06
2.37489e-06
2.35469e-06
2.33418e-06
2.31339e-06
2.29234e-06
2.27102e-06
2.24947e-06
2.22769e-06
2.20569e-06
2.18349e-06
2.1611e-06
2.13854e-06
2.11581e-06
2.09293e-06
2.06991e-06
2.04677e-06
2.02351e-06
2.00014e-06
1.97669e-06
1.95315e-06
1.92954e-06
1.90587e-06
1.88216e-06
1.8584e-06
1.83462e-06
1.81082e-06
1.78701e-06
1.76319e-06
1.73939e-06
1.71561e-06
1.69186e-06
1.66814e-06
1.64447e-06
1.62086e-06
1.5973e-06
1.57382e-06
1.55041e-06
1.52709e-06
1.50386e-06
1.48072e-06
1.4577e-06
1.43479e-06
1.412e-06
1.38933e-06
1.3668e-06
1.3444e-06
1.32215e-06
1.30005e-06
1.2781e-06
1.25631e-06
1.23468e-06
1.21323e-06
1.19195e-06
1.17084e-06
1.14992e-06
1.12919e-06
1.10864e-06
1.08829e-06
1.06814e-06
1.04818e-06
1.02843e-06
1.00889e-06
9.8955e-07
9.70426e-07
9.51515e-07
9.32821e-07
9.14344e-07
8.96087e-07
8.78052e-07
8.6024e-07
8.42652e-07
8.25291e-07
8.08156e-07
7.91249e-07
7.7457e-07
7.58121e-07
7.41902e-07
7.25913e-07
7.10154e-07
6.94626e-07
6.79329e-07
6.64262e-07
6.49426e-07
6.3482e-07
6.20444e-07
6.06296e-07
5.92377e-07
5.78686e-07
5.65221e-07
5.51983e-07
5.38969e-07
5.26179e-07
5.13611e-07
5.01264e-07
4.89137e-07
4.77229e-07
4.65537e-07
4.54061e-07
4.42798e-07
4.31746e-07
4.20905e-07
4.10272e-07
3.99845e-07
3.89623e-07
3.79603e-07
3.69783e-07
3.60161e-07
3.50735e-07
3.41503e-07
3.32462e-07
3.23611e-07
3.14946e-07
3.06467e-07
2.9817e-07
2.90052e-07
2.82113e-07
2.74348e-07
2.66757e-07
2.59335e-07
2.52082e-07
2.44994e-07
2.38069e-07
2.31304e-07
2.24698e-07
2.18247e-07
2.11949e-07
2.05801e-07
1.99801e-07
1.93947e-07
1.88236e-07
1.82666e-07
1.77233e-07
1.71936e-07
1.66773e-07
1.6174e-07
1.56835e-07
1.52057e-07
1.47401e-07
1.42867e-07
1.38452e-07
1.34153e-07
1.29968e-07
1.25895e-07
1.21931e-07
1.18075e-07
1.14323e-07
1.10674e-07
1.07126e-07
1.03676e-07
1.00323e-07
9.70633e-08
9.38959e-08
9.08185e-08
8.78289e-08
8.49253e-08
8.21056e-08
7.93678e-08
7.67101e-08
7.41305e-08
7.16271e-08
6.91982e-08
6.68419e-08
6.45564e-08
6.23399e-08
6.01908e-08
5.81073e-08
5.60878e-08
5.41306e-08
5.22342e-08
5.03969e-08
4.86172e-08
4.68935e-08
4.52245e-08
4.36085e-08
4.20443e-08
4.05303e-08
3.90652e-08
3.76477e-08
3.62765e-08
3.49501e-08
3.36675e-08
3.24273e-08
3.12283e-08
3.00694e-08
2.89494e-08
2.78671e-08
2.68215e-08
2.58114e-08
2.48359e-08
2.38938e-08
2.29843e-08
2.21062e-08
2.12587e-08
2.04408e-08
1.96516e-08
1.88903e-08
1.81559e-08
1.74475e-08
1.67645e-08
1.6106e-08
1.54712e-08
1.48593e-08
1.42696e-08
1.37015e-08
1.31541e-08
1.26268e-08
1.2119e-08
1.16301e-08
1.11593e-08
1.07061e-08
1.02698e-08
9.85004e-09
9.4461e-09
9.05749e-09
8.68367e-09
8.32415e-09
7.97842e-09
7.64601e-09
7.32645e-09
7.0193e-09
6.72411e-09
6.44047e-09
6.16796e-09
5.90618e-09
5.65475e-09
5.4133e-09
5.18147e-09
4.9589e-09
4.74526e-09
4.54023e-09
4.34347e-09
4.1547e-09
3.97361e-09
3.79991e-09
3.63333e-09
3.4736e-09
3.32047e-09
3.17368e-09
3.03298e-09
2.89816e-09
2.76898e-09
2.64523e-09
2.52669e-09
2.41316e-09
2.30446e-09
2.20038e-09
2.10075e-09
2.0054e-09
1.91415e-09
1.82684e-09
1.74332e-09
1.66344e-09
1.58704e-09
1.514e-09
1.44416e-09
1.37742e-09
1.31363e-09
1.25269e-09
1.19447e-09
1.13886e-09
1.08576e-09
1.03506e-09
9.86672e-10
9.40494e-10
8.96435e-10
8.5441e-10
8.14335e-10
7.76128e-10
7.39713e-10
7.05017e-10
6.71968e-10
6.40498e-10
6.10543e-10
5.8204e-10
5.5493e-10
5.29157e-10
5.04665e-10
4.81402e-10
4.5932e-10
4.38371e-10
4.18509e-10
3.99693e-10
3.8188e-10
3.65033e-10
3.49113e-10
3.34087e-10
3.19921e-10
3.06583e-10
2.94043e-10
2.82275e-10
2.7125e-10
2.60945e-10
2.51336e-10
2.42401e-10
2.3412e-10
2.26474e-10
2.19445e-10
2.13018e-10
2.07177e-10
2.0191e-10
1.97203e-10
1.93047e-10
1.89431e-10
1.86347e-10
1.83788e-10
1.81747e-10
1.80221e-10
1.79206e-10
1.78699e-10
4.8356e-08
1.44961e-07
2.41245e-07
3.37001e-07
4.32031e-07
5.26145e-07
6.19168e-07
7.10935e-07
8.01294e-07
8.90109e-07
9.77254e-07
1.06262e-06
1.1461e-06
1.22761e-06
1.30709e-06
1.38445e-06
1.45965e-06
1.53265e-06
1.60341e-06
1.67191e-06
1.73814e-06
1.80207e-06
1.86372e-06
1.92308e-06
1.98016e-06
2.03499e-06
2.08757e-06
2.13795e-06
2.18613e-06
2.23216e-06
2.27606e-06
2.31787e-06
2.35764e-06
2.39539e-06
2.43118e-06
2.46504e-06
2.49701e-06
2.52713e-06
2.55546e-06
2.58203e-06
2.60688e-06
2.63007e-06
2.65162e-06
2.67159e-06
2.69001e-06
2.70693e-06
2.72239e-06
2.73643e-06
2.74908e-06
2.76038e-06
2.77038e-06
2.7791e-06
2.78659e-06
2.79287e-06
2.79799e-06
2.80197e-06
2.80485e-06
2.80667e-06
2.80744e-06
2.8072e-06
2.80598e-06
2.80382e-06
2.80073e-06
2.79674e-06
2.79188e-06
2.78618e-06
2.77966e-06
2.77235e-06
2.76426e-06
2.75543e-06
2.74588e-06
2.73562e-06
2.72469e-06
2.71309e-06
2.70087e-06
2.68802e-06
2.67458e-06
2.66056e-06
2.64599e-06
2.63088e-06
2.61524e-06
2.59911e-06
2.5825e-06
2.56541e-06
2.54789e-06
2.52993e-06
2.51155e-06
2.49278e-06
2.47363e-06
2.45411e-06
2.43424e-06
2.41404e-06
2.39351e-06
2.37269e-06
2.35157e-06
2.33018e-06
2.30853e-06
2.28663e-06
2.2645e-06
2.24215e-06
2.21959e-06
2.19684e-06
2.17391e-06
2.15082e-06
2.12757e-06
2.10418e-06
2.08066e-06
2.05702e-06
2.03327e-06
2.00943e-06
1.98551e-06
1.96152e-06
1.93746e-06
1.91336e-06
1.88921e-06
1.86504e-06
1.84085e-06
1.81664e-06
1.79244e-06
1.76825e-06
1.74407e-06
1.71993e-06
1.69582e-06
1.67176e-06
1.64775e-06
1.62381e-06
1.59994e-06
1.57614e-06
1.55243e-06
1.52882e-06
1.50531e-06
1.4819e-06
1.45861e-06
1.43544e-06
1.4124e-06
1.38949e-06
1.36672e-06
1.3441e-06
1.32163e-06
1.29932e-06
1.27717e-06
1.25519e-06
1.23338e-06
1.21174e-06
1.19029e-06
1.16902e-06
1.14794e-06
1.12706e-06
1.10637e-06
1.08588e-06
1.06559e-06
1.04551e-06
1.02565e-06
1.00599e-06
9.86546e-07
9.67322e-07
9.48317e-07
9.29533e-07
9.10974e-07
8.92639e-07
8.74531e-07
8.56651e-07
8.39001e-07
8.21582e-07
8.04394e-07
7.87438e-07
7.70716e-07
7.54227e-07
7.37973e-07
7.21952e-07
7.06167e-07
6.90615e-07
6.75299e-07
6.60216e-07
6.45367e-07
6.30752e-07
6.1637e-07
6.02219e-07
5.883e-07
5.74612e-07
5.61154e-07
5.47923e-07
5.34921e-07
5.22144e-07
5.09593e-07
4.97264e-07
4.85158e-07
4.73272e-07
4.61605e-07
4.50155e-07
4.3892e-07
4.27899e-07
4.17089e-07
4.06489e-07
3.96096e-07
3.8591e-07
3.75926e-07
3.66145e-07
3.56562e-07
3.47177e-07
3.37986e-07
3.28987e-07
3.20179e-07
3.11559e-07
3.03124e-07
2.94872e-07
2.868e-07
2.78907e-07
2.71189e-07
2.63644e-07
2.5627e-07
2.49065e-07
2.42025e-07
2.35148e-07
2.28431e-07
2.21873e-07
2.1547e-07
2.0922e-07
2.03121e-07
1.9717e-07
1.91364e-07
1.85701e-07
1.80178e-07
1.74793e-07
1.69544e-07
1.64427e-07
1.59441e-07
1.54583e-07
1.4985e-07
1.45241e-07
1.40752e-07
1.36382e-07
1.32127e-07
1.27986e-07
1.23957e-07
1.20036e-07
1.16223e-07
1.12513e-07
1.08906e-07
1.05399e-07
1.0199e-07
9.8676e-08
9.5456e-08
9.23274e-08
8.92882e-08
8.63363e-08
8.34697e-08
8.06865e-08
7.79846e-08
7.53621e-08
7.28172e-08
7.03479e-08
6.79524e-08
6.56289e-08
6.33757e-08
6.11908e-08
5.90728e-08
5.70197e-08
5.503e-08
5.3102e-08
5.12342e-08
4.94249e-08
4.76726e-08
4.59758e-08
4.43331e-08
4.27428e-08
4.12037e-08
3.97143e-08
3.82732e-08
3.68792e-08
3.55308e-08
3.42269e-08
3.29661e-08
3.17472e-08
3.0569e-08
2.94303e-08
2.83301e-08
2.72671e-08
2.62403e-08
2.52485e-08
2.42908e-08
2.33662e-08
2.24735e-08
2.16119e-08
2.07804e-08
1.99781e-08
1.92041e-08
1.84575e-08
1.77374e-08
1.70431e-08
1.63736e-08
1.57282e-08
1.51062e-08
1.45067e-08
1.39291e-08
1.33726e-08
1.28366e-08
1.23204e-08
1.18233e-08
1.13447e-08
1.08839e-08
1.04405e-08
1.00137e-08
9.60304e-09
9.20797e-09
8.82795e-09
8.46245e-09
8.11098e-09
7.77304e-09
7.44818e-09
7.13592e-09
6.83583e-09
6.54747e-09
6.27043e-09
6.0043e-09
5.7487e-09
5.50324e-09
5.26755e-09
5.04129e-09
4.8241e-09
4.61566e-09
4.41564e-09
4.22373e-09
4.03962e-09
3.86304e-09
3.6937e-09
3.53131e-09
3.37564e-09
3.2264e-09
3.08337e-09
2.94631e-09
2.81498e-09
2.68917e-09
2.56867e-09
2.45325e-09
2.34274e-09
2.23694e-09
2.13565e-09
2.03872e-09
1.94595e-09
1.8572e-09
1.77229e-09
1.69107e-09
1.61341e-09
1.53915e-09
1.46816e-09
1.4003e-09
1.33546e-09
1.2735e-09
1.21431e-09
1.15778e-09
1.1038e-09
1.05226e-09
1.00306e-09
9.56119e-10
9.11329e-10
8.68605e-10
8.27864e-10
7.89022e-10
7.52003e-10
7.1673e-10
6.83132e-10
6.51139e-10
6.20686e-10
5.9171e-10
5.6415e-10
5.37948e-10
5.13049e-10
4.894e-10
4.66951e-10
4.45654e-10
4.25462e-10
4.06333e-10
3.88225e-10
3.71097e-10
3.54914e-10
3.39638e-10
3.25236e-10
3.11676e-10
2.98929e-10
2.86964e-10
2.75757e-10
2.6528e-10
2.55512e-10
2.46428e-10
2.38009e-10
2.30236e-10
2.23091e-10
2.16557e-10
2.10619e-10
2.05264e-10
2.0048e-10
1.96254e-10
1.92578e-10
1.89443e-10
1.86841e-10
1.84767e-10
1.83215e-10
1.82183e-10
1.81668e-10
4.86319e-08
1.45792e-07
2.42643e-07
3.38983e-07
4.34618e-07
5.29364e-07
6.23045e-07
7.15498e-07
8.06572e-07
8.96127e-07
9.84039e-07
1.07019e-06
1.15448e-06
1.23683e-06
1.31714e-06
1.39537e-06
1.47144e-06
1.54531e-06
1.61696e-06
1.68634e-06
1.75344e-06
1.81825e-06
1.88077e-06
1.94099e-06
1.99893e-06
2.0546e-06
2.10801e-06
2.15919e-06
2.20817e-06
2.25497e-06
2.29962e-06
2.34217e-06
2.38264e-06
2.42109e-06
2.45753e-06
2.49203e-06
2.52461e-06
2.55533e-06
2.58422e-06
2.61132e-06
2.63669e-06
2.66036e-06
2.68238e-06
2.70279e-06
2.72163e-06
2.73894e-06
2.75476e-06
2.76914e-06
2.78211e-06
2.7937e-06
2.80397e-06
2.81295e-06
2.82066e-06
2.82716e-06
2.83247e-06
2.83662e-06
2.83965e-06
2.84159e-06
2.84248e-06
2.84234e-06
2.8412e-06
2.83909e-06
2.83604e-06
2.83208e-06
2.82724e-06
2.82154e-06