/*--------------------------------*- C++ -*----------------------------------*\
  =========                 |
  \\      /  F ield         | OpenFOAM: The Open Source CFD Toolbox
   \\    /   O peration     | Website:  https://openfoam.org
    \\  /    A nd           | Version:  10
     \\/     M anipulation  |
\*---------------------------------------------------------------------------*/
FoamFile
{
    format      ascii;
    class       volScalarField;
    location    "0.02";
    object      Exp1;
}
// * * * * * * * * * * * * * * * * * * * * * * * * * * * * * * * * * * * * * //

dimensions      [0 0 0 0 0 0 0];

internalField   uniform 0;

boundaryField
{
    frontAndBack
    {
        type            empty;
    }
    inlet
    {
        type            calculated;
        value           uniform 0;
    }
    outlet
    {
        type            calculated;
        value           uniform 0;
    }
    substrate
    {
        type            calculated;
        value           nonuniform List<scalar> 
400
(
0.0511146
0.0454279
0.0406105
0.0364143
0.032703
0.0293914
0.0264205
0.0237461
0.0213335
0.0191544
0.0171849
0.0154045
0.0137953
0.0123413
0.0110284
0.00984377
0.00877578
0.0078139
0.00694853
0.00617086
0.00547285
0.00484714
0.00428696
0.00378612
0.00333898
0.00294032
0.00258543
0.00226995
0.00198993
0.00174177
0.00152219
0.00132821
0.0011571
0.00100643
0.000873958
0.000757691
0.000655813
0.000566694
0.00048887
0.000421026
0.000361985
0.000310695
0.000266216
0.000227712
0.00019444
0.000165741
0.000141032
0.000119795
0.000101577
8.59763e-05
7.26426e-05
6.12671e-05
5.15803e-05
4.3347e-05
3.63622e-05
3.04477e-05
2.54489e-05
2.12321e-05
1.76817e-05
1.46981e-05
1.21955e-05
1.01004e-05
8.34985e-06
6.88997e-06
5.67483e-06
4.66535e-06
3.82834e-06
3.13568e-06
2.56357e-06
2.09195e-06
1.70392e-06
1.38528e-06
1.12413e-06
9.10512e-07
7.36114e-07
5.9401e-07
4.78446e-07
3.84646e-07
3.08659e-07
2.47222e-07
1.97644e-07
1.57715e-07
1.25617e-07
9.98664e-08
7.92465e-08
6.27672e-08
4.96224e-08
3.91577e-08
3.08425e-08
2.42481e-08
1.90283e-08
1.49046e-08
1.1653e-08
9.09397e-09
7.08385e-09
5.5079e-09
4.27469e-09
3.31151e-09
2.56066e-09
1.97644e-09
1.52273e-09
1.17104e-09
8.98933e-10
6.88805e-10
5.26839e-10
4.0223e-10
3.06539e-10
2.33193e-10
1.77078e-10
1.34226e-10
1.01561e-10
7.67089e-11
5.78348e-11
4.35272e-11
3.2701e-11
2.45242e-11
1.83595e-11
1.37203e-11
1.02353e-11
7.6222e-12
5.66631e-12
4.20497e-12
3.1151e-12
2.30371e-12
1.70072e-12
1.2534e-12
9.22142e-13
6.77272e-13
4.96576e-13
3.6347e-13
2.65591e-13
1.93741e-13
1.4109e-13
1.02575e-13
7.44481e-14
5.39436e-14
3.90213e-14
2.818e-14
2.03169e-14
1.46237e-14
1.05085e-14
7.53897e-15
5.3997e-15
3.86117e-15
2.75652e-15
1.96471e-15
1.39808e-15
9.93269e-16
7.04536e-16
4.98935e-16
3.5277e-16
2.49028e-16
1.75516e-16
1.23509e-16
8.67749e-17
6.08709e-17
4.2633e-17
2.98129e-17
2.08156e-17
1.45111e-17
1.01005e-17
7.01964e-18
4.87105e-18
3.37495e-18
2.3348e-18
1.61278e-18
1.11236e-18
7.66053e-19
5.26771e-19
3.61689e-19
2.47971e-19
1.69755e-19
1.16039e-19
7.9203e-20
5.39812e-20
3.67374e-20
2.49655e-20
1.69411e-20
1.14793e-20
7.76714e-21
5.24787e-21
3.54065e-21
2.38541e-21
1.60482e-21
1.07814e-21
7.23284e-22
4.84544e-22
3.24152e-22
2.1655e-22
1.44466e-22
9.62429e-23
6.40285e-23
4.25383e-23
2.82223e-23
1.86987e-23
1.2372e-23
8.17487e-24
5.39429e-24
3.55471e-24
2.33933e-24
1.53745e-24
1.00909e-24
6.61431e-25
4.32978e-25
2.83058e-25
1.84806e-25
1.20501e-25
7.84693e-26
5.10324e-26
3.3146e-26
2.1501e-26
1.39293e-26
9.01249e-27
5.82383e-27
3.75856e-27
2.42263e-27
1.55957e-27
1.00272e-27
6.43893e-28
4.12958e-28
2.64521e-28
1.69231e-28
1.08134e-28
6.90107e-29
4.39884e-29
2.80048e-29
1.78074e-29
1.13095e-29
7.17408e-30
4.54535e-30
2.87641e-30
1.8181e-30
1.14781e-30
7.23785e-31
4.55867e-31
2.86786e-31
1.80207e-31
1.13105e-31
7.09064e-32
4.44007e-32
2.77712e-32
1.73501e-32
1.08271e-32
6.74887e-33
4.202e-33
2.61332e-33
1.62345e-33
1.00739e-33
6.24418e-34
3.86606e-34
2.391e-34
1.47711e-34
9.11521e-35
5.61882e-35
3.45979e-35
2.12805e-35
1.3075e-35
8.02482e-36
4.91995e-36
3.01314e-36
1.84338e-36
1.12655e-36
6.87737e-37
4.19408e-37
2.55502e-37
1.55488e-37
9.45245e-38
5.74038e-38
3.48246e-38
2.11049e-38
1.27771e-38
7.72745e-39
4.6687e-39
2.81782e-39
1.69899e-39
1.02336e-39
6.15783e-40
3.70162e-40
2.2229e-40
1.33357e-40
7.99249e-41
4.78539e-41
2.86236e-41
1.71043e-41
1.02108e-41
6.08963e-42
3.62827e-42
2.15967e-42
1.28427e-42
7.62972e-43
4.52839e-43
2.68512e-43
1.59064e-43
9.41382e-44
5.5661e-44
3.28796e-44
1.94042e-44
1.14408e-44
6.73929e-45
3.96615e-45
2.33196e-45
1.36985e-45
8.03944e-46
4.71391e-46
2.76147e-46
1.61623e-46
9.45094e-47
5.52146e-47
3.22286e-47
1.87949e-47
1.09509e-47
6.37489e-48
3.70775e-48
2.15459e-48
1.25094e-48
7.25647e-49
4.20566e-49
2.43537e-49
1.40902e-49
8.14507e-50
4.70431e-50
2.71471e-50
1.56524e-50
9.01703e-51
5.19013e-51
2.98486e-51
1.71515e-51
9.84722e-52
5.64885e-52
3.23775e-52
1.85423e-52
1.06102e-52
6.06628e-53
3.46547e-53
1.97809e-53
1.12816e-53
6.42897e-54
3.66065e-54
2.08268e-54
1.18395e-54
6.72503e-55
3.81686e-55
2.16456e-55
1.22655e-55
6.94472e-56
3.92898e-56
2.22106e-56
1.25458e-56
7.08102e-57
3.99349e-57
2.25045e-57
1.26721e-57
7.13001e-58
4.00863e-58
2.25199e-58
1.26416e-58
7.09101e-59
3.97448e-59
2.22598e-59
1.24576e-59
6.96655e-60
3.8929e-60
2.17372e-60
1.21285e-60
6.76219e-61
3.76742e-61
2.09739e-61
1.16679e-61
6.4861e-62
3.60294e-62
1.99992e-62
1.1093e-62
6.14854e-63
3.40548e-63
1.88482e-63
1.04244e-63
5.76124e-64
3.18179e-64
1.75596e-64
9.68392e-65
5.33677e-65
2.93899e-65
1.61737e-65
8.89443e-66
4.88788e-66
2.68423e-66
1.47305e-66
8.07813e-67
4.42695e-67
2.42437e-67
1.32677e-67
7.25608e-68
3.96584e-68
2.16646e-68
1.18342e-68
6.4734e-69
3.56331e-69
2.0054e-69
1.21026e-69
8.76344e-70
)
;
    }
    Wall
    {
        type            calculated;
        value           nonuniform List<scalar> 
400
(
0.0511146
0.0454279
0.0406106
0.0364142
0.0327029
0.0293914
0.0264205
0.0237462
0.0213336
0.0191546
0.0171851
0.0154048
0.0137955
0.0123416
0.0110287
0.00984402
0.00877602
0.00781414
0.00694875
0.00617107
0.00547306
0.00484733
0.00428714
0.0037863
0.00333914
0.00294047
0.00258557
0.00227008
0.00199005
0.00174188
0.00152229
0.0013283
0.00115719
0.0010065
0.000874029
0.000757755
0.000655871
0.000566747
0.000488918
0.00042107
0.000362024
0.00031073
0.000266247
0.00022774
0.000194465
0.000165763
0.000141051
0.000119812
0.000101592
8.59898e-05
7.26544e-05
6.12775e-05
5.15895e-05
4.3355e-05
3.63692e-05
3.04538e-05
2.54542e-05
2.12367e-05
1.76857e-05
1.47015e-05
1.21984e-05
1.01029e-05
8.35203e-06
6.89184e-06
5.67643e-06
4.66671e-06
3.8295e-06
3.13666e-06
2.5644e-06
2.09265e-06
1.70451e-06
1.38578e-06
1.12455e-06
9.10866e-07
7.3641e-07
5.94258e-07
4.78652e-07
3.84817e-07
3.08801e-07
2.4734e-07
1.97742e-07
1.57795e-07
1.25684e-07
9.99208e-08
7.92911e-08
6.28037e-08
4.96522e-08
3.91819e-08
3.08622e-08
2.42641e-08
1.90413e-08
1.49151e-08
1.16614e-08
9.10077e-09
7.08931e-09
5.51227e-09
4.27819e-09
3.3143e-09
2.56289e-09
1.97821e-09
1.52413e-09
1.17215e-09
8.99812e-10
6.89498e-10
5.27384e-10
4.02658e-10
3.06875e-10
2.33456e-10
1.77283e-10
1.34386e-10
1.01686e-10
7.68054e-11
5.79096e-11
4.3585e-11
3.27457e-11
2.45586e-11
1.83859e-11
1.37406e-11
1.02509e-11
7.63408e-12
5.67537e-12
4.21187e-12
3.12034e-12
2.30768e-12
1.70373e-12
1.25567e-12
9.2386e-13
6.78565e-13
4.97548e-13
3.64199e-13
2.66137e-13
1.94149e-13
1.41395e-13
1.02801e-13
7.46166e-14
5.40686e-14
3.91139e-14
2.82484e-14
2.03675e-14
1.4661e-14
1.05359e-14
7.55905e-15
5.41442e-15
3.87194e-15
2.76438e-15
1.97044e-15
1.40225e-15
9.96297e-16
7.06732e-16
5.00524e-16
3.53918e-16
2.49856e-16
1.76112e-16
1.23937e-16
8.70827e-17
6.10914e-17
4.27907e-17
2.99255e-17
2.08959e-17
1.45682e-17
1.0141e-17
7.04842e-18
4.89143e-18
3.38936e-18
2.34498e-18
1.61995e-18
1.1174e-18
7.69595e-19
5.29255e-19
3.63428e-19
2.49187e-19
1.70604e-19
1.1663e-19
7.96144e-20
5.4267e-20
3.69356e-20
2.51028e-20
1.7036e-20
1.15448e-20
7.81227e-21
5.27893e-21
3.56199e-21
2.40005e-21
1.61485e-21
1.085e-21
7.2797e-22
4.8774e-22
3.26328e-22
2.1803e-22
1.4547e-22
9.69238e-23
6.44894e-23
4.28499e-23
2.84326e-23
1.88404e-23
1.24674e-23
8.23895e-24
5.43729e-24
3.58352e-24
2.35861e-24
1.55033e-24
1.01768e-24
6.67157e-25
4.36788e-25
2.8559e-25
1.86486e-25
1.21614e-25
7.92055e-26
5.15189e-26
3.3467e-26
2.17125e-26
1.40685e-26
9.10396e-27
5.88385e-27
3.7979e-27
2.44838e-27
1.5764e-27
1.01371e-27
6.51054e-28
4.17621e-28
2.67553e-28
1.71199e-28
1.09411e-28
6.98373e-29
4.45231e-29
2.83502e-29
1.80302e-29
1.14531e-29
7.26647e-30
4.60473e-30
2.91452e-30
1.84253e-30
1.16345e-30
7.33788e-31
4.62256e-31
2.90862e-31
1.82804e-31
1.14757e-31
7.19565e-32
4.50672e-32
2.81937e-32
1.76177e-32
1.09964e-32
6.85577e-33
4.26946e-33
2.65582e-33
1.65021e-33
1.02422e-33
6.34982e-34
3.93232e-34
2.43251e-34
1.50308e-34
9.27757e-35
5.72019e-35
3.523e-35
2.16742e-35
1.332e-35
8.17707e-36
5.01446e-36
3.07175e-36
1.87968e-36
1.149e-36
7.01615e-37
4.27975e-37
2.60785e-37
1.58742e-37
9.65265e-38
5.86342e-38
3.55799e-38
2.15681e-38
1.30609e-38
7.9011e-39
4.77485e-39
2.88264e-39
1.73852e-39
1.04745e-39
6.30446e-40
3.79077e-40
2.27706e-40
1.36643e-40
8.19166e-41
4.90599e-41
2.93531e-41
1.75451e-41
1.04769e-41
6.25008e-42
3.72493e-42
2.21784e-42
1.31924e-42
7.83974e-43
4.65439e-43
2.76065e-43
1.63586e-43
9.68434e-44
5.72775e-44
3.38447e-44
1.99798e-44
1.17838e-44
6.94345e-45
4.08755e-45
2.40409e-45
1.41266e-45
8.29328e-46
4.86428e-46
2.85046e-46
1.66885e-46
9.76176e-47
5.70488e-47
3.331e-47
1.94319e-47
1.13258e-47
6.5953e-48
3.83722e-48
2.23057e-48
1.29548e-48
7.51741e-49
4.35838e-49
2.52466e-49
1.46119e-49
8.44952e-50
4.88185e-50
2.81814e-50
1.62544e-50
9.36716e-51
5.39357e-51
3.10296e-51
1.78365e-51
1.02442e-51
5.8787e-52
3.37072e-52
1.93108e-52
1.1054e-52
6.32236e-53
3.6131e-53
2.06312e-53
1.1771e-53
6.71037e-54
3.82232e-54
2.17548e-54
1.23718e-54
7.03008e-55
3.99153e-55
2.26449e-55
1.28367e-55
7.27101e-56
4.11519e-56
2.32725e-56
1.31508e-56
7.42544e-57
4.1894e-57
2.3618e-57
1.33045e-57
7.48886e-58
4.21209e-58
2.36726e-58
1.32942e-58
7.4601e-59
4.18308e-59
2.34379e-59
1.31224e-59
7.34139e-60
4.10409e-60
2.29261e-60
1.27973e-60
7.13813e-61
3.97857e-61
2.21589e-61
1.23324e-61
6.85851e-62
3.81147e-62
2.11659e-62
1.17453e-62
6.51297e-63
3.60892e-63
1.99831e-63
1.10569e-63
6.11359e-64
3.3779e-64
1.86504e-64
1.02901e-64
5.67341e-65
3.12581e-65
1.72097e-65
9.4685e-66
5.20577e-66
2.86013e-66
1.5703e-66
8.61551e-67
4.72366e-67
2.58808e-67
1.41703e-67
7.75338e-68
4.23965e-68
2.31714e-68
1.26633e-68
6.93015e-69
3.81638e-69
2.14856e-69
1.29688e-69
9.39062e-70
)
;
    }
}


// ************************************************************************* //
