/*--------------------------------*- C++ -*----------------------------------*\
  =========                 |
  \\      /  F ield         | OpenFOAM: The Open Source CFD Toolbox
   \\    /   O peration     | Website:  https://openfoam.org
    \\  /    A nd           | Version:  10
     \\/     M anipulation  |
\*---------------------------------------------------------------------------*/
FoamFile
{
    format      ascii;
    class       volScalarField;
    location    "0.02";
    object      N1;
}
// * * * * * * * * * * * * * * * * * * * * * * * * * * * * * * * * * * * * * //

dimensions      [0 0 0 0 0 0 0];

internalField   nonuniform List<scalar> 
8000
(
0.392774
0.349115
0.312123
0.279894
0.251386
0.225944
0.203116
0.182564
0.164023
0.147274
0.132136
0.11845
0.106079
0.0949005
0.0848064
0.0756979
0.0674862
0.0600901
0.0534359
0.0474559
0.0420884
0.0372767
0.0329689
0.0291174
0.0256787
0.022613
0.0198836
0.0174574
0.015304
0.0133955
0.0117068
0.0102149
0.00889901
0.00774021
0.00672144
0.00582725
0.00504373
0.00435834
0.00375981
0.00323804
0.00278397
0.0023895
0.00204742
0.0017513
0.00149541
0.00127469
0.00108465
0.000921323
0.00078121
0.000661231
0.000558683
0.000471196
0.000396696
0.000333375
0.000279656
0.000234169
0.000195724
0.000163293
0.000135987
0.000113041
9.37935e-05
7.76807e-05
6.42174e-05
5.29897e-05
4.36442e-05
3.58805e-05
2.94432e-05
2.4116e-05
1.9716e-05
1.60889e-05
1.31046e-05
1.0654e-05
8.64551e-06
7.00261e-06
5.66134e-06
4.56844e-06
3.67965e-06
2.95825e-06
2.37385e-06
1.90134e-06
1.52005e-06
1.21296e-06
9.66105e-07
7.68057e-07
6.09473e-07
4.82733e-07
3.81639e-07
3.01156e-07
2.37205e-07
1.86488e-07
1.46344e-07
1.14629e-07
8.96214e-08
6.99403e-08
5.44808e-08
4.23604e-08
3.2876e-08
2.54683e-08
1.96936e-08
1.52005e-08
1.17111e-08
9.00626e-09
6.91356e-09
5.2975e-09
4.05184e-09
3.09349e-09
2.35755e-09
1.79346e-09
1.36188e-09
1.03231e-09
7.81093e-10
5.89956e-10
4.44798e-10
3.34761e-10
2.51499e-10
1.88612e-10
1.412e-10
1.05521e-10
7.87184e-11
5.86212e-11
4.35787e-11
3.23398e-11
2.39577e-11
1.77175e-11
1.308e-11
9.63968e-12
7.09206e-12
5.2088e-12
3.81909e-12
2.79539e-12
2.04262e-12
1.49003e-12
1.0851e-12
7.88885e-13
5.72569e-13
4.14872e-13
3.00107e-13
2.16728e-13
1.56255e-13
1.12469e-13
8.08195e-14
5.7981e-14
4.15283e-14
2.96957e-14
2.12e-14
1.51103e-14
1.07524e-14
7.63908e-15
5.41848e-15
3.83723e-15
2.7131e-15
1.91524e-15
1.34986e-15
9.49886e-16
6.67373e-16
4.68149e-16
3.27884e-16
2.29287e-16
1.60089e-16
1.11603e-16
7.76811e-17
5.3987e-17
3.74625e-17
2.59562e-17
1.79566e-17
1.24037e-17
8.55497e-18
5.8916e-18
4.05131e-18
2.78169e-18
1.90711e-18
1.30556e-18
8.92436e-19
6.09138e-19
4.15162e-19
2.82542e-19
1.92006e-19
1.30292e-19
8.82854e-20
5.97359e-20
4.03605e-20
2.72306e-20
1.83458e-20
1.23424e-20
8.29179e-21
5.56267e-21
3.72655e-21
2.49301e-21
1.66546e-21
1.11106e-21
7.4019e-22
4.92433e-22
3.27156e-22
2.17054e-22
1.43809e-22
9.51513e-23
6.28717e-23
4.14867e-23
2.73387e-23
1.79914e-23
1.18243e-23
7.76076e-24
5.08696e-24
3.32997e-24
2.17696e-24
1.42132e-24
9.26755e-25
6.03495e-25
3.92482e-25
2.54921e-25
1.65361e-25
1.07128e-25
6.93137e-26
4.47902e-26
2.89065e-26
1.86321e-26
1.19945e-26
7.71179e-27
4.95208e-27
3.176e-27
2.03439e-27
1.30153e-27
8.31645e-28
5.30751e-28
3.38308e-28
2.15381e-28
1.36954e-28
8.69799e-29
5.51748e-29
3.49576e-29
2.2122e-29
1.39827e-29
8.82763e-30
5.56652e-30
3.50601e-30
2.20563e-30
1.38595e-30
8.69871e-31
5.45331e-31
3.41479e-31
2.13584e-31
1.33437e-31
8.32698e-32
5.19045e-32
3.2317e-32
2.00986e-32
1.24857e-32
7.74772e-33
4.8023e-33
2.97333e-33
1.83888e-33
1.13602e-33
7.01037e-34
4.32135e-34
2.66087e-34
1.63665e-34
1.00558e-34
6.17177e-35
3.78386e-35
2.31736e-35
1.41772e-35
8.6641e-36
5.28928e-36
3.22561e-36
1.96503e-36
1.19583e-36
7.26974e-37
4.41484e-37
2.67831e-37
1.62314e-37
9.82667e-38
5.94306e-38
3.59063e-38
2.16714e-38
1.30667e-38
7.87049e-39
4.73589e-39
2.84686e-39
1.7096e-39
1.02563e-39
6.1469e-40
3.68037e-40
2.2014e-40
1.31546e-40
7.85297e-41
4.68344e-41
2.79045e-41
1.66097e-41
9.87714e-42
5.8679e-42
3.48271e-42
2.06509e-42
1.22333e-42
7.24003e-43
4.2808e-43
2.52872e-43
1.49234e-43
8.79896e-44
5.18309e-44
3.0503e-44
1.79348e-44
1.05353e-44
6.18302e-45
3.6254e-45
2.1238e-45
1.24302e-45
7.26858e-46
4.24647e-46
2.47865e-46
1.44549e-46
8.42217e-47
4.90283e-47
2.85158e-47
1.65706e-47
9.62077e-48
5.58084e-48
3.23451e-48
1.87301e-48
1.08366e-48
6.26425e-49
3.61802e-49
2.08785e-49
1.2038e-49
6.93486e-50
3.99165e-50
2.29561e-50
1.31909e-50
7.57334e-51
4.34445e-51
2.49011e-51
1.42606e-51
8.16014e-52
4.66548e-52
2.66524e-52
1.52132e-52
8.67651e-53
4.94443e-53
2.81535e-53
1.60175e-53
9.10558e-54
5.17212e-54
2.93549e-54
1.66473e-54
9.4332e-55
5.34108e-55
3.02172e-55
1.70819e-55
9.6488e-56
5.44591e-56
3.07133e-56
1.73079e-56
9.74592e-57
5.48358e-57
3.08298e-57
1.73197e-57
9.7225e-58
5.45358e-58
3.05671e-58
1.71197e-58
9.58094e-59
5.35787e-59
2.99397e-59
1.67177e-59
9.32786e-60
5.2007e-60
2.89747e-60
1.61307e-60
8.97357e-61
4.98836e-61
2.77097e-61
1.53811e-61
8.53148e-62
4.72875e-62
2.6191e-62
1.44959e-62
8.01722e-63
4.43088e-63
2.44706e-63
1.35049e-63
7.44776e-64
4.10443e-64
2.26033e-64
1.2439e-64
6.84057e-65
3.7592e-65
2.0644e-65
1.1329e-65
6.21277e-66
3.4047e-66
1.86455e-66
1.0204e-66
5.58054e-67
3.05006e-67
1.66619e-67
9.10148e-68
4.9786e-68
2.74049e-68
1.54232e-68
9.30792e-69
6.73983e-69
0.397201
0.356116
0.319694
0.28733
0.258421
0.232483
0.209132
0.188063
0.169026
0.151811
0.136237
0.122149
0.109408
0.0978914
0.087488
0.0780981
0.0696308
0.0620033
0.0551399
0.0489712
0.0434338
0.0384694
0.0340246
0.0300504
0.026502
0.0233383
0.0205217
0.0180178
0.0157954
0.0138257
0.0120829
0.0105431
0.00918496
0.00798896
0.00693747
0.00601456
0.00520587
0.00449846
0.00388069
0.00334215
0.00287348
0.00246634
0.00211326
0.00180761
0.0015435
0.00131568
0.00111953
0.000950952
0.000806333
0.000682496
0.00057665
0.000486349
0.000409454
0.000344097
0.00028865
0.0002417
0.000202019
0.000168545
0.000140361
0.000116676
9.68101e-05
8.0179e-05
6.62828e-05
5.46939e-05
4.50479e-05
3.70345e-05
3.03902e-05
2.48916e-05
2.03501e-05
1.66063e-05
1.3526e-05
1.09966e-05
8.92357e-06
7.22783e-06
5.84342e-06
4.71538e-06
3.798e-06
3.0534e-06
2.4502e-06
1.9625e-06
1.56894e-06
1.25197e-06
9.97178e-07
7.9276e-07
6.29075e-07
4.98259e-07
3.93913e-07
3.10842e-07
2.44834e-07
1.92486e-07
1.51051e-07
1.18316e-07
9.25039e-08
7.21899e-08
5.62331e-08
4.37228e-08
3.39334e-08
2.62875e-08
2.03271e-08
1.56894e-08
1.20878e-08
9.29593e-09
7.13593e-09
5.46788e-09
4.18216e-09
3.19299e-09
2.43338e-09
1.85114e-09
1.40569e-09
1.06551e-09
8.06216e-10
6.08932e-10
4.59105e-10
3.45528e-10
2.59588e-10
1.94678e-10
1.45742e-10
1.08915e-10
8.12504e-11
6.05067e-11
4.49804e-11
3.338e-11
2.47283e-11
1.82873e-11
1.35007e-11
9.94974e-12
7.32017e-12
5.37634e-12
3.94193e-12
2.88531e-12
2.10832e-12
1.53796e-12
1.12001e-12
8.14261e-13
5.90986e-13
4.28217e-13
3.0976e-13
2.23699e-13
1.61281e-13
1.16087e-13
8.34192e-14
5.98461e-14
4.28641e-14
3.06509e-14
2.18819e-14
1.55963e-14
1.10983e-14
7.88481e-15
5.59278e-15
3.96067e-15
2.80037e-15
1.97685e-15
1.39329e-15
9.80442e-16
6.88841e-16
4.83209e-16
3.38431e-16
2.36663e-16
1.65239e-16
1.15193e-16
8.01801e-17
5.57237e-17
3.86677e-17
2.67912e-17
1.85343e-17
1.28027e-17
8.83019e-18
6.08113e-18
4.18165e-18
2.87119e-18
1.96847e-18
1.34757e-18
9.21147e-19
6.28736e-19
4.28519e-19
2.91632e-19
1.98184e-19
1.34484e-19
9.11259e-20
6.16578e-20
4.16591e-20
2.81067e-20
1.89361e-20
1.27396e-20
8.55859e-21
5.74166e-21
3.84646e-21
2.57322e-21
1.71905e-21
1.14682e-21
7.64008e-22
5.08279e-22
3.37684e-22
2.24038e-22
1.48437e-22
9.82134e-23
6.4895e-23
4.28218e-23
2.82186e-23
1.85705e-23
1.22048e-23
8.01053e-24
5.25068e-24
3.43714e-24
2.24702e-24
1.46706e-24
9.56583e-25
6.2292e-25
4.05115e-25
2.63126e-25
1.70684e-25
1.10576e-25
7.15449e-26
4.6232e-26
2.98371e-26
1.92319e-26
1.23806e-26
7.96006e-27
5.11151e-27
3.27825e-27
2.09989e-27
1.34343e-27
8.58422e-28
5.4784e-28
3.49201e-28
2.22316e-28
1.41364e-28
8.97807e-29
5.69515e-29
3.60834e-29
2.28344e-29
1.4433e-29
9.11192e-30
5.74579e-30
3.61892e-30
2.27667e-30
1.43059e-30
8.97889e-31
5.62896e-31
3.52479e-31
2.20464e-31
1.37735e-31
8.59523e-32
5.35767e-32
3.33581e-32
2.07462e-32
1.2888e-32
7.99735e-33
4.95704e-33
3.06913e-33
1.89814e-33
1.17263e-33
7.23628e-34
4.46061e-34
2.74663e-34
1.6894e-34
1.03799e-34
6.37069e-35
3.90582e-35
2.39206e-35
1.46342e-35
8.94341e-36
5.4598e-36
3.3296e-36
2.02838e-36
1.23439e-36
7.50414e-37
4.55719e-37
2.76467e-37
1.67549e-37
1.01436e-37
6.13473e-38
3.70643e-38
2.23704e-38
1.34881e-38
8.12437e-39
4.88866e-39
2.9387e-39
1.76476e-39
1.05872e-39
6.34523e-40
3.79912e-40
2.27243e-40
1.35791e-40
8.10639e-41
4.83459e-41
2.88051e-41
1.71458e-41
1.0196e-41
6.05732e-42
3.59514e-42
2.13175e-42
1.26283e-42
7.47379e-43
4.41902e-43
2.61038e-43
1.54054e-43
9.08312e-44
5.35049e-44
3.14882e-44
1.85141e-44
1.08756e-44
6.38276e-45
3.74252e-45
2.19242e-45
1.28318e-45
7.50345e-46
4.38369e-46
2.55875e-46
1.4922e-46
8.69438e-47
5.06131e-47
2.94376e-47
1.71063e-47
9.93182e-48
5.76128e-48
3.3391e-48
1.93357e-48
1.1187e-48
6.46684e-49
3.73504e-49
2.15538e-49
1.24274e-49
7.15922e-50
4.12079e-50
2.36989e-50
1.36178e-50
7.81843e-51
4.48505e-51
2.5707e-51
1.47222e-51
8.42429e-52
4.81652e-52
2.75153e-52
1.57057e-52
8.95747e-53
5.10455e-53
2.90653e-53
1.65363e-53
9.40053e-54
5.33967e-54
3.03059e-54
1.71867e-54
9.73887e-55
5.51416e-55
3.11965e-55
1.76355e-55
9.96157e-56
5.62245e-56
3.17091e-56
1.78691e-56
1.00619e-56
5.66142e-57
3.18297e-57
1.78815e-57
1.00379e-57
5.63051e-58
3.15589e-58
1.76752e-58
9.89185e-59
5.53175e-59
3.09115e-59
1.72604e-59
9.63067e-60
5.36955e-60
2.99155e-60
1.66545e-60
9.265e-61
5.15038e-61
2.86098e-61
1.58808e-61
8.80867e-62
4.8824e-62
2.70422e-62
1.4967e-62
8.2778e-63
4.57492e-63
2.52662e-63
1.3944e-63
7.68994e-64
4.23791e-64
2.33385e-64
1.28436e-64
7.06311e-65
3.8815e-65
2.13158e-65
1.16976e-65
6.41497e-66
3.51552e-66
1.92524e-66
1.05362e-66
5.76226e-67
3.14939e-67
1.72046e-67
9.39794e-68
5.14078e-68
2.82977e-68
1.59257e-68
9.6114e-69
6.96122e-69
0.399137
0.360325
0.324946
0.292926
0.26399
0.237832
0.214167
0.192741
0.173333
0.155751
0.139824
0.125401
0.112347
0.10054
0.0898684
0.0802329
0.0715414
0.0637099
0.0566615
0.0503254
0.044637
0.0395366
0.0349696
0.0308859
0.0272394
0.0239881
0.0210934
0.0185201
0.0162358
0.0142114
0.01242
0.0108374
0.00944138
0.00821203
0.00713121
0.00618255
0.00535129
0.00462412
0.00398911
0.00343553
0.00295377
0.00253525
0.00217231
0.00185812
0.00158663
0.00135245
0.00115082
0.000977528
0.000828868
0.00070157
0.000592766
0.000499942
0.000420898
0.000353714
0.000296718
0.000248455
0.000207665
0.000173256
0.000144284
0.000119937
9.95158e-05
8.242e-05
6.81353e-05
5.62226e-05
4.6307e-05
3.80696e-05
3.12396e-05
2.55874e-05
2.09189e-05
1.70704e-05
1.39041e-05
1.1304e-05
9.17298e-06
7.42985e-06
6.00675e-06
4.84717e-06
3.90416e-06
3.13874e-06
2.51868e-06
2.01735e-06
1.61279e-06
1.28696e-06
1.02505e-06
8.14918e-07
6.46658e-07
5.12186e-07
4.04924e-07
3.1953e-07
2.51678e-07
1.97866e-07
1.55273e-07
1.21623e-07
9.50896e-08
7.42077e-08
5.78049e-08
4.4945e-08
3.48819e-08
2.70223e-08
2.08953e-08
1.6128e-08
1.24256e-08
9.55579e-09
7.3354e-09
5.62073e-09
4.29907e-09
3.28224e-09
2.5014e-09
1.90289e-09
1.44498e-09
1.0953e-09
8.28754e-10
6.25955e-10
4.7194e-10
3.55188e-10
2.66845e-10
2.00121e-10
1.49816e-10
1.1196e-10
8.3522e-11
6.21984e-11
4.6238e-11
3.43133e-11
2.54197e-11
1.87987e-11
1.38782e-11
1.02279e-11
7.52486e-12
5.52667e-12
4.05216e-12
2.96599e-12
2.16728e-12
1.58097e-12
1.15133e-12
8.37032e-13
6.07513e-13
4.40193e-13
3.18423e-13
2.29955e-13
1.65791e-13
1.19333e-13
8.57524e-14
6.152e-14
4.40631e-14
3.15082e-14
2.2494e-14
1.60326e-14
1.14088e-14
8.10538e-15
5.74924e-15
4.07147e-15
2.87872e-15
2.03215e-15
1.43227e-15
1.00787e-15
7.08115e-16
4.96729e-16
3.47902e-16
2.43285e-16
1.69864e-16
1.18416e-16
8.2424e-17
5.72833e-17
3.97499e-17
2.75411e-17
1.90531e-17
1.31611e-17
9.07737e-18
6.25137e-18
4.29872e-18
2.95157e-18
2.02358e-18
1.3853e-18
9.46939e-19
6.46341e-19
4.40518e-19
2.99799e-19
2.03734e-19
1.3825e-19
9.36782e-20
6.33848e-20
4.2826e-20
2.88941e-20
1.94666e-20
1.30965e-20
8.79837e-21
5.90253e-21
3.95424e-21
2.64533e-21
1.76722e-21
1.17895e-21
7.8542e-22
5.22526e-22
3.47149e-22
2.30319e-22
1.52598e-22
1.00967e-22
6.67144e-23
4.40225e-23
2.90098e-23
1.90912e-23
1.25471e-23
8.2352e-24
5.39796e-24
3.53356e-24
2.31006e-24
1.50822e-24
9.83423e-25
6.40399e-25
4.16483e-25
2.70511e-25
1.75474e-25
1.1368e-25
7.35532e-26
4.75299e-26
3.06748e-26
1.97719e-26
1.27282e-26
8.1836e-27
5.25507e-27
3.37033e-27
2.15888e-27
1.38117e-27
8.82539e-28
5.63233e-28
3.59014e-28
2.28564e-28
1.45337e-28
9.23043e-29
5.85525e-29
3.70978e-29
2.34765e-29
1.48389e-29
9.36817e-30
5.9074e-30
3.72072e-30
2.34072e-30
1.47083e-30
9.23154e-31
5.78737e-31
3.62399e-31
2.2667e-31
1.41613e-31
8.83722e-32
5.50852e-32
3.42975e-32
2.13304e-32
1.3251e-32
8.22264e-33
5.0967e-33
3.15561e-33
1.95163e-33
1.20568e-33
7.44026e-34
4.58636e-34
2.82407e-34
1.73704e-34
1.06727e-34
6.55039e-35
4.016e-35
2.45955e-35
1.50471e-35
9.1958e-36
5.61391e-36
3.42359e-36
2.08565e-36
1.26925e-36
7.71607e-37
4.68591e-37
2.84277e-37
1.72283e-37
1.04302e-37
6.30811e-38
3.8112e-38
2.30029e-38
1.38695e-38
8.35413e-39
5.02694e-39
3.02183e-39
1.81469e-39
1.08868e-39
6.52482e-40
3.90667e-40
2.33677e-40
1.39636e-40
8.33598e-41
4.97153e-41
2.96212e-41
1.76317e-41
1.04849e-41
6.22901e-42
3.69707e-42
2.1922e-42
1.29864e-42
7.68579e-43
4.54439e-43
2.68445e-43
1.58426e-43
9.34095e-44
5.50239e-44
3.23824e-44
1.90399e-44
1.11846e-44
6.56411e-45
3.84888e-45
2.25474e-45
1.31966e-45
7.7168e-46
4.50837e-46
2.63154e-46
1.53466e-46
8.9418e-47
5.20537e-47
3.02756e-47
1.75934e-47
1.02147e-47
5.9254e-48
3.43424e-48
1.98868e-48
1.15059e-48
6.65122e-49
3.84155e-49
2.21686e-49
1.27819e-49
7.36351e-50
4.23841e-50
2.43754e-50
1.40066e-50
8.04172e-51
4.61317e-51
2.64415e-51
1.5143e-51
8.66511e-52
4.95424e-52
2.83023e-52
1.6155e-52
9.21377e-53
5.25064e-53
2.98973e-53
1.70098e-53
9.66976e-54
5.49263e-54
3.11743e-54
1.76792e-54
1.00181e-54
5.67228e-55
3.20912e-55
1.81414e-55
1.02474e-55
5.78383e-56
3.26194e-56
1.83822e-56
1.0351e-56
5.82408e-57
3.27444e-57
1.83955e-57
1.03265e-57
5.79245e-58
3.24668e-58
1.81838e-58
1.01766e-58
5.69102e-59
3.18017e-59
1.77576e-59
9.90818e-60
5.52431e-60
3.07779e-60
1.71348e-60
9.53226e-61
5.29899e-61
2.94355e-61
1.63392e-61
9.06305e-62
5.02344e-62
2.78235e-62
1.53996e-62
8.51712e-63
4.70722e-63
2.59971e-63
1.43474e-63
7.91252e-64
4.3606e-64
2.40144e-64
1.32157e-64
7.26778e-65
3.99402e-65
2.19338e-65
1.20369e-65
6.60108e-66
3.61755e-66
1.98113e-66
1.08422e-66
5.92963e-67
3.2409e-67
1.77046e-67
9.67116e-68
5.29027e-68
2.91207e-68
1.6389e-68
9.89134e-69
7.16419e-69
0.400188
0.362997
0.328608
0.297084
0.268316
0.24212
0.218295
0.196641
0.176969
0.159109
0.142903
0.128209
0.114895
0.102844
0.091945
0.0820992
0.0732146
0.0652065
0.0579972
0.0515153
0.0456949
0.0404755
0.0358014
0.0316216
0.027889
0.0245607
0.0215973
0.0189628
0.0166242
0.0145515
0.0127173
0.0110969
0.00966751
0.00840876
0.00730208
0.00633072
0.00547955
0.00473497
0.00408475
0.0035179
0.0030246
0.00259604
0.0022244
0.00190269
0.00162468
0.00138489
0.00117842
0.00100097
0.000848748
0.000718397
0.000606984
0.000511934
0.000430994
0.000362199
0.000303835
0.000254415
0.000212646
0.000177412
0.000147745
0.000122814
0.000101903
8.43971e-05
6.97698e-05
5.75713e-05
4.74178e-05
3.89828e-05
3.1989e-05
2.62012e-05
2.14207e-05
1.748e-05
1.42376e-05
1.15752e-05
9.39304e-06
7.60809e-06
6.15085e-06
4.96346e-06
3.99782e-06
3.21404e-06
2.57911e-06
2.06575e-06
1.65149e-06
1.31784e-06
1.04964e-06
8.3447e-07
6.62174e-07
5.24475e-07
4.14639e-07
3.27197e-07
2.57716e-07
2.02614e-07
1.58999e-07
1.24541e-07
9.73713e-08
7.59884e-08
5.9192e-08
4.60235e-08
3.57189e-08
2.76707e-08
2.13967e-08
1.6515e-08
1.27238e-08
9.78511e-09
7.51145e-09
5.75563e-09
4.40225e-09
3.36102e-09
2.56144e-09
1.94856e-09
1.47967e-09
1.12159e-09
8.48647e-10
6.4098e-10
4.83269e-10
3.63714e-10
2.73251e-10
2.04925e-10
1.53413e-10
1.14648e-10
8.55272e-11
6.36918e-11
4.73482e-11
3.51372e-11
2.60301e-11
1.92501e-11
1.42114e-11
1.04736e-11
7.70556e-12
5.6594e-12
4.14948e-12
3.03722e-12
2.21933e-12
1.61894e-12
1.17898e-12
8.57138e-13
6.22107e-13
4.50767e-13
3.26073e-13
2.3548e-13
1.69775e-13
1.22201e-13
8.78129e-14
6.29983e-14
4.5122e-14
3.22655e-14
2.30346e-14
1.64179e-14
1.1683e-14
8.30021e-15
5.88744e-15
4.16935e-15
2.94793e-15
2.08101e-15
1.46671e-15
1.03211e-15
7.25143e-16
5.08675e-16
3.56269e-16
2.49137e-16
1.73949e-16
1.21265e-16
8.44068e-17
5.86614e-17
4.07063e-17
2.82038e-17
1.95116e-17
1.34778e-17
9.29583e-18
6.40183e-18
4.40219e-18
3.02262e-18
2.07229e-18
1.41865e-18
9.6974e-19
6.61906e-19
4.51127e-19
3.07019e-19
2.08641e-19
1.4158e-19
9.5935e-20
6.4912e-20
4.3858e-20
2.95904e-20
1.99357e-20
1.34121e-20
9.01046e-21
6.04482e-21
4.04958e-21
2.70912e-21
1.80984e-21
1.20739e-21
8.04365e-22
5.3513e-22
3.55524e-22
2.35876e-22
1.5628e-22
1.03404e-22
6.83247e-23
4.50852e-23
2.97102e-23
1.95522e-23
1.28501e-23
8.43409e-24
5.52834e-24
3.61892e-24
2.36587e-24
1.54467e-24
1.00719e-24
6.55877e-25
4.26551e-25
2.77051e-25
1.79717e-25
1.16429e-25
7.53323e-26
4.86797e-26
3.14169e-26
2.02503e-26
1.30363e-26
8.38168e-27
5.38229e-27
3.45193e-27
2.21116e-27
1.41463e-27
9.03918e-28
5.76879e-28
3.67714e-28
2.34103e-28
1.4886e-28
9.45422e-29
5.99723e-29
3.79975e-29
2.40459e-29
1.51989e-29
9.5955e-30
6.05077e-30
3.81104e-30
2.39755e-30
1.50655e-30
9.45575e-31
5.92795e-31
3.71204e-31
2.32178e-31
1.45055e-31
9.05206e-32
5.64247e-32
3.51316e-32
2.18493e-32
1.35734e-32
8.42274e-33
5.22076e-33
3.23244e-33
1.99915e-33
1.23504e-33
7.62151e-34
4.69812e-34
2.89289e-34
1.77938e-34
1.09329e-34
6.71014e-35
4.11397e-35
2.51956e-35
1.54144e-35
9.42027e-36
5.75097e-36
3.5072e-36
2.1366e-36
1.30026e-36
7.90464e-37
4.80046e-37
2.91228e-37
1.76496e-37
1.06854e-37
6.46247e-38
3.90448e-38
2.3566e-38
1.42091e-38
8.55875e-39
5.1501e-39
3.09588e-39
1.85917e-39
1.11538e-39
6.68485e-40
4.00251e-40
2.39411e-40
1.43064e-40
8.54065e-41
5.09363e-41
3.03489e-41
1.80649e-41
1.07426e-41
6.38217e-42
3.78799e-42
2.24613e-42
1.3306e-42
7.87498e-43
4.65629e-43
2.75057e-43
1.62329e-43
9.57117e-44
5.63805e-44
3.3181e-44
1.95096e-44
1.14606e-44
6.72613e-45
3.94391e-45
2.31043e-45
1.35227e-45
7.90752e-46
4.61982e-46
2.69662e-46
1.57262e-46
9.16308e-47
5.33423e-47
3.10253e-47
1.80292e-47
1.04678e-47
6.07228e-48
3.51939e-48
2.03801e-48
1.17914e-48
6.81631e-49
3.93693e-49
2.27192e-49
1.30995e-49
7.54653e-50
4.34379e-50
2.49817e-50
1.43551e-50
8.24189e-51
4.72804e-51
2.71002e-51
1.55203e-51
8.88111e-52
5.07778e-52
2.90083e-52
1.65582e-52
9.44378e-53
5.38176e-53
3.06443e-53
1.74349e-53
9.91152e-54
5.63001e-54
3.19543e-54
1.81218e-54
1.02689e-54
5.81437e-55
3.28954e-55
1.85962e-55
1.05044e-55
5.92895e-56
3.34382e-56
1.88438e-56
1.0611e-56
5.97044e-57
3.35676e-57
1.88582e-57
1.05863e-57
5.93825e-58
3.32843e-58
1.86419e-58
1.04331e-58
5.83451e-59
3.26039e-59
1.82057e-59
1.01583e-59
5.66383e-60
3.15556e-60
1.75679e-60
9.77332e-61
5.43306e-61
3.01805e-61
1.6753e-61
9.29264e-62
5.15075e-62
2.8529e-62
1.57902e-62
8.73326e-63
4.82673e-63
2.66574e-63
1.4712e-63
8.11368e-64
4.47152e-64
2.46255e-64
1.35521e-64
7.45289e-65
4.09579e-65
2.2493e-65
1.23439e-65
6.76952e-66
3.7099e-66
2.03173e-66
1.11192e-66
6.08122e-67
3.32379e-67
1.81576e-67
9.91876e-68
5.42578e-68
2.9867e-68
1.68091e-68
1.01451e-68
7.34807e-69
0.40084
0.364777
0.331192
0.300157
0.271628
0.245494
0.221611
0.199823
0.179972
0.161908
0.145488
0.130579
0.117056
0.104804
0.0937171
0.0836955
0.0746481
0.0664905
0.0591446
0.0525383
0.0466051
0.0412838
0.0365178
0.0322554
0.0284488
0.0250543
0.0220318
0.0193445
0.0169591
0.0148448
0.0129738
0.0113208
0.00986264
0.00857853
0.00744954
0.00645858
0.00559024
0.00483064
0.00416729
0.00358899
0.00308572
0.00264852
0.00226937
0.00194115
0.00165753
0.00141288
0.00120224
0.00102121
0.000865908
0.000732922
0.000619257
0.000522285
0.000439708
0.000369522
0.000309979
0.000259559
0.000216946
0.000180999
0.000150733
0.000125298
0.000103964
8.61038e-05
7.11807e-05
5.87355e-05
4.83768e-05
3.97712e-05
3.26359e-05
2.67311e-05
2.18539e-05
1.78335e-05
1.45256e-05
1.18093e-05
9.58301e-06
7.76196e-06
6.27525e-06
5.06385e-06
4.07868e-06
3.27905e-06
2.63128e-06
2.10753e-06
1.68489e-06
1.3445e-06
1.07087e-06
8.5135e-07
6.75568e-07
5.35085e-07
4.23027e-07
3.33816e-07
2.6293e-07
2.06713e-07
1.62215e-07
1.27061e-07
9.93413e-08
7.75258e-08
6.03897e-08
4.69547e-08
3.64417e-08
2.82306e-08
2.18297e-08
1.68492e-08
1.29813e-08
9.98314e-09
7.66346e-09
5.87211e-09
4.49135e-09
3.42905e-09
2.61328e-09
1.988e-09
1.50962e-09
1.14429e-09
8.65827e-10
6.53957e-10
4.93053e-10
3.71078e-10
2.78784e-10
2.09075e-10
1.5652e-10
1.16969e-10
8.72592e-11
6.49817e-11
4.83072e-11
3.58489e-11
2.65574e-11
1.964e-11
1.44993e-11
1.06857e-11
7.86168e-12
5.77406e-12
4.23356e-12
3.09877e-12
2.26431e-12
1.65175e-12
1.20288e-12
8.74511e-13
6.34718e-13
4.59905e-13
3.32684e-13
2.40254e-13
1.73217e-13
1.24679e-13
8.95937e-14
6.4276e-14
4.60372e-14
3.29199e-14
2.35019e-14
1.6751e-14
1.192e-14
8.46863e-15
6.00692e-15
4.25397e-15
3.00776e-15
2.12325e-15
1.49648e-15
1.05306e-15
7.39867e-16
5.19005e-16
3.63504e-16
2.54197e-16
1.77483e-16
1.23728e-16
8.61218e-17
5.98534e-17
4.15335e-17
2.8777e-17
1.99082e-17
1.37518e-17
9.48483e-18
6.53201e-18
4.49171e-18
3.0841e-18
2.11445e-18
1.44751e-18
9.89472e-19
6.75375e-19
4.60309e-19
3.13269e-19
2.12889e-19
1.44463e-19
9.78886e-20
6.62341e-20
4.47514e-20
3.01932e-20
2.0342e-20
1.36854e-20
9.19411e-21
6.16805e-21
4.13215e-21
2.76436e-21
1.84675e-21
1.23202e-21
8.20776e-22
5.46051e-22
3.6278e-22
2.40691e-22
1.59471e-22
1.05515e-22
6.97202e-23
4.60062e-23
3.03172e-23
1.99518e-23
1.31127e-23
8.60651e-24
5.64139e-24
3.69293e-24
2.41427e-24
1.57627e-24
1.0278e-24
6.69302e-25
4.35284e-25
2.82724e-25
1.83398e-25
1.18815e-25
7.68759e-26
4.96774e-26
3.2061e-26
2.06655e-26
1.33036e-26
8.55363e-27
5.49273e-27
3.52278e-27
2.25655e-27
1.44367e-27
9.22484e-28
5.8873e-28
3.7527e-28
2.38915e-28
1.51921e-28
9.64865e-29
6.12059e-29
3.87794e-29
2.45408e-29
1.55118e-29
9.79309e-30
6.1754e-30
3.88956e-30
2.44696e-30
1.53761e-30
9.65073e-31
6.05023e-31
3.78863e-31
2.3697e-31
1.48049e-31
9.23899e-32
5.75902e-32
3.58576e-32
2.23009e-32
1.38541e-32
8.59695e-33
5.32877e-33
3.29934e-33
2.04054e-33
1.26062e-33
7.77939e-34
4.79547e-34
2.95286e-34
1.81628e-34
1.11597e-34
6.84937e-35
4.19936e-35
2.57188e-35
1.57345e-35
9.61601e-36
5.87051e-36
3.58012e-36
2.18104e-36
1.32731e-36
8.06918e-37
4.90042e-37
2.97295e-37
1.80174e-37
1.09081e-37
6.59723e-38
3.98593e-38
2.40578e-38
1.45058e-38
8.7375e-39
5.2577e-39
3.16059e-39
1.89805e-39
1.13871e-39
6.82474e-40
4.0863e-40
2.44425e-40
1.46061e-40
8.71966e-41
5.20044e-41
3.09855e-41
1.8444e-41
1.09682e-41
6.51622e-42
3.86759e-42
2.29335e-42
1.35859e-42
8.04067e-43
4.7543e-43
2.80849e-43
1.65749e-43
9.77289e-44
5.75693e-44
3.38809e-44
1.99213e-44
1.17025e-44
6.86822e-45
4.02726e-45
2.35928e-45
1.38087e-45
8.07487e-46
4.71764e-46
2.75374e-46
1.60595e-46
9.35737e-47
5.44739e-47
3.16838e-47
1.84121e-47
1.06902e-47
6.20134e-48
3.59423e-48
2.08137e-48
1.20424e-48
6.96148e-49
4.02082e-49
2.32035e-49
1.33789e-49
7.70757e-50
4.43654e-50
2.55154e-50
1.4662e-50
8.41814e-51
4.8292e-51
2.76803e-51
1.58527e-51
9.07142e-52
5.18665e-52
2.96306e-52
1.69136e-52
9.64659e-53
5.4974e-53
3.13031e-53
1.781e-53
1.01248e-53
5.75125e-54
3.26428e-54
1.85124e-54
1.04904e-54
5.93986e-55
3.36058e-55
1.89981e-55
1.07315e-55
6.0572e-56
3.41619e-56
1.92519e-56
1.08409e-56
6.09989e-57
3.42959e-57
1.92676e-57
1.08163e-57
6.06731e-58
3.40081e-58
1.90475e-58
1.06602e-58
5.96161e-59
3.33146e-59
1.86028e-59
1.038e-59
5.78752e-60
3.22451e-60
1.7952e-60
9.98715e-61
5.552e-61
3.08417e-61
1.71202e-61
9.49646e-62
5.26379e-62
2.91555e-62
1.61372e-62
8.9253e-63
4.93293e-63
2.72443e-63
1.50361e-63
8.29255e-64
4.57015e-64
2.5169e-64
1.38515e-64
7.61762e-65
4.18638e-65
2.29908e-65
1.26173e-65
6.91954e-66
3.79217e-66
2.07682e-66
1.13661e-66
6.21635e-67
3.3977e-67
1.85617e-67
1.01396e-67
5.54667e-68
3.05329e-68
1.71842e-68
1.03716e-68
7.5122e-69
0.401273
0.365998
0.333028
0.302411
0.274125
0.248094
0.224212
0.202353
0.182386
0.164178
0.147599
0.132524
0.118837
0.106426
0.0951865
0.0850218
0.0758413
0.0675607
0.0601019
0.0533925
0.0473657
0.0419596
0.0371171
0.0327859
0.0289175
0.0254676
0.0223956
0.0196643
0.0172397
0.0150906
0.0131887
0.0115084
0.0100262
0.0087208
0.00757312
0.00656575
0.00568302
0.00491082
0.00423647
0.00364858
0.00313696
0.0026925
0.00230706
0.00197339
0.00168506
0.00143635
0.00122222
0.00103818
0.000880293
0.000745098
0.000629545
0.000530962
0.000447014
0.000375662
0.000315129
0.000263872
0.000220551
0.000184007
0.000153237
0.00012738
0.000105691
8.75346e-05
7.23636e-05
5.97116e-05
4.91807e-05
4.04321e-05
3.31783e-05
2.71753e-05
2.22172e-05
1.81299e-05
1.4767e-05
1.20055e-05
9.74229e-06
7.89098e-06
6.37956e-06
5.14802e-06
4.14648e-06
3.33356e-06
2.67502e-06
2.14257e-06
1.7129e-06
1.36685e-06
1.08868e-06
8.65505e-07
6.86801e-07
5.43982e-07
4.30061e-07
3.39367e-07
2.67302e-07
2.10151e-07
1.64913e-07
1.29174e-07
1.00994e-07
7.88153e-08
6.13941e-08
4.77358e-08
3.70479e-08
2.87003e-08
2.21928e-08
1.71295e-08
1.31973e-08
1.01492e-08
7.79098e-09
5.96983e-09
4.56609e-09
3.48612e-09
2.65678e-09
2.02109e-09
1.53475e-09
1.16334e-09
8.80241e-10
6.64844e-10
5.01262e-10
3.77257e-10
2.83426e-10
2.12556e-10
1.59126e-10
1.18917e-10
8.87127e-11
6.60641e-11
4.91119e-11
3.64461e-11
2.69999e-11
1.99673e-11
1.47409e-11
1.08638e-11
7.99272e-12
5.87032e-12
4.30414e-12
3.15044e-12
2.30206e-12
1.6793e-12
1.22294e-12
8.89098e-13
6.45305e-13
4.67578e-13
3.38234e-13
2.44263e-13
1.76108e-13
1.2676e-13
9.10892e-14
6.5349e-14
4.68058e-14
3.34697e-14
2.38944e-14
1.70308e-14
1.21192e-14
8.61013e-15
6.10729e-15
4.32506e-15
3.05804e-15
2.15875e-15
1.5215e-15
1.07067e-15
7.52241e-16
5.27686e-16
3.69585e-16
2.5845e-16
1.80453e-16
1.25799e-16
8.75635e-17
6.08555e-17
4.2229e-17
2.9259e-17
2.02417e-17
1.39822e-17
9.64378e-18
6.64149e-18
4.56701e-18
3.13581e-18
2.14991e-18
1.47179e-18
1.00607e-18
6.86709e-19
4.68035e-19
3.18528e-19
2.16463e-19
1.46889e-19
9.9533e-20
6.73469e-20
4.55035e-20
3.07008e-20
2.0684e-20
1.39156e-20
9.34877e-21
6.27183e-21
4.20169e-21
2.8109e-21
1.87784e-21
1.25277e-21
8.34603e-22
5.55252e-22
3.68895e-22
2.44749e-22
1.62161e-22
1.07295e-22
7.08966e-23
4.67827e-23
3.08291e-23
2.02887e-23
1.33342e-23
8.75193e-24
5.73674e-24
3.75537e-24
2.4551e-24
1.60294e-24
1.04519e-24
6.80631e-25
4.42655e-25
2.87513e-25
1.86505e-25
1.20828e-25
7.81792e-26
5.05199e-26
3.26049e-26
2.10162e-26
1.35295e-26
8.69889e-27
5.58604e-27
3.58265e-27
2.29491e-27
1.46822e-27
9.38177e-28
5.98749e-28
3.81659e-28
2.42984e-28
1.54509e-28
9.81309e-29
6.22495e-29
3.94408e-29
2.49596e-29
1.57766e-29
9.96032e-30
6.2809e-30
3.95603e-30
2.48879e-30
1.56391e-30
9.81587e-31
6.1538e-31
3.85351e-31
2.4103e-31
1.50587e-31
9.39741e-32
5.85782e-32
3.6473e-32
2.26838e-32
1.4092e-32
8.74468e-33
5.42038e-33
3.35608e-33
2.07565e-33
1.28232e-33
7.91338e-34
4.87811e-34
3.00377e-34
1.84761e-34
1.13522e-34
6.96762e-35
4.2719e-35
2.61632e-35
1.60066e-35
9.78236e-36
5.97212e-36
3.64212e-36
2.21883e-36
1.35032e-36
8.20912e-37
4.98545e-37
3.02456e-37
1.83304e-37
1.10977e-37
6.71195e-38
4.05528e-38
2.44766e-38
1.47584e-38
8.88977e-39
5.34938e-39
3.21573e-39
1.93118e-39
1.1586e-39
6.944e-40
4.15775e-40
2.48702e-40
1.48618e-40
8.8724e-41
5.29158e-41
3.15289e-41
1.87677e-41
1.11608e-41
6.6307e-42
3.93558e-42
2.33369e-42
1.3825e-42
8.18227e-43
4.83808e-43
2.85801e-43
1.68673e-43
9.94543e-44
5.85863e-44
3.44798e-44
2.02737e-44
1.19097e-44
6.98986e-45
4.09863e-45
2.40112e-45
1.40538e-45
8.21826e-46
4.80147e-46
2.80271e-46
1.63453e-46
9.52398e-47
5.54444e-47
3.22487e-47
1.87406e-47
1.0881e-47
6.31213e-48
3.65849e-48
2.1186e-48
1.2258e-48
7.08619e-49
4.09291e-49
2.36198e-49
1.36191e-49
7.84606e-50
4.5163e-50
2.59744e-50
1.4926e-50
8.56982e-51
4.91628e-51
2.81798e-51
1.6139e-51
9.23536e-52
5.28046e-52
3.01669e-52
1.72199e-52
9.82145e-53
5.59713e-53
3.18714e-53
1.81336e-53
1.03089e-53
5.8559e-54
3.32372e-54
1.88498e-54
1.06817e-54
6.04828e-55
3.42197e-55
1.93454e-55
1.09279e-55
6.16811e-56
3.4788e-56
1.9605e-56
1.10399e-56
6.21194e-57
3.49264e-57
1.96221e-57
1.10155e-57
6.17913e-58
3.46354e-58
1.93992e-58
1.08572e-58
6.07185e-59
3.39311e-59
1.89474e-59
1.05724e-59
5.8949e-60
3.28439e-60
1.82857e-60
1.01729e-60
5.65536e-61
3.14163e-61
1.74395e-61
9.67371e-62
5.36213e-62
2.97006e-62
1.64392e-62
9.09247e-63
5.02541e-63
2.77555e-63
1.53185e-63
8.44842e-64
4.65613e-64
2.5643e-64
1.41125e-64
7.76131e-65
4.26542e-65
2.34252e-65
1.28559e-65
7.05054e-66
3.86403e-66
2.11621e-66
1.15819e-66
6.33447e-67
3.46232e-67
1.8915e-67
1.03328e-67
5.65245e-68
3.11158e-68
1.75125e-68
1.057e-68
7.65596e-69
0.401567
0.366842
0.334322
0.304036
0.27596
0.250038
0.226185
0.204295
0.184256
0.165949
0.149256
0.134059
0.120247
0.107713
0.0963561
0.0860796
0.0767943
0.0684165
0.0608682
0.0540769
0.0479755
0.0425016
0.037598
0.0332116
0.0292937
0.0257995
0.0226879
0.0199212
0.0174651
0.015288
0.0133614
0.0116592
0.0101576
0.00883515
0.00767245
0.00665189
0.0057576
0.00497528
0.00429208
0.00369649
0.00317816
0.00272786
0.00233736
0.00199931
0.00170719
0.00145522
0.00123827
0.00105182
0.000891859
0.000754888
0.000637817
0.000537939
0.000452888
0.000380598
0.00031927
0.00026734
0.000223449
0.000186425
0.000155251
0.000129054
0.00010708
8.86851e-05
7.33147e-05
6.04965e-05
4.98272e-05
4.09636e-05
3.36144e-05
2.75326e-05
2.25092e-05
1.83682e-05
1.49612e-05
1.21634e-05
9.87039e-06
7.99474e-06
6.46345e-06
5.21572e-06
4.20101e-06
3.3774e-06
2.7102e-06
2.17075e-06
1.73543e-06
1.38483e-06
1.103e-06
8.7689e-07
6.95836e-07
5.51138e-07
4.35719e-07
3.43832e-07
2.7082e-07
2.12916e-07
1.67083e-07
1.30874e-07
1.02323e-07
7.98527e-08
6.22023e-08
4.83642e-08
3.75356e-08
2.90781e-08
2.2485e-08
1.73551e-08
1.33711e-08
1.02829e-08
7.8936e-09
6.04847e-09
4.62624e-09
3.53204e-09
2.69178e-09
2.04772e-09
1.55497e-09
1.17867e-09
8.91843e-10
6.73608e-10
5.0787e-10
3.82231e-10
2.87163e-10
2.1536e-10
1.61225e-10
1.20486e-10
8.9883e-11
6.69358e-11
4.976e-11
3.69271e-11