/*--------------------------------*- C++ -*----------------------------------*\
  =========                 |
  \\      /  F ield         | OpenFOAM: The Open Source CFD Toolbox
   \\    /   O peration     | Website:  https://openfoam.org
    \\  /    A nd           | Version:  10
     \\/     M anipulation  |
\*---------------------------------------------------------------------------*/
FoamFile
{
    format      ascii;
    class       volScalarField;
    location    "0.6";
    object      cov;
}
// * * * * * * * * * * * * * * * * * * * * * * * * * * * * * * * * * * * * * //

dimensions      [0 0 0 0 0 0 0];

internalField   uniform 0;

boundaryField
{
    frontAndBack
    {
        type            empty;
    }
    inlet
    {
        type            calculated;
        value           uniform 0;
    }
    outlet
    {
        type            calculated;
        value           uniform 0;
    }
    substrate
    {
        type            calculated;
        value           nonuniform List<scalar> 
400
(
0.734673
0.712425
0.691347
0.670899
0.650825
0.631001
0.611366
0.591896
0.572588
0.553452
0.534506
0.515774
0.497281
0.479053
0.461116
0.443497
0.426218
0.409302
0.392768
0.376634
0.360915
0.345622
0.330766
0.316355
0.302393
0.288885
0.27583
0.26323
0.251081
0.239379
0.22812
0.217296
0.206902
0.196927
0.187364
0.178202
0.16943
0.161039
0.153017
0.145352
0.138033
0.131048
0.124386
0.118035
0.111983
0.106218
0.100731
0.0955082
0.09054
0.0858157
0.0813246
0.0770566
0.0730021
0.0691513
0.065495
0.0620244
0.0587308
0.055606
0.0526418
0.0498307
0.0471653
0.0446385
0.0422434
0.0399737
0.0378231
0.0357856
0.0338556
0.0320276
0.0302965
0.0286574
0.0271054
0.0256362
0.0242455
0.0229291
0.0216833
0.0205043
0.0193887
0.0183331
0.0173344
0.0163895
0.0154957
0.0146502
0.0138504
0.013094
0.0123786
0.0117019
0.0110621
0.010457
0.00988477
0.00934371
0.00883211
0.00834838
0.00789102
0.00745861
0.0070498
0.0066633
0.00629791
0.00595249
0.00562596
0.00531727
0.00502548
0.00474965
0.00448893
0.00424248
0.00400952
0.00378933
0.00358121
0.0033845
0.00319857
0.00302284
0.00285674
0.00269976
0.00255139
0.00241117
0.00227864
0.00215338
0.00203501
0.00192313
0.0018174
0.00171747
0.00162303
0.00153379
0.00144944
0.00136973
0.0012944
0.00122321
0.00115593
0.00109236
0.00103227
0.000975491
0.000921831
0.000871122
0.000823201
0.000777915
0.000735119
0.000694677
0.000656459
0.000620342
0.000586212
0.000553959
0.000523481
0.000494678
0.00046746
0.00044174
0.000417434
0.000394465
0.00037276
0.000352249
0.000332866
0.00031455
0.000297241
0.000280885
0.000265428
0.000250822
0.00023702
0.000223977
0.000211652
0.000200005
0.000188998
0.000178598
0.000168769
0.000159482
0.000150705
0.000142412
0.000134575
0.000127169
0.000120171
0.000113557
0.000107308
0.000101403
9.58221e-05
9.05487e-05
8.55655e-05
8.08566e-05
7.64068e-05
7.22019e-05
6.82283e-05
6.44735e-05
6.09252e-05
5.75723e-05
5.44038e-05
5.14098e-05
4.85805e-05
4.59069e-05
4.33804e-05
4.0993e-05
3.87369e-05
3.6605e-05
3.45905e-05
3.26868e-05
3.08879e-05
2.91879e-05
2.75816e-05
2.60636e-05
2.46292e-05
2.32737e-05
2.19928e-05
2.07824e-05
1.96386e-05
1.85578e-05
1.75364e-05
1.65713e-05
1.56593e-05
1.47974e-05
1.3983e-05
1.32134e-05
1.24862e-05
1.1799e-05
1.11496e-05
1.0536e-05
9.95609e-06
9.40812e-06
8.89032e-06
8.40101e-06
7.93863e-06
7.5017e-06
7.08882e-06
6.69866e-06
6.32997e-06
5.98157e-06
5.65235e-06
5.34124e-06
5.04726e-06
4.76946e-06
4.50694e-06
4.25888e-06
4.02447e-06
3.80295e-06
3.59363e-06
3.39583e-06
3.20892e-06
3.03229e-06
2.86539e-06
2.70767e-06
2.55863e-06
2.41779e-06
2.28471e-06
2.15895e-06
2.04011e-06
1.92781e-06
1.82169e-06
1.72142e-06
1.62666e-06
1.53712e-06
1.4525e-06
1.37255e-06
1.29699e-06
1.22559e-06
1.15813e-06
1.09437e-06
1.03413e-06
9.77197e-07
9.23401e-07
8.72566e-07
8.2453e-07
7.79137e-07
7.36243e-07
6.9571e-07
6.57407e-07
6.21214e-07
5.87012e-07
5.54693e-07
5.24153e-07
4.95294e-07
4.68023e-07
4.42254e-07
4.17903e-07
3.94893e-07
3.73149e-07
3.52602e-07
3.33187e-07
3.1484e-07
2.97503e-07
2.8112e-07
2.65639e-07
2.51011e-07
2.37188e-07
2.24125e-07
2.11782e-07
2.00119e-07
1.89097e-07
1.78682e-07
1.68841e-07
1.59542e-07
1.50754e-07
1.4245e-07
1.34604e-07
1.27189e-07
1.20183e-07
1.13563e-07
1.07307e-07
1.01395e-07
9.58092e-08
9.05308e-08
8.5543e-08
8.08299e-08
7.63764e-08
7.21681e-08
6.81915e-08
6.44339e-08
6.08833e-08
5.75282e-08
5.43579e-08
5.13622e-08
4.85315e-08
4.58567e-08
4.33292e-08
4.0941e-08
3.86843e-08
3.65519e-08
3.4537e-08
3.2633e-08
3.0834e-08
2.91341e-08
2.75278e-08
2.60101e-08
2.45759e-08
2.32208e-08
2.19404e-08
2.07305e-08
1.95873e-08
1.85072e-08
1.74865e-08
1.65221e-08
1.56109e-08
1.47499e-08
1.39364e-08
1.31677e-08
1.24414e-08
1.17552e-08
1.11068e-08
1.04942e-08
9.91543e-09
9.36856e-09
8.85187e-09
8.3637e-09
7.90247e-09
7.46672e-09
7.05503e-09
6.66608e-09
6.29863e-09
5.95148e-09
5.62353e-09
5.31372e-09
5.02105e-09
4.74458e-09
4.48342e-09
4.23674e-09
4.00373e-09
3.78365e-09
3.57578e-09
3.37947e-09
3.19408e-09
3.01901e-09
2.85369e-09
2.6976e-09
2.55023e-09
2.41111e-09
2.27979e-09
2.15585e-09
2.03888e-09
1.92851e-09
1.82439e-09
1.72618e-09
1.63356e-09
1.54623e-09
1.46391e-09
1.38634e-09
1.31327e-09
1.24446e-09
1.17968e-09
1.11874e-09
1.06143e-09
1.00757e-09
9.56976e-10
9.09497e-10
8.64976e-10
8.23269e-10
7.84241e-10
7.47765e-10
7.13725e-10
6.82011e-10
6.52518e-10
6.25154e-10
5.99828e-10
5.7646e-10
5.54973e-10
5.35299e-10
5.17373e-10
5.01138e-10
4.86541e-10
4.73535e-10
4.62078e-10
4.52133e-10
4.43667e-10
4.36654e-10
4.31071e-10
4.26899e-10
4.24125e-10
4.22741e-10
)
;
    }
    Wall
    {
        type            calculated;
        value           nonuniform List<scalar> 
400
(
0.734673
0.712424
0.691347
0.670899
0.650826
0.631001
0.611366
0.591895
0.572587
0.553451
0.534506
0.515774
0.497281
0.479053
0.461117
0.443498
0.42622
0.409304
0.392771
0.376637
0.360918
0.345625
0.33077
0.316359
0.302397
0.288889
0.275835
0.263234
0.251085
0.239384
0.228124
0.217301
0.206907
0.196932
0.187369
0.178207
0.169435
0.161044
0.153022
0.145357
0.138038
0.131053
0.124391
0.118039
0.111987
0.106223
0.100735
0.0955123
0.0905441
0.0858196
0.0813284
0.0770603
0.0730056
0.0691547
0.0654983
0.0620276
0.0587339
0.0556089
0.0526446
0.0498334
0.0471679
0.0446409
0.0422458
0.039976
0.0378252
0.0357877
0.0338576
0.0320295
0.0302983
0.028659
0.027107
0.0256377
0.0242469
0.0229304
0.0216845
0.0205055
0.0193898
0.0183342
0.0173354
0.0163905
0.0154966
0.014651
0.0138512
0.0130947
0.0123793
0.0117026
0.0110627
0.0104576
0.00988532
0.00934423
0.00883259
0.00834884
0.00789145
0.00745901
0.00705017
0.00666365
0.00629824
0.0059528
0.00562624
0.00531754
0.00502573
0.00474988
0.00448914
0.00424267
0.00400971
0.00378951
0.00358137
0.00338465
0.00319871
0.00302296
0.00285686
0.00269987
0.00255149
0.00241126
0.00227872
0.00215346
0.00203508
0.0019232
0.00181746
0.00171753
0.00162309
0.00153384
0.00144949
0.00136977
0.00129444
0.00122325
0.00115597
0.00109239
0.0010323
0.000975517
0.000921855
0.000871144
0.000823221
0.000777934
0.000735136
0.000694693
0.000656473
0.000620355
0.000586224
0.000553971
0.000523491
0.000494688
0.000467469
0.000441747
0.000417441
0.000394471
0.000372766
0.000352254
0.000332871
0.000314554
0.000297245
0.000280888
0.000265432
0.000250825
0.000237023
0.000223979
0.000211654
0.000200007
0.000189
0.000178599
0.000168771
0.000159483
0.000150707
0.000142413
0.000134576
0.00012717
0.000120171
0.000113558
0.000107309
0.000101403
9.58226e-05
9.05492e-05
8.5566e-05
8.0857e-05
7.64071e-05
7.22022e-05
6.82286e-05
6.44737e-05
6.09255e-05
5.75725e-05
5.4404e-05
5.14099e-05
4.85806e-05
4.5907e-05
4.33805e-05
4.09931e-05
3.8737e-05
3.66051e-05
3.45906e-05
3.26869e-05
3.08879e-05
2.9188e-05
2.75816e-05
2.60636e-05
2.46292e-05
2.32737e-05
2.19928e-05
2.07824e-05
1.96386e-05
1.85578e-05
1.75364e-05
1.65713e-05
1.56593e-05
1.47974e-05
1.3983e-05
1.32134e-05
1.24862e-05
1.1799e-05
1.11496e-05
1.0536e-05
9.95609e-06
9.40813e-06
8.89032e-06
8.40101e-06
7.93863e-06
7.5017e-06
7.08882e-06
6.69865e-06
6.32997e-06
5.98157e-06
5.65235e-06
5.34124e-06
5.04726e-06
4.76946e-06
4.50694e-06
4.25888e-06
4.02446e-06
3.80295e-06
3.59363e-06
3.39583e-06
3.20892e-06
3.03229e-06
2.86539e-06
2.70767e-06
2.55863e-06
2.41779e-06
2.28471e-06
2.15895e-06
2.04011e-06
1.92781e-06
1.82169e-06
1.72142e-06
1.62666e-06
1.53712e-06
1.4525e-06
1.37255e-06
1.29699e-06
1.22559e-06
1.15813e-06
1.09437e-06
1.03413e-06
9.77197e-07
9.23401e-07
8.72566e-07
8.24529e-07
7.79137e-07
7.36243e-07
6.95709e-07
6.57407e-07
6.21213e-07
5.87012e-07
5.54693e-07
5.24153e-07
4.95294e-07
4.68023e-07
4.42254e-07
4.17903e-07
3.94893e-07
3.73149e-07
3.52602e-07
3.33187e-07
3.1484e-07
2.97503e-07
2.8112e-07
2.65639e-07
2.51011e-07
2.37188e-07
2.24125e-07
2.11782e-07
2.00119e-07
1.89097e-07
1.78682e-07
1.68841e-07
1.59542e-07
1.50754e-07
1.4245e-07
1.34604e-07
1.27189e-07
1.20183e-07
1.13563e-07
1.07307e-07
1.01395e-07
9.58092e-08
9.05308e-08
8.5543e-08
8.08299e-08
7.63764e-08
7.21681e-08
6.81915e-08
6.44339e-08
6.08833e-08
5.75282e-08
5.43579e-08
5.13622e-08
4.85315e-08
4.58567e-08
4.33292e-08
4.0941e-08
3.86843e-08
3.65519e-08
3.4537e-08
3.2633e-08
3.0834e-08
2.91341e-08
2.75278e-08
2.60101e-08
2.45759e-08
2.32208e-08
2.19404e-08
2.07305e-08
1.95873e-08
1.85072e-08
1.74865e-08
1.65221e-08
1.56109e-08
1.47499e-08
1.39364e-08
1.31677e-08
1.24414e-08
1.17552e-08
1.11068e-08
1.04942e-08
9.91543e-09
9.36856e-09
8.85187e-09
8.3637e-09
7.90247e-09
7.46672e-09
7.05503e-09
6.66608e-09
6.29863e-09
5.95148e-09
5.62353e-09
5.31372e-09
5.02105e-09
4.74458e-09
4.48342e-09
4.23674e-09
4.00373e-09
3.78365e-09
3.57579e-09
3.37947e-09
3.19408e-09
3.01901e-09
2.85369e-09
2.6976e-09
2.55023e-09
2.41111e-09
2.27979e-09
2.15585e-09
2.03888e-09
1.92852e-09
1.82439e-09
1.72618e-09
1.63356e-09
1.54623e-09
1.46391e-09
1.38634e-09
1.31327e-09
1.24446e-09
1.17968e-09
1.11874e-09
1.06143e-09
1.00757e-09
9.56976e-10
9.09498e-10
8.64977e-10
8.23269e-10
7.84241e-10
7.47766e-10
7.13726e-10
6.82011e-10
6.52519e-10
6.25154e-10
5.99829e-10
5.7646e-10
5.54974e-10
5.35299e-10
5.17373e-10
5.01138e-10
4.86541e-10
4.73535e-10
4.62078e-10
4.52133e-10
4.43668e-10
4.36655e-10
4.31071e-10
4.26899e-10
4.24125e-10
4.22741e-10
)
;
    }
}


// ************************************************************************* //
