/*--------------------------------*- C++ -*----------------------------------*\
  =========                 |
  \\      /  F ield         | OpenFOAM: The Open Source CFD Toolbox
   \\    /   O peration     | Website:  https://openfoam.org
    \\  /    A nd           | Version:  10
     \\/     M anipulation  |
\*---------------------------------------------------------------------------*/
FoamFile
{
    format      ascii;
    class       volScalarField;
    location    "6.5";
    object      T;
}
// * * * * * * * * * * * * * * * * * * * * * * * * * * * * * * * * * * * * * //

dimensions      [0 0 0 1 0 0 0];

internalField   nonuniform List<scalar> 
5250
(
1.00001
1.00002
1.00004
1.00013
1.00028
1.00078
1.00167
1.00479
1.01036
1.02882
1.06879
1.18783
1.49898
2.21295
2.67733
2.75238
2.74116
2.73946
2.75073
2.76713
2.77994
2.78856
2.79567
2.8
2.80032
1.00001
1.00002
1.00005
1.00011
1.00031
1.00069
1.00183
1.00433
1.01095
1.02717
1.06954
1.18311
1.49357
2.19991
2.67326
2.75223
2.74059
2.73858
2.74983
2.76615
2.77886
2.78744
2.7945
2.79876
2.79897
1.00001
1.00002
1.00005
1.00011
1.00029
1.00068
1.00179
1.00407
1.01105
1.02554
1.06853
1.17626
1.4787
2.17244
2.66333
2.75135
2.73869
2.73586
2.74705
2.76301
2.77576
2.78446
2.79147
2.79544
2.79548
1
1.00002
1.00004
1.00012
1.00024
1.00073
1.00151
1.00434
1.00959
1.026
1.06293
1.17017
1.45296
2.12965
2.64743
2.74977
2.73547
2.73122
2.74215
2.75825
2.76993
2.77806
2.78519
2.79043
2.79061
1
1.00002
1.00004
1.0001
1.00025
1.00065
1.00148
1.00402
1.00894
1.02458
1.05835
1.15872
1.4218
2.06782
2.62498
2.74704
2.73054
2.72466
2.73532
2.75117
2.76374
2.77182
2.77764
2.78037
2.78108
1
1.00001
1.00004
1.00009
1.00023
1.00057
1.00144
1.00341
1.00892
1.02104
1.05553
1.14205
1.38501
1.98607
2.59436
2.74194
2.72319
2.71493
2.72548
2.74056
2.7528
2.76117
2.76757
2.7708
2.77019
1
1.00001
1.00003
1.00008
1.00022
1.00049
1.00135
1.00295
1.00827
1.01845
1.0503
1.12548
1.342
1.88625
2.55368
2.73236
2.71214
2.70225
2.71274
2.72805
2.73972
2.74678
2.75226
2.75459
2.7534
1
1.00001
1.00003
1.00008
1.00017
1.00051
1.00104
1.00298
1.00654
1.01769
1.04198
1.11204
1.29347
1.77391
2.50118
2.71488
2.6942
2.68424
2.69511
2.71027
2.72252
2.72884
2.73297
2.73299
2.72787
1
1.00001
1.00003
1.00006
1.00018
1.00038
1.00108
1.00237
1.00636
1.0149
1.03889
1.09753
1.2629
1.69338
2.45167
2.69992
2.67983
2.66989
2.67731
2.68997
2.70076
2.7047
2.70606
2.70038
2.68449
1
1.00001
1.00002
1.00007
1.00013
1.0004
1.00081
1.00242
1.0051
1.01432
1.03298
1.0889
1.23055
1.62037
2.37313
2.67027
2.66857
2.66085
2.66113
2.66947
2.67628
2.67703
2.67052
2.65043
2.59155
1
1.00001
1.00002
1.00006
1.00012
1.00036
1.00072
1.00213
1.00452
1.0126
1.02911
1.07803
1.20157
1.54482
2.26951
2.63011
2.66089
2.65203
2.64649
2.64841
2.64991
2.64441
2.62537
2.57781
2.46802
1
1.00001
1.00002
1.00004
1.00012
1.00026
1.00072
1.00166
1.00425
1.01037
1.02598
1.06601
1.17408
1.46618
2.14139
2.57702
2.6519
2.6418
2.63249
2.62875
2.62374
2.60997
2.57897
2.51453
2.39155
1
1.00001
1.00002
1.00004
1.00009
1.00025
1.00056
1.00152
1.00333
1.00929
1.02088
1.05664
1.14271
1.38799
1.98187
2.5079
2.63618
2.62691
2.61498
2.60735
2.59736
2.57713
2.53665
2.47085
2.36459
1
1
1.00001
1.00003
1.00008
1.00018
1.0005
1.00113
1.00296
1.00705
1.0178
1.04433
1.11511
1.30481
1.79487
2.4189
2.60712
2.60321
2.59314
2.58251
2.56945
2.54736
2.50558
2.44284
2.35381
1
1
1.00001
1.00002
1.00007
1.00014
1.00041
1.00089
1.00243
1.00553
1.01443
1.03479
1.09078
1.23619
1.62456
2.31326
2.5677
2.5756
2.56716
2.55571
2.54051
2.51818
2.47861
2.42276
2.34606
1
1
1.00001
1.00002
1.00005
1.00013
1.00031
1.00076
1.0019
1.00452
1.01171
1.02785
1.07303
1.18882
1.50447
2.17743
2.51435
2.55362
2.54407
2.53289
2.51507
2.49233
2.45537
2.40444
2.33856
1
1
1.00001
1.00002
1.00004
1.00011
1.00023
1.00064
1.00143
1.00377
1.00892
1.02273
1.05662
1.14881
1.39483
1.9883
2.43363
2.53149
2.5243
2.51229
2.4927
2.46886
2.43527
2.38923
2.33141
1
1
1.00001
1.00001
1.00003
1.00008
1.0002
1.00045
1.00121
1.00266
1.00737
1.01638
1.04449
1.10921
1.29459
1.76007
2.32594
2.49707
2.5013
2.49108
2.47096
2.44636
2.41514
2.37442
2.32363
1
1
1
1.00001
1.00002
1.00006
1.00013
1.00039
1.00078
1.00231
1.00481
1.01352
1.03076
1.08238
1.20951
1.55515
2.1891
2.44662
2.47306
2.46522
2.44795
2.42421
2.39609
2.35988
2.31534
1
1
1
1.00001
1.00002
1.00004
1.00012
1.00024
1.00071
1.00149
1.00413
1.00929
1.02462
1.05947
1.15834
1.41401
2.00639
2.3737
2.4463
2.44134
2.42622
2.40375
2.37743
2.34548
2.30631
1
1
1
1
1.00001
1.00003
1.00009
1.00019
1.0005
1.00117
1.00289
1.00716
1.01738
1.04418
1.11245
1.29681
1.76475
2.26338
2.40965
2.41677
2.40636
2.38565
2.35922
2.3301
2.29538
1
1
1
1
1.00001
1.00003
1.00005
1.00015
1.00032
1.00088
1.00199
1.00514
1.01221
1.03089
1.07694
1.20118
1.52394
2.11185
2.35293
2.38779
2.38237
2.36551
2.34106
2.31454
2.28396
1
1
1
1
1.00001
1.00002
1.00004
1.00011
1.00023
1.00066
1.00133
1.00392
1.0082
1.02289
1.05308
1.14302
1.36838
1.90681
2.27051
2.35685
2.35817
2.34589
2.32371
2.29813
2.27078
1
1
1
1
1
1.00001
1.00003
1.00007
1.00017
1.00042
1.00103
1.00244
1.00628
1.01458
1.03801
1.09341
1.24597
1.63447
2.14259
2.3124
2.33142
2.32399
2.30562
2.28107
2.25629
1
1
1
1
1
1.00001
1.00002
1.00005
1.00011
1.0003
1.00069
1.00172
1.00422
1.01008
1.02572
1.06265
1.16358
1.42536
1.96667
2.24776
2.30232
2.30037
2.28669
2.26434
2.24038
1
1
1
1
1
1.00001
1.00001
1.00004
1.00007
1.00021
1.00045
1.00123
1.00273
1.00716
1.01682
1.04302
1.10761
1.28295
1.71464
2.13836
2.26422
2.27607
2.26792
2.24915
2.22515
1
1
1
1
1
1
1.00001
1.00002
1.00005
1.00014
1.00029
1.00084
1.00171
1.00498
1.01038
1.02883
1.06701
1.17814
1.45798
1.97229
2.20213
2.24566
2.24461
2.23094
2.21089
1
1
1
1
1
1
1.00001
1.00001
1.00004
1.00008
1.00021
1.00051
1.00123
1.00308
1.00714
1.01868
1.04382
1.11509
1.29447
1.73392
2.10266
2.21017
2.22157
2.2146
2.19801
1
1
1
1
1
1
1
1.00001
1.00002
1.00005
1.00015
1.0003
1.00085
1.00181
1.00488
1.01105
1.02857
1.06896
1.17911
1.46033
1.94397
2.15216
2.19193
2.1928
2.1813
1
1
1
1
1
1
1
1.00001
1.00001
1.00004
1.00008
1.00023
1.00046
1.00136
1.00275
1.00783
1.01705
1.04574
1.11039
1.29215
1.71087
2.05883
2.15895
2.17122
2.16558
1
1
1
1
1
1
1
1
1.00001
1.00002
1.00006
1.00012
1.00035
1.00071
1.00204
1.00415
1.01182
1.02566
1.06904
1.16831
1.44192
1.89735
2.1014
2.14181
2.14449
1
1
1
1
1
1
1
1
1.00001
1.00001
1.00004
1.00008
1.00021
1.00045
1.00128
1.00259
1.00745
1.01584
1.04308
1.10235
1.27081
1.65908
2.00417
2.10904
2.12358
1
1
1
1
1
1
1
1
1
1.00001
1.00002
1.00006
1.00011
1.00032
1.00067
1.00181
1.00403
1.01038
1.02444
1.06189
1.15406
1.40081
1.83501
2.04594
2.09249
1
1
1
1
1
1
1
1
1
1.00001
1.00001
1.00003
1.00008
1.00017
1.00047
1.00095
1.00276
1.00566
1.01573
1.03514
1.09288
1.23029
1.57842
1.93244
2.05513
1
1
1
1
1
1
1
1
1
1
1.00001
1.00002
1.00004
1.00011
1.00025
1.00064
1.0015
1.00362
1.00891
1.02115
1.05331
1.13225
1.3414
1.74768
1.98249
1
1
1
1
1
1
1
1
1
1
1
1.00001
1.00003
1.00006
1.00016
1.00036
1.00089
1.00211
1.00502
1.01247
1.02944
1.07429
1.18516
1.46676
1.84752
1
1
1
1
1
1
1
1
1
1
1
1.00001
1.00002
1.00004
1.00009
1.0002
1.00056
1.00114
1.00326
1.00667
1.01859
1.04133
1.10955
1.27134
1.64342
1
1
1
1
1
1
1
1
1
1
1
1
1.00001
1.00002
1.00005
1.00013
1.00028
1.00078
1.00157
1.00449
1.00929
1.0254
1.05775
1.15059
1.3774
1
1
1
1
1
1
1
1
1
1
1
1
1.00001
1.00001
1.00003
1.00007
1.00018
1.0004
1.00102
1.00237
1.00572
1.01403
1.03341
1.08379
1.20992
1
1
1
1
1
1
1
1
1
1
1
1
1
1.00001
1.00002
1.00004
1.00011
1.00023
1.00063
1.0013
1.00369
1.00757
1.02102
1.0467
1.12328
1
1
1
1
1
1
1
1
1
1
1
1
1
1
1.00001
1.00003
1.00006
1.00016
1.00034
1.00097
1.00196
1.00563
1.01175
1.03207
1.07406
1
1
1
1
1
1
1
1
1
1
1
1
1
1
1.00001
1.00002
1.00004
1.00012
1.00027
1.00067
1.00165
1.00392
1.01004
1.02367
1.06155
1
1
1
1
1
1
1
1
1
1
1
1
1
1
1.00001
1.00002
1.00004
1.0001
1.00024
1.00058
1.00153
1.00349
1.00949
1.02199
1.05929
1
1
1
1
1
1
1
1
1
1
1
1
1
1
1.00001
1.00002
1.00004
1.0001
1.00021
1.00063
1.00129
1.00391
1.00821
1.02369
1.05615
1
1
1
1
1
1
1
1
1
1
1
1
1
1
1.00001
1.00002
1.00003
1.00009
1.00022
1.00057
1.00143
1.00346
1.00908
1.02204
1.05837
1
1
1
1
1
1
1
1
1
1
1
1
1
1
1.00001
1.00001
1.00004
1.00009
1.00024
1.00052
1.00152
1.00322
1.00949
1.02122
1.05931
1
1
1
1
1
1
1
1
1
1
1
1
1
1
1.00001
1.00002
1.00003
1.0001
1.0002
1.00062
1.00124
1.00379
1.00814
1.02319
1.05593
1
1
1
1
1
1
1
1
1
1
1
1
1
1
1.00001
1.00002
1.00003
1.0001
1.0002
1.00059
1.00129
1.00359
1.0084
1.02245
1.05611
1
1
1
1
1
1
1
1
1
1
1
1
1
1
1.00001
1.00001
1.00003
1.00009
1.0002
1.00058
1.00125
1.00368
1.008
1.02288
1.05484
1
1
1
1
1
1
1
1
1
1
1
1
1
1
1.00001
1.00001
1.00004
1.00008
1.00022
1.00053
1.00135
1.00342
1.00843
1.02194
1.05582
2.29834
2.32089
2.63199
2.73187
2.875
2.87659
2.83997
2.8248
2.8152
2.80481
2.78721
2.77096
2.75444
2.74014
2.72379
2.70655
2.6884
2.67111
2.65544
2.63987
2.62308
2.60815
2.60006
2.5962
2.59752
2.60771
2.62756
2.6585
2.69141
2.72766
2.75843
2.78971
2.8127
2.83711
2.8531
2.87069
2.88236
2.8937
2.90093
2.90972
2.91412
2.91747
2.91968
2.92039
2.91998
2.9193
2.91768
2.91562
2.91238
2.90958
2.90519
2.90154
2.89625
2.89224
2.8853
2.88071
2.87325
2.86768
2.86063
2.85409
2.84678
2.83994
2.83225
2.82476
2.81685
2.8091
2.80065
2.7925
2.78388
2.77553
2.7666
2.75799
2.74893
2.74012
2.73086
2.72168
2.7123
2.70293
2.69341
2.68383
2.67419
2.66444
2.65482
2.64497
2.63532
2.62541
2.61575
2.6059
2.59631
2.58656
2.57709
2.56751
2.55838
2.54921
2.54071
2.53237
2.52512
2.51846
2.51371
2.50975
2.30302
2.33848
2.53539
2.66127
2.725
2.82956
2.86807
2.89611
2.89654
2.88028
2.86589
2.84807
2.83956
2.83054
2.82143
2.80582
2.79303
2.77848
2.76843
2.75579
2.74588
2.73281
2.72672
2.72498
2.73347
2.74182
2.76584
2.79232
2.8206
2.8485
2.86846
2.8892
2.9004
2.91048
2.91471
2.91617
2.91572
2.91623
2.91237
2.90847
2.89958
2.89264
2.8849
2.87915
2.8704
2.86358
2.85483
2.84772
2.8385
2.8305
2.82136
2.81312
2.8047
2.79575
2.78608
2.77685
2.76749
2.7587
2.74942
2.74078
2.73144
2.72279
2.71346
2.70501
2.69586
2.68753
2.67853
2.67029
2.66142
2.65312
2.6443
2.63587
2.62707
2.61848
2.60967
2.60098
2.59214
2.58335
2.57448
2.56556
2.55669
2.54763
2.53874
2.52957
2.52066
2.51143
2.50248
2.49322
2.48429
2.47505
2.46621
2.45707
2.44848
2.43966
2.43158
2.42347
2.41641
2.40984
2.40522
2.40155
2.29767
2.2912
2.35263
2.47914
2.54283
2.59356
2.67425
2.74388
2.81323
2.85271
2.87443
2.88783
2.905
2.88356
2.86246
2.85434
2.85061
2.84882
2.84618
2.84399
2.83837
2.83242
2.8272
2.82681
2.83563
2.84415
2.86445
2.88313
2.90431
2.92238
2.93001
2.93325
2.93352
2.93127
2.92519
2.91966
2.91048
2.9025
2.8906
2.88042
2.86922
2.85926
2.84872
2.83816
2.82748
2.8167
2.80615
2.79532
2.78431
2.77325
2.76175
2.751
2.74025
2.72928
2.71739
2.70574
2.69442
2.68308
2.67191
2.66064
2.64959
2.63837
2.6274
2.61636
2.60563
2.59491
2.58447
2.57397
2.56374
2.55343
2.54348
2.53348
2.52394
2.51434
2.50522
2.49595
2.48719
2.47816
2.46971
2.4609
2.45274
2.44418
2.43627
2.42799
2.42028
2.41228
2.40473
2.39699
2.38956
2.38208
2.37476
2.36758
2.3604
2.35364
2.34667
2.3406
2.33438
2.3299
2.32572
2.32417
2.28308
2.25013
2.26031
2.31435
2.37743
2.43018
2.48627
2.54848
2.60868
2.66887
2.72803
2.7757
2.82366
2.84652
2.85077
2.85714
2.86492
2.87515
2.88081
2.87145
2.8631
2.86318
2.86357
2.86582
2.87964
2.89037
2.90034
2.9075
2.90983
2.90631
2.90113
2.89559
2.88575
2.87681
2.86568
2.85284
2.83864
2.82357
2.80817
2.79372
2.77911
2.76534
2.751
2.73799
2.72458
2.71233
2.69979
2.68803
2.6764
2.66538
2.6542
2.64418
2.63431
2.62494
2.61433
2.60464
2.59445
2.5854
2.57553
2.56678
2.55696
2.54824
2.53843
2.52969
2.51995
2.51105
2.50124
2.49202
2.48206
2.47263
2.46262
2.45308
2.44301
2.43335
2.4232
2.41341
2.40326
2.39347
2.38343
2.37381
2.36391
2.35459
2.34484
2.33591
2.32632
2.31785
2.30848
2.30053
2.29142
2.28406
2.27525
2.26843
2.25994
2.25378
2.24588
2.24073
2.2339
2.23042
2.22586
2.22539
2.2762
2.22854
2.21246
2.22732
2.26295
2.3003
2.34509
2.38763
2.44
2.48249
2.53487
2.57934
2.63218
2.68586
2.73553
2.76911
2.78988
2.80852
2.82419
2.83449
2.83836
2.84396
2.85026
2.85423
2.85282
2.8493
2.84637
2.84117
2.83299
2.82313
2.8112
2.79674
2.78067
2.76562
2.74817
2.73227
2.71447
2.69894
2.68258
2.66877
2.65432
2.64176
2.62855
2.61712
2.60479
2.59422
2.58252
2.57237
2.56126
2.55162
2.54078
2.53178
2.52231
2.5139
2.50419
2.49521
2.48559
2.47709
2.46814
2.45998
2.45139
2.44341
2.4351
2.42736
2.41936
2.41182
2.40402
2.39664
2.38903
2.38179
2.37428
2.36704
2.35947
2.35215
2.34445
2.33708
2.32922
2.32179
2.31373
2.3062
2.29793
2.29035
2.28191
2.27435
2.26582
2.25828
2.24969
2.24218
2.23349
2.22593
2.21724
2.2098
2.20139
2.19424
2.18635
2.1798
2.17295
2.16767
2.16304
2.16058
2.27187
2.22036
2.18873
2.18232
2.19465
2.21236
2.24163
2.27037
2.30616
2.34132
2.37683
2.41655
2.4533
2.49668
2.53527
2.57892
2.61978
2.66049
2.69588
2.73008
2.75713
2.77261
2.78631
2.79034
2.79276
2.78511
2.77166
2.7515
2.72662
2.69912
2.67362
2.65138
2.63206
2.61476
2.59985
2.58583
2.57293
2.5614
2.5507
2.5412
2.53213
2.52398
2.51604
2.50896
2.50183
2.49536
2.48878
2.48251
2.47603
2.46981
2.46299
2.45675
2.45035
2.44436
2.43748
2.43045
2.42259
2.41533
2.40749
2.40015
2.39229
2.38481
2.37684
2.36912
2.36093
2.35298
2.34463
2.33661
2.32818
2.32011
2.31164
2.30356
2.29518
2.2872
2.27896
2.27105
2.26289
2.25502
2.24688
2.23911
2.231
2.22337
2.2153
2.20784
2.1998
2.19247
2.18443
2.17723
2.16933
2.1624
2.15472
2.14807
2.14066
2.13439
2.12739
2.12172
2.11548
2.11098
2.10653
2.10484
2.27059
2.21732
2.17925
2.15717
2.15306
2.15804
2.17041
2.18887
2.20945
2.2354
2.25936
2.28835
2.31583
2.34715
2.37706
2.40893
2.44157
2.47518
2.51249
2.54685
2.58598
2.61791
2.64781
2.66455
2.67417
2.66292
2.63702
2.5989
2.55692
2.51897
2.48798
2.46673
2.4549
2.44882
2.44634
2.44381
2.44063
2.43867
2.43592
2.4341
2.43151
2.4294
2.42626
2.42354
2.41956
2.41615
2.41161
2.40744
2.4023
2.39736
2.39159
2.38623
2.38055
2.37553
2.36992
2.36415
2.3577
2.35148
2.34497
2.33871
2.33228
2.32597
2.31946
2.31297
2.30638
2.2998
2.29314
2.28642
2.27956
2.27262
2.26551
2.25839
2.25099
2.24372
2.23602
2.22867
2.22074
2.21342
2.20533
2.19805
2.18989
2.18263
2.17437
2.16704
2.15867
2.15128
2.14292
2.13554
2.12721
2.11988
2.11164
2.10444
2.09643
2.08951
2.08194
2.07554
2.06882
2.06349
2.05866
2.05612
2.26893
2.21764
2.17622
2.14636
2.1296
2.1239
2.12506
2.13306
2.14264
2.15851
2.17359
2.19274
2.21207
2.23343
2.25646
2.27821
2.3047
2.32877
2.3612
2.39175
2.4282
2.46022
2.49376
2.52251
2.53772
2.52377
2.49263
2.45047
2.40669
2.37148
2.34625
2.32802
2.32435
2.32911
2.33784
2.34663
2.35273
2.35768
2.35976
2.36148
2.36121
2.36051
2.35908
2.35704
2.35435
2.35145
2.34781
2.34411
2.33976
2.33542
2.33049
2.32563
2.3205
2.31591
2.31085
2.30575
2.29976
2.29382
2.28757
2.28165
2.2754
2.26948
2.26309
2.25707
2.25052
2.24439
2.23769
2.23144
2.22463
2.21832
2.21145
2.2051
2.19822
2.19182
2.18491
2.17841
2.17138
2.16472
2.15753
2.15073
2.14341
2.13644
2.12901
2.12205
2.11466
2.10779
2.10046
2.09372
2.08647
2.07986
2.0727
2.06614
2.05909
2.05254
2.0457
2.03926
2.03295
2.02713
2.02236
2.01906
2.26605
2.21753
2.17557
2.14218
2.11815
2.10407
2.09644
2.096
2.09867
2.10488
2.11363
2.12336
2.13685
2.14873
2.16624
2.18021
2.20101
2.22006
2.24814
2.27702
2.30947
2.34458
2.38748
2.42749
2.44267
2.4266
2.39491
2.35672
2.31328
2.27995
2.25461
2.23746
2.22786
2.22769
2.23604
2.24813
2.26024
2.27013
2.27699
2.28188
2.2842
2.28563
2.2856
2.28536
2.28474
2.28375
2.28205
2.28065
2.27826
2.27615
2.27308
2.27017
2.26656
2.26352
2.26016
2.25684
2.25252
2.24808
2.24302
2.23809
2.23271
2.22759
2.22206
2.21671
2.21098
2.20533
2.19935
2.19339
2.18713
2.18088
2.17435
2.16788
2.16113
2.15457
2.14768
2.14114
2.13418
2.1277
2.1207
2.11417
2.10704
2.10052
2.09332
2.08674
2.07947
2.07278
2.06551
2.05874
2.05158
2.0448
2.03786
2.0312
2.02454
2.01813
2.01181
2.00577
1.99993
1.99465
1.99006
1.98737
2.26291
2.21774
2.17623
2.14106
2.11267
2.09312
2.0791
2.07178
2.0684
2.06856
2.07135
2.07483
2.08234
2.08859
2.09914
2.10967
2.12391
2.14334
2.16716
2.19475
2.22883
2.27066
2.33131
2.37235
2.38068
2.36231
2.33262
2.29292
2.24813
2.21018
2.18299
2.16542
2.15259
2.14515
2.14603
2.15402
2.16785
2.18441
2.19882
2.21132
2.21942
2.22614
2.22952
2.23261
2.23403
2.23544
2.23604
2.23621
2.2358
2.23494
2.23343
2.23153
2.22894
2.22642
2.22376
2.22097
2.21759
2.21374
2.20932
2.20481
2.19997
2.19522
2.19018
2.18521
2.17995
2.17475
2.16925
2.16383
2.15806
2.15245
2.1464
2.14059
2.13423
2.12815
2.12145
2.1151
2.10811
2.10151
2.09436
2.08773
2.08059
2.07399
2.06693
2.06036
2.05339
2.04681
2.03985
2.03321
2.02618
2.01945
2.01231
2.00557
1.99843
1.99181
1.98487
1.9786
1.97219
1.9667
1.96168
1.95881
2.25678
2.21633
2.17628
2.14155
2.1109
2.08746
2.06954
2.05675
2.04862
2.04365
2.04135
2.04138
2.04267
2.04558
2.05143
2.05863
2.07154
2.08882
2.11285
2.13923
2.1815
2.24117
2.3099
2.34594
2.3423
2.32271
2.29149
2.24838
2.20351
2.16616
2.13691
2.11737
2.10375
2.0947
2.09083
2.0919
2.09853
2.11201
2.12958
2.14713
2.16218
2.174
2.18204
2.18785
2.1913
2.19383
2.19528
2.19621
2.19643
2.19631
2.19556
2.19441
2.19243
2.19032
2.18781
2.18569
2.18292
2.17994
2.17611
2.17232
2.16788
2.16369
2.15894
2.1545
2.14949
2.14476
2.13945
2.13439
2.1288
2.12344
2.11758
2.11197
2.10587
2.10005
2.09375
2.08774
2.08127
2.07514
2.06859
2.06233
2.05569
2.04928
2.04258
2.03608
2.02936
2.02283
2.01614
2.00962
2.00299
1.9965
1.98992
1.98342
1.97688
1.97037
1.96395
1.95755
1.95147
1.94561
1.94067
1.93728
2.24911
2.21303
2.17566
2.14145
2.11084
2.08474
2.06405
2.04802
2.03564
2.02738
2.02102
2.01736
2.01542
2.01554
2.01775
2.02429
2.03839
2.05441
2.07851
2.11325
2.16788
2.24925
2.31049
2.32708
2.31647
2.29635
2.2612
2.21675
2.17495
2.13978
2.11003
2.08739
2.07022
2.05944
2.05175
2.04763
2.04706
2.05128
2.06127
2.07727
2.09536
2.11278
2.12742
2.13856
2.14664
2.15197
2.1556
2.15776
2.15941
2.16021
2.16059
2.16045
2.15969
2.15854
2.15678
2.15511
2.15312
2.15099
2.14794
2.14459
2.14068
2.13668
2.13231
2.1279
2.1232
2.11846
2.11343
2.10839
2.10301
2.09769
2.09192
2.08631
2.08018
2.07429
2.06787
2.06181
2.05531
2.04915
2.04261
2.03639
2.02984
2.02357
2.01702
2.01068
2.00413
1.99772
1.99116
1.98472
1.97818
1.97178
1.96529
1.95899
1.95259
1.94645
1.9402
1.93431
1.92838
1.92308
1.91816
1.91533
2.23944
2.20688
2.17305
2.14061
2.11049
2.08439
2.06099
2.04337
2.02789
2.01672
2.0076
2.00121
1.99634
1.99491
1.99609
2.00426
2.01717
2.03705
2.06343
2.11488
2.19256
2.27638
2.31485
2.31454
2.30015
2.27475
2.23666
2.19555
2.15779
2.12515
2.09699
2.07334
2.05381
2.03851
2.02742
2.02023
2.01594
2.01463
2.01688
2.02403
2.03754
2.05514
2.07379
2.09064
2.10471
2.11472
2.12203
2.12636
2.12937
2.13091
2.13192
2.13211
2.13202
2.13139
2.13012
2.12876
2.12703
2.12546
2.12322
2.12065
2.11718
2.11376
2.1097
2.10579
2.10136
2.0971
2.09238
2.08782
2.08282
2.07797
2.07267
2.06751
2.06185
2.05636
2.05044
2.04473
2.03857
2.03264
2.02628
2.02013
2.01367
2.00736
2.00087
1.99447
1.98799
1.98156
1.97509
1.96868
1.9622
1.9558
1.94934
1.94295
1.93656
1.93021
1.92397
1.91774
1.91182
1.90606
1.90113
1.89773
2.22862
2.19899
2.16859
2.13847
2.10932
2.0836
2.06015
2.04005
2.02401
2.01003
1.99919
1.99118
1.98456
1.98289
1.98637
1.99648
2.01055
2.03551
2.07684
2.15003
2.24335
2.30114
2.3122
2.30361
2.28569
2.25507
2.21801
2.18208
2.14947
2.12001
2.09339
2.06957
2.04862
2.03029
2.01511
2.0031
1.99527
1.99029
1.98736
1.98749
1.99154
2.00077
2.01543
2.03364
2.05109
2.06742
2.07954
2.08891
2.09457
2.09851
2.10047
2.10172
2.10217
2.10213
2.10164
2.10073
2.09925
2.09797
2.09624
2.0944
2.09161
2.08851
2.08484
2.08109
2.07688
2.07268
2.06805
2.06345
2.05839
2.05341
2.04794
2.04259
2.0368
2.03128
2.02536
2.01971
2.01375
2.00796
2.002
1.99609
1.9901
1.98409
1.978
1.97193
1.96572
1.95963
1.95334
1.94726
1.94097
1.9349
1.92869
1.92265
1.91656
1.91055
1.90463
1.89872
1.89305
1.88757
1.88276
1.87957
2.21549
2.18945
2.16149
2.13428
2.10674
2.08157
2.05872
2.03827
2.02009
2.00638
1.99287
1.98477
1.97821
1.97856
1.98539
1.99744
2.01733
2.05499
2.12165
2.21682
2.28807
2.31104
2.30729
2.29491
2.27152
2.23893
2.20633
2.17567
2.1474
2.12057
2.09546
2.07178
2.04988
2.02983
2.01211
1.99654
1.98381
1.97441
1.96835
1.96521
1.96332
1.96461
1.97037
1.98115
1.99745
2.01505
2.03261
2.04677
2.05844
2.06583
2.07118
2.07376
2.07556
2.07608
2.07624
2.07584
2.07491
2.07391
2.07252
2.07123
2.06923
2.06679
2.06349
2.0601
2.05612
2.05219
2.04778
2.04348
2.03873
2.03407
2.02897
2.02397
2.01867
2.01342
2.00789
2.00243
1.99667
1.99101
1.98507
1.97927
1.97322
1.96732
1.96123
1.95525
1.94912
1.94306
1.93688
1.93075
1.92455
1.91839
1.91224
1.90609
1.90008
1.894
1.88818
1.88227
1.87673
1.87129
1.86657
1.86338
2.20217
2.17913
2.15402
2.12902
2.10391
2.07964
2.05712
2.03712
2.01839
2.00335
1.99081
1.98141
1.97855
1.98239
1.99238
2.00988
2.04263
2.10254
2.19709
2.27838
2.31003
2.3108
2.30217
2.28467
2.25788
2.22862
2.20055
2.17414
2.14889
2.12404
2.10003
2.07649
2.05433
2.03325
2.01391
1.9962
1.98063
1.9672
1.95647
1.94921
1.94404
1.94132
1.93967
1.94191
1.94867
1.96195
1.97772
1.99561
2.01151
2.02538
2.03509
2.04209
2.04587
2.04818
2.04896
2.04906
2.04854
2.04774
2.04641
2.0453
2.04363
2.04192
2.03918
2.03621
2.0326
2.02895
2.0248
2.02068
2.01611
2.01155
2.00657
2.0017
1.99645
1.99134
1.98589
1.98057
1.97499
1.96948
1.96378
1.95814
1.95233
1.94661
1.94071
1.93497
1.92903
1.92326
1.91732
1.9115
1.90558
1.89969
1.89384
1.8879
1.88216
1.87626
1.87066
1.86491
1.85956
1.85429
1.8497
1.84663
2.18867
2.16749
2.14492
2.12148
2.09851
2.07567
2.05402
2.03451
2.01666
2.00137
1.98935
1.98325
1.98493
1.9933
2.00936
2.03788
2.09264
2.18443
2.26971
2.3083
2.31379
2.30789
2.29474
2.27285
2.2471
2.22242
2.19831
2.17502
2.1516
2.12829
2.10515
2.08226
2.06022
2.03881
2.01864
1.99952
1.98193
1.96596
1.95188
1.93981
1.93074
1.92459
1.91961
1.9168
1.91596
1.91933
1.92816
1.94155
1.95893
1.97555
1.99145
2.00323
2.01226
2.01748
2.02068
2.02185
2.02221
2.02176
2.02072
2.01981
2.01849
2.01723
2.01523
2.01282
2.00965
2.00637
2.00254
1.99867
1.99437
1.99007
1.98546
1.98088
1.97601
1.97116
1.96603
1.96095
1.9556
1.9503
1.94479
1.93933
1.93371
1.92811
1.92241
1.91673
1.91098
1.90524
1.89947
1.89369
1.88793
1.88211
1.87641
1.87058
1.86497
1.85923
1.85376
1.84821
1.84299
1.83794
1.83347
1.83054
2.17624
2.15528
2.13524
2.11385
2.09232
2.07109
2.05057
2.03158
2.01493
2.00143
1.9913
1.9917
1.99876
2.01174
2.0376
2.08941
2.17671
2.26327
2.30737
2.31663
2.3125
2.30253
2.28383
2.26138
2.23945
2.21832
2.19758
2.17636
2.15464
2.13225
2.10998
2.08762
2.0659
2.04444
2.0239
2.00401
1.98528
1.96753
1.95124
1.93622
1.92328
1.91222
1.90428
1.89804
1.89385
1.89105
1.89149
1.89636
1.90646
1.92164
1.93807
1.95507
1.96886
1.98027
1.98719
1.99196
1.9939
1.99463
1.99424
1.99335
1.99211
1.99112
1.98955
1.98787
1.98536
1.9826
1.97926
1.97576
1.97174
1.96767
1.96321
1.95879
1.95406
1.94939
1.94443
1.93955
1.93443
1.92935
1.92408
1.91882
1.91345
1.90804
1.90258
1.89707
1.89154
1.88596
1.88042
1.87479
1.86927
1.86363
1.85815
1.85255
1.84713
1.84164
1.83633
1.83106
1.82601
1.82121
1.81693
1.81413
2.16335
2.1427
2.12343
2.10402
2.08453
2.06481
2.04592
2.02806
2.01289
2.00216
2
2.00583
2.01888
2.04268
2.09092
2.17288
2.25912
2.30692
2.31919
2.31626
2.3082
2.29246
2.27221
2.2532
2.23465
2.21674
2.19749
2.17759
2.15663
2.13565
2.11399
2.0927
2.071
2.04989
2.02886
2.00872
1.98891
1.9703
1.95214
1.93547
1.91969
1.90553
1.89382
1.88376
1.87676
1.87052
1.86687
1.86489
1.86637
1.87274
1.88457
1.90019
1.91705
1.93307
1.94617
1.95613
1.9621
1.96555
1.96686
1.96671
1.96579
1.96492
1.96379
1.96258
1.96073
1.95852
1.95572
1.95267
1.94909
1.94539
1.9413
1.93717
1.9327
1.92826
1.92351
1.91882
1.91386
1.90895
1.90384
1.89873
1.89351
1.88826
1.88298
1.87763
1.8723
1.86688
1.86154
1.85609
1.85076
1.84532
1.84002
1.83462
1.8294
1.82412
1.81905
1.81398
1.80922
1.80466
1.80067
1.79803
2.15051
2.13111
2.11169
2.09382
2.0754
2.05798
2.04073
2.02586
2.01325
2.00895
2.0136
2.02645
2.04897
2.09494
2.17259
2.25801
2.30701
2.32124
2.31927
2.31264
2.29895
2.28063
2.26271
2.24664
2.23017
2.21362
2.19552
2.1772
2.15737
2.13747
2.11644
2.09559
2.07414
2.05334
2.03225
2.01198
1.99183
1.97243
1.95339
1.93535
1.918
1.90235
1.88749
1.87472
1.86382
1.85517
1.84845
1.84256
1.83969
1.83857
1.84122
1.84875
1.86277
1.87782
1.89532
1.9096
1.92228
1.93016
1.93564
1.93778
1.93857
1.93797
1.93694
1.93601
1.9347
1.93303
1.9308
1.9283
1.92524
1.92199
1.91828
1.91449
1.91035
1.90616
1.90171
1.89722
1.89254
1.8878
1.88295
1.878
1.87303
1.86794
1.86288
1.85771
1.8526
1.84739
1.84226
1.83703
1.83193
1.82673
1.82169
1.81656
1.81163
1.80665
1.80191
1.79719
1.79278
1.78858
1.78497
1.78255
2.13541
2.11849
2.10016
2.08228
2.06606
2.04971
2.0351
2.02319
2.01845
2.02243
2.0352
2.05687
2.10114
2.17547
2.25903
2.30795
2.32307
2.32143
2.31523
2.30235
2.28435
2.26824
2.2534
2.23958
2.22484
2.20947
2.19252
2.17482
2.15583
2.13656
2.11629
2.09616
2.07532
2.0549
2.03406
2.01381
1.99326
1.97356
1.95399
1.93544
1.91741
1.90028
1.88405
1.86922
1.85549
1.84373
1.83389
1.82587
1.81921
1.81425
1.8118
1.81181
1.81573
1.82519
1.83927
1.85549
1.87184
1.88596
1.89697
1.90443
1.90828
1.91027
1.91007
1.9093
1.90834
1.90727
1.90553
1.9035
1.90099
1.89817
1.89493
1.8915
1.88772
1.88385
1.87971
1.87549
1.87106
1.86656
1.86193
1.85722
1.85245
1.84757
1.84273
1.83775
1.8329
1.82788
1.82303
1.81802
1.81319
1.80823
1.80346
1.79861
1.79397
1.78929
1.78488
1.78051
1.77653
1.77276
1.76968
1.76759
2.11933
2.10617
2.08819
2.07224
2.05657
2.04328
2.03186
2.02633
2.03033
2.04354
2.06499
2.10865
2.18135
2.26274
2.31051
2.32562
2.32387
2.31722
2.30382
2.28619
2.27101
2.25744
2.24501
2.23211
2.21848
2.20352
2.18753
2.17045
2.15252
2.13384
2.11442
2.09468
2.0744
2.05418
2.03361
2.01341
1.9931
1.97345
1.95384
1.93492
1.91639
1.89847
1.88152
1.86513
1.85011
1.83602
1.82343
1.81262
1.80347
1.79603
1.78942
1.78576
1.78391
1.78505
1.79051
1.80193
1.81578
1.83319
1.84828
1.86239
1.87168
1.8784
1.88105
1.88224
1.88155
1.88095
1.87977
1.87834
1.8763
1.87401
1.87125
1.86822
1.86491
1.86135
1.8576
1.85361
1.84954
1.84521
1.84091
1.83633
1.83186
1.82714
1.82257
1.81778
1.81317
1.80839
1.80378
1.79905
1.79451
1.78986
1.78542
1.78089
1.77664
1.7723
1.76836
1.7644
1.76099
1.75775
1.75537
1.7537
2.09806
2.09206
2.07855
2.06156
2.04781
2.03655
2.03243
2.03692
2.05082
2.07277
2.11686
2.18997
2.26841
2.3137
2.32816
2.32593
2.31822
2.30257
2.28587
2.27111
2.25913
2.24744
2.23598
2.2233
2.21002
2.19532
2.18001
2.16332
2.14619
2.1279
2.10939
2.09002
2.07061
2.05072
2.03091
2.01098
1.99121
1.97156
1.95213
1.93313
1.91441
1.89643
1.87882
1.86207
1.84586
1.83062
1.81618
1.80311
1.7913
1.7814
1.77295
1.76584
1.76016
1.75729
1.75641
1.75875
1.76557
1.77825
1.79326
1.81024
1.82506
1.8378
1.84617
1.85131
1.85368
1.85373
1.85318
1.85242
1.8512
1.84942
1.84712
1.84463
1.84175
1.83872
1.83532
1.83175
1.82795
1.82398
1.81992
1.81566
1.81144
1.80697
1.80262
1.79806
1.79364
1.78907
1.78468
1.78015
1.77589
1.77148
1.76742
1.76319
1.75942
1.75549
1.75213
1.74872
1.74606
1.74358
1.74216
1.74105
2.07649
2.07649
2.06729
2.05422
2.04095
2.03592
2.04119
2.0565
2.08028
2.12547
2.20091
2.27739
2.31925
2.33255
2.32962
2.32037
2.30252
2.28523
2.27021
2.25894
2.24789
2.23768
2.22586
2.214
2.20042
2.18662
2.17121
2.15546
2.13848
2.12117
2.10308
2.08466
2.06584
2.04664
2.02739
2.00777
1.98841
1.96887
1.94979
1.93081
1.91233
1.89415
1.87638
1.85916
1.84227
1.82628
1.8107
1.79638
1.7827
1.77067
1.75982
1.75073
1.74275
1.73592
1.73153
1.72941
1.7297
1.73322
1.74204
1.75491
1.77155
1.78703
1.80249
1.81288
1.82121
1.82459
1.82653
1.82611
1.82562
1.82471
1.82313
1.82097
1.81867
1.81588
1.81312
1.80984
1.80661
1.80295
1.7993
1.79537
1.79139
1.78729
1.78312
1.7789
1.77468
1.77036
1.76621
1.76188
1.7579
1.7537
1.74997
1.74604
1.74269
1.73924
1.73647
1.73385
1.73209
1.7307
1.73015
1.72957
2.04584
2.05696
2.05503
2.04663
2.0392
2.04399
2.06024
2.08627
2.13362
2.21269
2.28999
2.32778
2.33831
2.33427
2.32187
2.30288
2.28389
2.26966
2.25741
2.24762
2.23715
2.22718
2.21526
2.20346
2.18984
2.17635
2.16111
2.14595
2.12923
2.11268
2.09492
2.07733
2.05886
2.0405
2.02157
2.00271
1.98366
1.96472
1.94587
1.9272
1.90882
1.8906
1.87289
1.85532
1.83849
1.82189
1.80613
1.79084
1.77639
1.76283
1.75019
1.73895
1.72917
1.72056
1.71316
1.70713
1.70405
1.70293
1.70429
1.70937
1.71986
1.73373
1.75052
1.76593
1.78025
1.78974
1.79673
1.79924
1.80056
1.80004
1.79929
1.79813
1.79614
1.79389
1.79117
1.78845
1.78541
1.78228
1.77892
1.77535
1.77177
1.76786
1.76418
1.76002
1.75631
1.75204
1.74836
1.74414
1.74058
1.73657
1.73328
1.72967
1.72685
1.72395
1.72195
1.72025
1.71959
1.71911
1.71961
1.71966
2.00284
2.03441
2.04115
2.04152
2.04578
2.06143
2.09074
2.14372
2.22436
2.30138
2.33592
2.34414
2.33895
2.32422
2.30216
2.28321
2.26777
2.25621
2.24561
2.23615
2.22576
2.21544
2.20363
2.19178
2.17841
2.16514
2.15027
2.13552
2.11922
2.10316
2.08584
2.06885
2.05091
2.03318
2.01484
1.99657
1.97802
1.95953
1.94099
1.92266
1.90435
1.88645
1.86863
1.85132
1.83432
1.81773
1.80181
1.78608
1.77144
1.75689
1.74367
1.73089
1.71942
1.70915
1.70021
1.69223
1.68544
1.68083
1.67853
1.67881
1.68145
1.688
1.7
1.71518
1.73173
1.74743
1.75963
1.7692
1.7735
1.77629
1.7761
1.77556
1.77454
1.77289
1.77063
1.76818
1.7655
1.76265
1.75964
1.75633
1.75306
1.74937
1.74597
1.74208
1.73864
1.73472
1.7313
1.7275
1.72424
1.72073
1.71782
1.71486
1.7126
1.7106
1.70961
1.70915
1.70944
1.71041
1.71218
1.71281
1.92315
2.00912
2.02959
2.04188
2.06041
2.096
2.15795
2.24292
2.31686
2.34851
2.3516
2.34421
2.32548
2.30223
2.28233
2.26649
2.25451
2.24424
2.23464
2.22442
2.21371
2.20219
2.19029
2.17778
2.16495
2.15155
2.13761
2.12305
2.1078
2.092
2.07556
2.05873
2.04141
2.0239
2.00609
1.98822
1.97026
1.95226
1.93435
1.91644
1.89871
1.88116
1.86379
1.84685
1.83003
1.81386
1.79777
1.78248
1.76735
1.75288
1.73882
1.72544
1.71286
1.70119
1.69063
1.68144
1.67316
1.66592
1.66025
1.65726
1.65673
1.65805
1.66215
1.67126
1.68381
1.7008
1.71671
1.73227
1.74301
1.75123
1.75424
1.75589
1.75527
1.75452
1.75316
1.75084
1.74836
1.74545
1.74278
1.73951
1.73669
1.7331
1.73008
1.72633
1.72315
1.71943
1.71625
1.71274
1.70979
1.70673
1.70431
1.70205
1.70059
1.69981
1.69995
1.70074
1.70233
1.70471
1.70885
1.71113