/*--------------------------------*- C++ -*----------------------------------*\
  =========                 |
  \\      /  F ield         | OpenFOAM: The Open Source CFD Toolbox
   \\    /   O peration     | Website:  https://openfoam.org
    \\  /    A nd           | Version:  10
     \\/     M anipulation  |
\*---------------------------------------------------------------------------*/
FoamFile
{
    format      ascii;
    class       volScalarField;
    location    "0.78";
    object      N1;
}
// * * * * * * * * * * * * * * * * * * * * * * * * * * * * * * * * * * * * * //

dimensions      [0 0 0 0 0 0 0];

internalField   nonuniform List<scalar> 
8000
(
4.72827e-13
1.41656e-12
2.35522e-12
3.28622e-12
4.20734e-12
5.11665e-12
6.01244e-12
6.89321e-12
7.75765e-12
8.60464e-12
9.43319e-12
1.02425e-11
1.10319e-11
1.18008e-11
1.25488e-11
1.32756e-11
1.3981e-11
1.4665e-11
1.53274e-11
1.59685e-11
1.65882e-11
1.71867e-11
1.77645e-11
1.83216e-11
1.88585e-11
1.93755e-11
1.98731e-11
2.03516e-11
2.08116e-11
2.12533e-11
2.16774e-11
2.20842e-11
2.24743e-11
2.28481e-11
2.3206e-11
2.35487e-11
2.38765e-11
2.41898e-11
2.44892e-11
2.4775e-11
2.50477e-11
2.53078e-11
2.55555e-11
2.57914e-11
2.60158e-11
2.6229e-11
2.64315e-11
2.66235e-11
2.68055e-11
2.69777e-11
2.71404e-11
2.7294e-11
2.74386e-11
2.75747e-11
2.77025e-11
2.78222e-11
2.7934e-11
2.80383e-11
2.81351e-11
2.82249e-11
2.83076e-11
2.83836e-11
2.84531e-11
2.85162e-11
2.8573e-11
2.86239e-11
2.86688e-11
2.87081e-11
2.87417e-11
2.877e-11
2.87929e-11
2.88107e-11
2.88234e-11
2.88313e-11
2.88343e-11
2.88327e-11
2.88265e-11
2.88158e-11
2.88007e-11
2.87814e-11
2.87579e-11
2.87303e-11
2.86987e-11
2.86632e-11
2.86238e-11
2.85808e-11
2.8534e-11
2.84837e-11
2.84298e-11
2.83725e-11
2.83118e-11
2.82478e-11
2.81806e-11
2.81101e-11
2.80366e-11
2.796e-11
2.78805e-11
2.7798e-11
2.77126e-11
2.76244e-11
2.75335e-11
2.74399e-11
2.73436e-11
2.72448e-11
2.71434e-11
2.70395e-11
2.69333e-11
2.68246e-11
2.67136e-11
2.66004e-11
2.64849e-11
2.63672e-11
2.62475e-11
2.61256e-11
2.60018e-11
2.58759e-11
2.57481e-11
2.56185e-11
2.5487e-11
2.53537e-11
2.52187e-11
2.5082e-11
2.49436e-11
2.48036e-11
2.46621e-11
2.4519e-11
2.43745e-11
2.42285e-11
2.40812e-11
2.39325e-11
2.37825e-11
2.36313e-11
2.34788e-11
2.33252e-11
2.31704e-11
2.30146e-11
2.28577e-11
2.26998e-11
2.2541e-11
2.23812e-11
2.22206e-11
2.20591e-11
2.18968e-11
2.17338e-11
2.157e-11
2.14056e-11
2.12405e-11
2.10748e-11
2.09085e-11
2.07417e-11
2.05744e-11
2.04067e-11
2.02385e-11
2.007e-11
1.99011e-11
1.97318e-11
1.95624e-11
1.93926e-11
1.92227e-11
1.90526e-11
1.88823e-11
1.8712e-11
1.85416e-11
1.83711e-11
1.82006e-11
1.80302e-11
1.78598e-11
1.76895e-11
1.75193e-11
1.73492e-11
1.71794e-11
1.70097e-11
1.68403e-11
1.66711e-11
1.65022e-11
1.63337e-11
1.61655e-11
1.59976e-11
1.58302e-11
1.56632e-11
1.54966e-11
1.53305e-11
1.51649e-11
1.49998e-11
1.48353e-11
1.46713e-11
1.4508e-11
1.43452e-11
1.41831e-11
1.40216e-11
1.38608e-11
1.37007e-11
1.35413e-11
1.33827e-11
1.32248e-11
1.30677e-11
1.29114e-11
1.27559e-11
1.26012e-11
1.24473e-11
1.22943e-11
1.21422e-11
1.1991e-11
1.18407e-11
1.16913e-11
1.15428e-11
1.13953e-11
1.12487e-11
1.11031e-11
1.09585e-11
1.08149e-11
1.06723e-11
1.05307e-11
1.03901e-11
1.02506e-11
1.01121e-11
9.97463e-12
9.83826e-12
9.70296e-12
9.56874e-12
9.43561e-12
9.30358e-12
9.17264e-12
9.04282e-12
8.9141e-12
8.78651e-12
8.66004e-12
8.53469e-12
8.41048e-12
8.28741e-12
8.16548e-12
8.0447e-12
7.92506e-12
7.80657e-12
7.68923e-12
7.57305e-12
7.45802e-12
7.34415e-12
7.23144e-12
7.11988e-12
7.00949e-12
6.90026e-12
6.79218e-12
6.68526e-12
6.5795e-12
6.4749e-12
6.37145e-12
6.26916e-12
6.16802e-12
6.06803e-12
5.96918e-12
5.87149e-12
5.77493e-12
5.67951e-12
5.58523e-12
5.49208e-12
5.40005e-12
5.30915e-12
5.21937e-12
5.13071e-12
5.04316e-12
4.95671e-12
4.87137e-12
4.78712e-12
4.70396e-12
4.62189e-12
4.54089e-12
4.46097e-12
4.38212e-12
4.30433e-12
4.22759e-12
4.15191e-12
4.07726e-12
4.00365e-12
3.93107e-12
3.85951e-12
3.78897e-12
3.71943e-12
3.6509e-12
3.58335e-12
3.51679e-12
3.45122e-12
3.38661e-12
3.32296e-12
3.26027e-12
3.19852e-12
3.13772e-12
3.07784e-12
3.01889e-12
2.96085e-12
2.90372e-12
2.84749e-12
2.79215e-12
2.73769e-12
2.6841e-12
2.63138e-12
2.57952e-12
2.5285e-12
2.47833e-12
2.42899e-12
2.38047e-12
2.33276e-12
2.28586e-12
2.23976e-12
2.19445e-12
2.14992e-12
2.10616e-12
2.06317e-12
2.02093e-12
1.97944e-12
1.93868e-12
1.89866e-12
1.85936e-12
1.82078e-12
1.7829e-12
1.74571e-12
1.70922e-12
1.67341e-12
1.63827e-12
1.60379e-12
1.56998e-12
1.53681e-12
1.50428e-12
1.47238e-12
1.44111e-12
1.41046e-12
1.38042e-12
1.35098e-12
1.32214e-12
1.29388e-12
1.2662e-12
1.2391e-12
1.21256e-12
1.18658e-12
1.16115e-12
1.13626e-12
1.11191e-12
1.08809e-12
1.06479e-12
1.04201e-12
1.01974e-12
9.97976e-13
9.76706e-13
9.55927e-13
9.35632e-13
9.15815e-13
8.9647e-13
8.77591e-13
8.59172e-13
8.41208e-13
8.23692e-13
8.06619e-13
7.89984e-13
7.73781e-13
7.58005e-13
7.4265e-13
7.27711e-13
7.13185e-13
6.99064e-13
6.85346e-13
6.72024e-13
6.59096e-13
6.46555e-13
6.34398e-13
6.2262e-13
6.11218e-13
6.00187e-13
5.89523e-13
5.79223e-13
5.69282e-13
5.59698e-13
5.50467e-13
5.41585e-13
5.33049e-13
5.24856e-13
5.17003e-13
5.09487e-13
5.02306e-13
4.95456e-13
4.88935e-13
4.8274e-13
4.7687e-13
4.71322e-13
4.66093e-13
4.61183e-13
4.56588e-13
4.52308e-13
4.4834e-13
4.44683e-13
4.41336e-13
4.38297e-13
4.35566e-13
4.3314e-13
4.3102e-13
4.29204e-13
4.27692e-13
4.26483e-13
4.25577e-13
4.24973e-13
4.24671e-13
4.77668e-13
1.4315e-12
2.38105e-12
3.32384e-12
4.25768e-12
5.18063e-12
6.09094e-12
6.98708e-12
7.8677e-12
8.7316e-12
9.57775e-12
1.04053e-11
1.12134e-11
1.20016e-11
1.27692e-11
1.35161e-11
1.42418e-11
1.49462e-11
1.56292e-11
1.62909e-11
1.69313e-11
1.75505e-11
1.81487e-11
1.87262e-11
1.92833e-11
1.98202e-11
2.03374e-11
2.08352e-11
2.1314e-11
2.17743e-11
2.22165e-11
2.2641e-11
2.30483e-11
2.34389e-11
2.38132e-11
2.41717e-11
2.45148e-11
2.48429e-11
2.51567e-11
2.54563e-11
2.57424e-11
2.60153e-11
2.62754e-11
2.65232e-11
2.6759e-11
2.69831e-11
2.7196e-11
2.73981e-11
2.75896e-11
2.77709e-11
2.79423e-11
2.81041e-11
2.82567e-11
2.84002e-11
2.8535e-11
2.86614e-11
2.87796e-11
2.88898e-11
2.89923e-11
2.90873e-11
2.9175e-11
2.92557e-11
2.93294e-11
2.93965e-11
2.94571e-11
2.95114e-11
2.95595e-11
2.96017e-11
2.9638e-11
2.96686e-11
2.96937e-11
2.97134e-11
2.97279e-11
2.97372e-11
2.97414e-11
2.97408e-11
2.97355e-11
2.97254e-11
2.97108e-11
2.96917e-11
2.96683e-11
2.96406e-11
2.96088e-11
2.95728e-11
2.95329e-11
2.94891e-11
2.94414e-11
2.939e-11
2.9335e-11
2.92763e-11
2.92142e-11
2.91486e-11
2.90796e-11
2.90074e-11
2.89318e-11
2.88532e-11
2.87714e-11
2.86866e-11
2.85988e-11
2.85081e-11
2.84145e-11
2.83181e-11
2.8219e-11
2.81172e-11
2.80128e-11
2.79058e-11
2.77963e-11
2.76843e-11
2.75699e-11
2.74532e-11
2.73342e-11
2.72129e-11
2.70894e-11
2.69638e-11
2.6836e-11
2.67062e-11
2.65745e-11
2.64407e-11
2.63051e-11
2.61676e-11
2.60283e-11
2.58873e-11
2.57446e-11
2.56001e-11
2.54541e-11
2.53065e-11
2.51574e-11
2.50068e-11
2.48548e-11
2.47013e-11
2.45466e-11
2.43905e-11
2.42332e-11
2.40747e-11
2.3915e-11
2.37542e-11
2.35923e-11
2.34294e-11
2.32655e-11
2.31006e-11
2.29348e-11
2.27681e-11
2.26007e-11
2.24324e-11
2.22634e-11
2.20937e-11
2.19233e-11
2.17523e-11
2.15807e-11
2.14085e-11
2.12359e-11
2.10627e-11
2.08892e-11
2.07152e-11
2.05409e-11
2.03662e-11
2.01913e-11
2.00161e-11
1.98408e-11
1.96652e-11
1.94895e-11
1.93136e-11
1.91377e-11
1.89618e-11
1.87859e-11
1.86099e-11
1.84341e-11
1.82583e-11
1.80826e-11
1.79071e-11
1.77318e-11
1.75567e-11
1.73818e-11
1.72072e-11
1.70329e-11
1.68589e-11
1.66853e-11
1.6512e-11
1.63392e-11
1.61668e-11
1.59949e-11
1.58235e-11
1.56525e-11
1.54822e-11
1.53123e-11
1.51431e-11
1.49745e-11
1.48065e-11
1.46392e-11
1.44725e-11
1.43065e-11
1.41413e-11
1.39768e-11
1.38131e-11
1.36501e-11
1.34879e-11
1.33266e-11
1.31661e-11
1.30064e-11
1.28476e-11
1.26897e-11
1.25327e-11
1.23766e-11
1.22214e-11
1.20672e-11
1.1914e-11
1.17617e-11
1.16104e-11
1.14602e-11
1.13109e-11
1.11627e-11
1.10155e-11
1.08693e-11
1.07242e-11
1.05802e-11
1.04372e-11
1.02954e-11
1.01546e-11
1.0015e-11
9.87646e-12
9.73904e-12
9.60276e-12
9.46762e-12
9.33362e-12
9.20076e-12
9.06906e-12
8.93853e-12
8.80915e-12
8.68095e-12
8.55392e-12
8.42807e-12
8.3034e-12
8.17991e-12
8.05761e-12
7.9365e-12
7.81658e-12
7.69786e-12
7.58032e-12
7.46399e-12
7.34885e-12
7.2349e-12
7.12216e-12
7.0106e-12
6.90025e-12
6.79109e-12
6.68312e-12
6.57635e-12
6.47077e-12
6.36637e-12
6.26317e-12
6.16114e-12
6.0603e-12
5.96064e-12
5.86215e-12
5.76484e-12
5.66869e-12
5.57371e-12
5.47989e-12
5.38722e-12
5.29571e-12
5.20534e-12
5.11611e-12
5.02802e-12
4.94106e-12
4.85523e-12
4.77052e-12
4.68692e-12
4.60443e-12
4.52304e-12
4.44275e-12
4.36354e-12
4.28542e-12
4.20838e-12
4.1324e-12
4.05749e-12
3.98363e-12
3.91081e-12
3.83904e-12
3.7683e-12
3.69859e-12
3.62989e-12
3.5622e-12
3.49551e-12
3.42982e-12
3.36511e-12
3.30138e-12
3.23862e-12
3.17682e-12
3.11597e-12
3.05607e-12
2.9971e-12
2.93906e-12
2.88194e-12
2.82573e-12
2.77042e-12
2.716e-12
2.66247e-12
2.60982e-12
2.55803e-12
2.5071e-12
2.45702e-12
2.40778e-12
2.35937e-12
2.31179e-12
2.26502e-12
2.21906e-12
2.17389e-12
2.12951e-12
2.08592e-12
2.04309e-12
2.00103e-12
1.95972e-12
1.91916e-12
1.87933e-12
1.84023e-12
1.80185e-12
1.76419e-12
1.72722e-12
1.69095e-12
1.65537e-12
1.62046e-12
1.58623e-12
1.55265e-12
1.51973e-12
1.48746e-12
1.45582e-12
1.42481e-12
1.39443e-12
1.36466e-12
1.33549e-12
1.30692e-12
1.27894e-12
1.25155e-12
1.22473e-12
1.19849e-12
1.1728e-12
1.14767e-12
1.12308e-12
1.09903e-12
1.07552e-12
1.05254e-12
1.03007e-12
1.00811e-12
9.86667e-13
9.6572e-13
9.45266e-13
9.25299e-13
9.05813e-13
8.86802e-13
8.6826e-13
8.50181e-13
8.32559e-13
8.15389e-13
7.98664e-13
7.82381e-13
7.66532e-13
7.51113e-13
7.36119e-13
7.21545e-13
7.07385e-13
6.93636e-13
6.80291e-13
6.67347e-13
6.54799e-13
6.42642e-13
6.30873e-13
6.19488e-13
6.08481e-13
5.9785e-13
5.8759e-13
5.77697e-13
5.68169e-13
5.59001e-13
5.50191e-13
5.41735e-13
5.33629e-13
5.25872e-13
5.18459e-13
5.11389e-13
5.04658e-13
4.98264e-13
4.92205e-13
4.86479e-13
4.81082e-13
4.76013e-13
4.71271e-13
4.66853e-13
4.62758e-13
4.58983e-13
4.55529e-13
4.52392e-13
4.49573e-13
4.47069e-13
4.44881e-13
4.43007e-13
4.41446e-13
4.40198e-13
4.39263e-13
4.3864e-13
4.38328e-13
4.82417e-13
1.44595e-12
2.4057e-12
3.35933e-12
4.30473e-12
5.23996e-12
6.1633e-12
7.07319e-12
7.96823e-12
8.8472e-12
9.70901e-12
1.05527e-11
1.13776e-11
1.21828e-11
1.2968e-11
1.37326e-11
1.44763e-11
1.51989e-11
1.59003e-11
1.65804e-11
1.72391e-11
1.78767e-11
1.84932e-11
1.90888e-11
1.96639e-11
2.02186e-11
2.07532e-11
2.12682e-11
2.1764e-11
2.22408e-11
2.26992e-11
2.31396e-11
2.35624e-11
2.3968e-11
2.43569e-11
2.47295e-11
2.50864e-11
2.54278e-11
2.57544e-11
2.60665e-11
2.63646e-11
2.6649e-11
2.69202e-11
2.71787e-11
2.74247e-11
2.76587e-11
2.7881e-11
2.8092e-11
2.82921e-11
2.84816e-11
2.86609e-11
2.88301e-11
2.89898e-11
2.914e-11
2.92812e-11
2.94136e-11
2.95375e-11
2.96531e-11
2.97607e-11
2.98604e-11
2.99526e-11
3.00374e-11
3.01151e-11
3.01858e-11
3.02498e-11
3.03072e-11
3.03582e-11
3.0403e-11
3.04417e-11
3.04745e-11
3.05015e-11
3.05229e-11
3.05389e-11
3.05495e-11
3.0555e-11
3.05553e-11
3.05507e-11
3.05412e-11
3.0527e-11
3.05082e-11
3.04849e-11
3.04571e-11
3.0425e-11
3.03887e-11
3.03483e-11
3.03038e-11
3.02554e-11
3.0203e-11
3.01469e-11
3.00871e-11
3.00236e-11
2.99566e-11
2.98861e-11
2.98122e-11
2.97349e-11
2.96543e-11
2.95706e-11
2.94837e-11
2.93937e-11
2.93007e-11
2.92048e-11
2.91059e-11
2.90043e-11
2.88998e-11
2.87927e-11
2.86829e-11
2.85705e-11
2.84555e-11
2.83381e-11
2.82183e-11
2.8096e-11
2.79715e-11
2.78447e-11
2.77156e-11
2.75844e-11
2.74511e-11
2.73158e-11
2.71784e-11
2.70391e-11
2.68978e-11
2.67547e-11
2.66098e-11
2.64631e-11
2.63147e-11
2.61647e-11
2.6013e-11
2.58598e-11
2.5705e-11
2.55488e-11
2.53911e-11
2.52321e-11
2.50717e-11
2.491e-11
2.47471e-11
2.4583e-11
2.44177e-11
2.42513e-11
2.40839e-11
2.39154e-11
2.37459e-11
2.35755e-11
2.34042e-11
2.32321e-11
2.30591e-11
2.28854e-11
2.2711e-11
2.25358e-11
2.23601e-11
2.21837e-11
2.20067e-11
2.18293e-11
2.16513e-11
2.14729e-11
2.12941e-11
2.11149e-11
2.09354e-11
2.07556e-11
2.05755e-11
2.03952e-11
2.02148e-11
2.00341e-11
1.98534e-11
1.96726e-11
1.94917e-11
1.93109e-11
1.913e-11
1.89493e-11
1.87686e-11
1.8588e-11
1.84076e-11
1.82274e-11
1.80474e-11
1.78676e-11
1.76881e-11
1.75089e-11
1.73301e-11
1.71516e-11
1.69736e-11
1.67959e-11
1.66187e-11
1.6442e-11
1.62657e-11
1.609e-11
1.59149e-11
1.57403e-11
1.55664e-11
1.5393e-11
1.52203e-11
1.50483e-11
1.4877e-11
1.47064e-11
1.45366e-11
1.43675e-11
1.41991e-11
1.40316e-11
1.38649e-11
1.36991e-11
1.35341e-11
1.33699e-11
1.32067e-11
1.30444e-11
1.2883e-11
1.27225e-11
1.2563e-11
1.24045e-11
1.2247e-11
1.20905e-11
1.1935e-11
1.17805e-11
1.1627e-11
1.14747e-11
1.13234e-11
1.11731e-11
1.1024e-11
1.08759e-11
1.0729e-11
1.05832e-11
1.04385e-11
1.02949e-11
1.01525e-11
1.00113e-11
9.87117e-12
9.73225e-12
9.5945e-12
9.45794e-12
9.32256e-12
9.18837e-12
9.05538e-12
8.92359e-12
8.79301e-12
8.66365e-12
8.53549e-12
8.40855e-12
8.28283e-12
8.15834e-12
8.03507e-12
7.91302e-12
7.7922e-12
7.67262e-12
7.55426e-12
7.43713e-12
7.32123e-12
7.20656e-12
7.09312e-12
6.98091e-12
6.86993e-12
6.76017e-12
6.65163e-12
6.54432e-12
6.43823e-12
6.33336e-12
6.2297e-12
6.12725e-12
6.02601e-12
5.92597e-12
5.82714e-12
5.7295e-12
5.63306e-12
5.5378e-12
5.44373e-12
5.35083e-12
5.25911e-12
5.16856e-12
5.07917e-12
4.99094e-12
4.90386e-12
4.81793e-12
4.73313e-12
4.64947e-12
4.56693e-12
4.48551e-12
4.40521e-12
4.32601e-12
4.24791e-12
4.1709e-12
4.09498e-12
4.02013e-12
3.94635e-12
3.87363e-12
3.80197e-12
3.73135e-12
3.66177e-12
3.59322e-12
3.52569e-12
3.45917e-12
3.39366e-12
3.32914e-12
3.26562e-12
3.20307e-12
3.14149e-12
3.08087e-12
3.02121e-12
2.96249e-12
2.90471e-12
2.84786e-12
2.79192e-12
2.73689e-12
2.68276e-12
2.62953e-12
2.57717e-12
2.52569e-12
2.47508e-12
2.42532e-12
2.37641e-12
2.32833e-12
2.28108e-12
2.23465e-12
2.18904e-12
2.14422e-12
2.1002e-12
2.05696e-12
2.0145e-12
1.9728e-12
1.93186e-12
1.89167e-12
1.85222e-12
1.8135e-12
1.7755e-12
1.73822e-12
1.70164e-12
1.66576e-12
1.63056e-12
1.59605e-12
1.56221e-12
1.52904e-12
1.49651e-12
1.46464e-12
1.4334e-12
1.4028e-12
1.37282e-12
1.34345e-12
1.31469e-12
1.28653e-12
1.25897e-12
1.23199e-12
1.20558e-12
1.17974e-12
1.15447e-12
1.12975e-12
1.10558e-12
1.08196e-12
1.05886e-12
1.03629e-12
1.01425e-12
9.92713e-13
9.71687e-13
9.51162e-13
9.31132e-13
9.11589e-13
8.92529e-13
8.73945e-13
8.5583e-13
8.3818e-13
8.20988e-13
8.04249e-13
7.87958e-13
7.72108e-13
7.56695e-13
7.41713e-13
7.27158e-13
7.13024e-13
6.99306e-13
6.86e-13
6.73101e-13
6.60605e-13
6.48507e-13
6.36803e-13
6.25489e-13
6.1456e-13
6.04013e-13
5.93845e-13
5.8405e-13
5.74626e-13
5.6557e-13
5.56877e-13
5.48545e-13
5.40571e-13
5.32951e-13
5.25683e-13
5.18764e-13
5.12192e-13
5.05963e-13
5.00076e-13
4.94529e-13
4.89319e-13
4.84444e-13
4.79902e-13
4.75692e-13
4.71813e-13
4.68261e-13
4.65037e-13
4.62139e-13
4.59566e-13
4.57316e-13
4.55389e-13
4.53785e-13
4.52503e-13
4.51541e-13
4.509e-13
4.5058e-13
4.86849e-13
1.45938e-12
2.42844e-12
3.39185e-12
4.34757e-12
5.29371e-12
6.22856e-12
7.15055e-12
8.05827e-12
8.95045e-12
9.82599e-12
1.06839e-11
1.15233e-11
1.23436e-11
1.3144e-11
1.39242e-11
1.46837e-11
1.54222e-11
1.61396e-11
1.68358e-11
1.75107e-11
1.81644e-11
1.87969e-11
1.94085e-11
1.99993e-11
2.05695e-11
2.11196e-11
2.16497e-11
2.21603e-11
2.26517e-11
2.31244e-11
2.35787e-11
2.4015e-11
2.44339e-11
2.48356e-11
2.52208e-11
2.55898e-11
2.5943e-11
2.62809e-11
2.6604e-11
2.69126e-11
2.72072e-11
2.74883e-11
2.77561e-11
2.80112e-11
2.82538e-11
2.84845e-11
2.87035e-11
2.89112e-11
2.91079e-11
2.92941e-11
2.94699e-11
2.96358e-11
2.9792e-11
2.99389e-11
3.00766e-11
3.02055e-11
3.03259e-11
3.04379e-11
3.05419e-11
3.06381e-11
3.07266e-11
3.08077e-11
3.08817e-11
3.09486e-11
3.10088e-11
3.10623e-11
3.11094e-11
3.11503e-11
3.1185e-11
3.12138e-11
3.12368e-11
3.12541e-11
3.12659e-11
3.12724e-11
3.12735e-11
3.12696e-11
3.12607e-11
3.12469e-11
3.12283e-11
3.1205e-11
3.11772e-11
3.11449e-11
3.11083e-11
3.10674e-11
3.10224e-11
3.09732e-11
3.09201e-11
3.0863e-11
3.08022e-11
3.07376e-11
3.06693e-11
3.05974e-11
3.0522e-11
3.04432e-11
3.0361e-11
3.02755e-11
3.01868e-11
3.00949e-11
2.99998e-11
2.99018e-11
2.98008e-11
2.96969e-11
2.95901e-11
2.94806e-11
2.93683e-11
2.92534e-11
2.91358e-11
2.90157e-11
2.88931e-11
2.87681e-11
2.86406e-11
2.85109e-11
2.83788e-11
2.82446e-11
2.81082e-11
2.79697e-11
2.78291e-11
2.76865e-11
2.75419e-11
2.73954e-11
2.72471e-11
2.7097e-11
2.69451e-11
2.67915e-11
2.66362e-11
2.64793e-11
2.63209e-11
2.6161e-11
2.59996e-11
2.58367e-11
2.56725e-11
2.5507e-11
2.53402e-11
2.51722e-11
2.5003e-11
2.48326e-11
2.46612e-11
2.44887e-11
2.43152e-11
2.41407e-11
2.39653e-11
2.37891e-11
2.3612e-11
2.34341e-11
2.32555e-11
2.30762e-11
2.28962e-11
2.27156e-11
2.25344e-11
2.23527e-11
2.21705e-11
2.19878e-11
2.18047e-11
2.16212e-11
2.14374e-11
2.12533e-11
2.10689e-11
2.08843e-11
2.06995e-11
2.05146e-11
2.03295e-11
2.01444e-11
1.99592e-11
1.9774e-11
1.95888e-11
1.94037e-11
1.92187e-11
1.90338e-11
1.88491e-11
1.86645e-11
1.84802e-11
1.82961e-11
1.81123e-11
1.79289e-11
1.77457e-11
1.7563e-11
1.73807e-11
1.71987e-11
1.70173e-11
1.68363e-11
1.66559e-11
1.6476e-11
1.62966e-11
1.61179e-11
1.59397e-11
1.57622e-11
1.55854e-11
1.54093e-11
1.52338e-11
1.50591e-11
1.48852e-11
1.47121e-11
1.45397e-11
1.43682e-11
1.41975e-11
1.40276e-11
1.38587e-11
1.36906e-11
1.35235e-11
1.33573e-11
1.3192e-11
1.30277e-11
1.28644e-11
1.27021e-11
1.25408e-11
1.23805e-11
1.22212e-11
1.2063e-11
1.19059e-11
1.17499e-11
1.15949e-11
1.14411e-11
1.12884e-11
1.11368e-11
1.09863e-11
1.0837e-11
1.06888e-11
1.05419e-11
1.0396e-11
1.02514e-11
1.01079e-11
9.96569e-12
9.82463e-12
9.68479e-12
9.54617e-12
9.40876e-12
9.27258e-12
9.13763e-12
9.00392e-12
8.87145e-12
8.74022e-12
8.61024e-12
8.4815e-12
8.35402e-12
8.22779e-12
8.10282e-12
7.97911e-12
7.85665e-12
7.73545e-12
7.61551e-12
7.49684e-12
7.37942e-12
7.26326e-12
7.14835e-12
7.03471e-12
6.92232e-12
6.81118e-12
6.70129e-12
6.59266e-12
6.48527e-12
6.37912e-12
6.27422e-12
6.17055e-12
6.06811e-12
5.96691e-12
5.86693e-12
5.76817e-12
5.67063e-12
5.5743e-12
5.47918e-12
5.38526e-12
5.29254e-12
5.201e-12
5.11065e-12
5.02148e-12
4.93349e-12
4.84666e-12
4.76099e-12
4.67647e-12
4.5931e-12
4.51087e-12
4.42977e-12
4.3498e-12
4.27094e-12
4.1932e-12
4.11655e-12
4.04101e-12
3.96654e-12
3.89316e-12
3.82085e-12
3.7496e-12
3.6794e-12
3.61025e-12
3.54214e-12
3.47506e-12
3.409e-12
3.34395e-12
3.2799e-12
3.21684e-12
3.15477e-12
3.09368e-12
3.03355e-12
2.97438e-12
2.91617e-12
2.85889e-12
2.80254e-12
2.74711e-12
2.6926e-12
2.63899e-12
2.58628e-12
2.53445e-12
2.48349e-12
2.43341e-12
2.38418e-12
2.3358e-12
2.28825e-12
2.24154e-12
2.19565e-12
2.15057e-12
2.1063e-12
2.06282e-12
2.02012e-12
1.9782e-12
1.93704e-12
1.89664e-12
1.857e-12
1.81809e-12
1.77991e-12
1.74245e-12
1.70571e-12
1.66968e-12
1.63434e-12
1.59968e-12
1.56571e-12
1.53241e-12
1.49977e-12
1.46779e-12
1.43645e-12
1.40575e-12
1.37568e-12
1.34623e-12
1.31739e-12
1.28916e-12
1.26154e-12
1.2345e-12
1.20804e-12
1.18216e-12
1.15685e-12
1.1321e-12
1.10791e-12
1.08426e-12
1.06115e-12
1.03857e-12
1.01652e-12
9.94994e-13
9.73977e-13
9.53466e-13
9.33455e-13
9.13937e-13
8.94907e-13
8.76358e-13
8.58285e-13
8.4068e-13
8.2354e-13
8.06858e-13
7.90628e-13
7.74845e-13
7.59504e-13
7.44599e-13
7.30126e-13
7.1608e-13
7.02454e-13
6.89246e-13
6.7645e-13
6.64062e-13
6.52077e-13
6.40492e-13
6.29301e-13
6.18501e-13
6.08089e-13
5.98059e-13
5.88409e-13
5.79135e-13
5.70234e-13
5.61702e-13
5.53537e-13
5.45734e-13
5.38292e-13
5.31207e-13
5.24477e-13
5.18099e-13
5.12071e-13
5.06391e-13
5.01055e-13
4.96064e-13
4.91413e-13
4.87102e-13
4.83129e-13
4.79493e-13
4.76191e-13
4.73224e-13
4.70589e-13
4.68285e-13
4.66312e-13
4.6467e-13
4.63356e-13
4.62372e-13
4.61716e-13
4.61388e-13
4.90829e-13
1.4714e-12
2.44873e-12
3.42075e-12
4.38549e-12
5.34112e-12
6.28592e-12
7.21835e-12
8.13697e-12
9.04052e-12
9.92783e-12
1.07979e-11
1.16499e-11
1.24829e-11
1.32965e-11
1.409e-11
1.4863e-11
1.56153e-11
1.63464e-11
1.70564e-11
1.77452e-11
1.84127e-11
1.9059e-11
1.96842e-11
2.02885e-11
2.08722e-11
2.14355e-11
2.19786e-11
2.2502e-11
2.3006e-11
2.34909e-11
2.39572e-11
2.44052e-11
2.48355e-11
2.52483e-11
2.56443e-11
2.60237e-11
2.6387e-11
2.67348e-11
2.70673e-11
2.73851e-11
2.76885e-11
2.7978e-11
2.8254e-11
2.85169e-11
2.8767e-11
2.90049e-11
2.92307e-11
2.9445e-11
2.9648e-11
2.98402e-11
3.00217e-11
3.0193e-11
3.03544e-11
3.05061e-11
3.06485e-11
3.07818e-11
3.09063e-11
3.10222e-11
3.11299e-11
3.12294e-11
3.13212e-11
3.14053e-11
3.1482e-11
3.15516e-11
3.16141e-11
3.16699e-11
3.1719e-11
3.17617e-11
3.17981e-11
3.18284e-11
3.18527e-11
3.18712e-11
3.18841e-11
3.18914e-11
3.18934e-11
3.189e-11
3.18816e-11
3.18681e-11
3.18497e-11
3.18265e-11
3.17987e-11
3.17662e-11
3.17293e-11
3.16881e-11
3.16425e-11
3.15928e-11
3.15389e-11
3.14811e-11
3.14193e-11
3.13537e-11
3.12844e-11
3.12113e-11
3.11347e-11
3.10545e-11
3.09709e-11
3.08839e-11
3.07936e-11
3.07e-11
3.06033e-11
3.05035e-11
3.04006e-11
3.02947e-11
3.0186e-11
3.00743e-11
2.99599e-11
2.98428e-11
2.9723e-11
2.96006e-11
2.94756e-11
2.93481e-11
2.92182e-11
2.90859e-11
2.89513e-11
2.88144e-11
2.86753e-11
2.85341e-11
2.83907e-11
2.82453e-11
2.80978e-11
2.79485e-11
2.77972e-11
2.76441e-11
2.74892e-11
2.73325e-11
2.71741e-11
2.70141e-11
2.68525e-11
2.66894e-11
2.65248e-11
2.63587e-11
2.61912e-11
2.60223e-11
2.58522e-11
2.56808e-11
2.55082e-11
2.53344e-11
2.51595e-11
2.49835e-11
2.48066e-11
2.46286e-11
2.44497e-11
2.42699e-11
2.40892e-11
2.39077e-11
2.37255e-11
2.35426e-11
2.3359e-11
2.31747e-11
2.29899e-11
2.28045e-11
2.26186e-11
2.24323e-11
2.22455e-11
2.20583e-11
2.18708e-11
2.1683e-11
2.14949e-11
2.13065e-11
2.1118e-11
2.09293e-11
2.07405e-11
2.05516e-11
2.03627e-11
2.01738e-11
1.99849e-11
1.9796e-11
1.96072e-11
1.94186e-11
1.92301e-11
1.90419e-11
1.88538e-11
1.8666e-11
1.84785e-11
1.82914e-11
1.81045e-11
1.79181e-11
1.77321e-11
1.75465e-11
1.73613e-11
1.71767e-11
1.69926e-11
1.68091e-11
1.66261e-11
1.64437e-11
1.6262e-11
1.60809e-11
1.59005e-11
1.57208e-11
1.55418e-11
1.53636e-11
1.51862e-11
1.50095e-11
1.48337e-11
1.46587e-11
1.44845e-11
1.43113e-11
1.41389e-11
1.39674e-11
1.37969e-11
1.36273e-11
1.34587e-11
1.32911e-11
1.31245e-11
1.29589e-11
1.27943e-11
1.26308e-11
1.24683e-11
1.2307e-11
1.21467e-11
1.19875e-11
1.18294e-11
1.16724e-11
1.15166e-11
1.1362e-11
1.12085e-11
1.10561e-11
1.0905e-11
1.0755e-11
1.06062e-11
1.04587e-11
1.03123e-11
1.01672e-11
1.00233e-11
9.88061e-12
9.73918e-12
9.599e-12
9.46007e-12
9.32239e-12
9.18598e-12
9.05082e-12
8.91694e-12
8.78433e-12
8.65299e-12
8.52293e-12
8.39415e-12
8.26666e-12
8.14044e-12
8.01551e-12
7.89186e-12
7.76949e-12
7.64842e-12
7.52862e-12
7.41011e-12
7.29289e-12
7.17694e-12
7.06228e-12
6.9489e-12
6.83679e-12
6.72596e-12
6.61639e-12
6.5081e-12
6.40108e-12
6.29531e-12
6.19081e-12
6.08755e-12
5.98555e-12
5.8848e-12
5.78529e-12
5.68701e-12
5.58996e-12
5.49415e-12
5.39955e-12
5.30616e-12
5.21399e-12
5.12302e-12
5.03324e-12
4.94465e-12
4.85725e-12
4.77103e-12
4.68597e-12
4.60208e-12
4.51934e-12
4.43775e-12
4.3573e-12
4.27798e-12
4.19979e-12
4.12271e-12
4.04675e-12
3.97188e-12
3.8981e-12
3.82541e-12
3.7538e-12
3.68325e-12
3.61376e-12
3.54532e-12
3.47792e-12
3.41156e-12
3.34621e-12
3.28188e-12
3.21856e-12
3.15623e-12
3.09489e-12
3.03452e-12
2.97513e-12
2.91669e-12
2.8592e-12
2.80266e-12
2.74704e-12
2.69235e-12
2.63857e-12
2.58569e-12
2.53371e-12
2.48261e-12
2.43238e-12
2.38302e-12
2.33452e-12
2.28686e-12
2.24005e-12
2.19406e-12
2.14889e-12
2.10452e-12
2.06096e-12
2.01819e-12
1.97621e-12
1.93499e-12
1.89454e-12
1.85485e-12
1.8159e-12
1.77768e-12
1.7402e-12
1.70344e-12
1.66738e-12
1.63203e-12
1.59737e-12
1.56339e-12
1.53009e-12
1.49746e-12
1.46549e-12
1.43417e-12
1.40349e-12
1.37345e-12
1.34403e-12
1.31523e-12
1.28704e-12
1.25946e-12
1.23247e-12
1.20607e-12
1.18024e-12
1.15499e-12
1.13031e-12
1.10618e-12
1.08261e-12
1.05957e-12
1.03708e-12
1.01511e-12
9.9367e-13
9.72744e-13
9.52328e-13
9.32416e-13
9.13001e-13
8.94077e-13
8.75638e-13
8.57678e-13
8.40191e-13
8.23172e-13
8.06614e-13
7.90512e-13
7.74861e-13
7.59655e-13
7.44889e-13
7.30558e-13
7.16658e-13
7.03182e-13
6.90128e-13
6.77489e-13
6.65262e-13
6.53442e-13
6.42025e-13
6.31007e-13
6.20384e-13
6.10151e-13
6.00306e-13
5.90845e-13
5.81764e-13
5.7306e-13
5.64729e-13
5.56769e-13
5.49176e-13
5.41948e-13
5.35082e-13
5.28575e-13
5.22425e-13
5.16629e-13
5.11186e-13
5.06094e-13
5.01349e-13
4.96951e-13
4.92898e-13
4.89188e-13
4.8582e-13
4.82792e-13
4.80104e-13
4.77753e-13
4.75741e-13
4.74065e-13
4.72725e-13
4.7172e-13
4.71051e-13
4.70716e-13
4.94263e-13
1.48176e-12
2.46617e-12
3.44552e-12
4.41791e-12
5.38153e-12
6.3347e-12
7.27588e-12
8.20363e-12
9.11666e-12
1.00138e-11
1.08941e-11
1.17565e-11
1.26002e-11
1.34247e-11
1.42294e-11
1.50137e-11
1.57773e-11
1.65199e-11
1.72415e-11
1.79418e-11
1.86208e-11
1.92786e-11
1.99152e-11
2.05308e-11
2.11257e-11
2.17e-11
2.2254e-11
2.27881e-11
2.33026e-11
2.37978e-11
2.42741e-11
2.4732e-11
2.51717e-11
2.55939e-11
2.59989e-11
2.6387e-11
2.67589e-11
2.71148e-11
2.74553e-11
2.77807e-11
2.80915e-11
2.83881e-11
2.86709e-11
2.89404e-11
2.91968e-11
2.94407e-11
2.96723e-11
2.98921e-11
3.01005e-11
3.02976e-11
3.0484e-11
3.06598e-11
3.08255e-11
3.09814e-11
3.11276e-11
3.12646e-11
3.13925e-11
3.15117e-11
3.16225e-11
3.17249e-11
3.18194e-11
3.1906e-11
3.19851e-11
3.20568e-11
3.21214e-11
3.2179e-11
3.22299e-11
3.22741e-11
3.23119e-11
3.23435e-11
3.23689e-11
3.23885e-11
3.24022e-11
3.24103e-11
3.24128e-11
3.241e-11
3.24019e-11
3.23887e-11
3.23705e-11
3.23474e-11
3.23195e-11
3.2287e-11
3.22499e-11
3.22083e-11
3.21623e-11
3.21121e-11
3.20577e-11
3.19992e-11
3.19367e-11
3.18702e-11
3.18e-11
3.17259e-11
3.16483e-11
3.1567e-11
3.14822e-11
3.13939e-11
3.13023e-11
3.12073e-11
3.11091e-11
3.10078e-11
3.09033e-11
3.07959e-11
3.06854e-11
3.05721e-11
3.04559e-11
3.03369e-11
3.02152e-11
3.00908e-11
2.99639e-11
2.98344e-11
2.97024e-11
2.9568e-11
2.94312e-11
2.92921e-11
2.91507e-11
2.90072e-11
2.88615e-11
2.87137e-11
2.85639e-11
2.84121e-11
2.82583e-11
2.81027e-11
2.79452e-11
2.7786e-11
2.76251e-11
2.74624e-11
2.72982e-11
2.71324e-11
2.6965e-11
2.67962e-11
2.6626e-11
2.64543e-11
2.62814e-11
2.61071e-11
2.59317e-11
2.5755e-11
2.55773e-11
2.53984e-11
2.52185e-11
2.50375e-11
2.48557e-11
2.46729e-11
2.44892e-11
2.43048e-11
2.41196e-11
2.39336e-11
2.37469e-11
2.35596e-11
2.33717e-11
2.31833e-11
2.29943e-11
2.28049e-11
2.2615e-11
2.24247e-11
2.22341e-11
2.20431e-11
2.18519e-11
2.16604e-11
2.14688e-11
2.1277e-11
2.1085e-11
2.0893e-11
2.0701e-11
2.05089e-11
2.03168e-11
2.01248e-11
1.9933e-11
1.97412e-11
1.95496e-11
1.93582e-11
1.9167e-11
1.89761e-11
1.87855e-11
1.85952e-11
1.84053e-11
1.82158e-11
1.80266e-11
1.7838e-11
1.76498e-11
1.74621e-11
1.72749e-11
1.70883e-11
1.69023e-11
1.67169e-11
1.65322e-11
1.63481e-11
1.61647e-11
1.5982e-11
1.58e-11
1.56189e-11
1.54385e-11
1.52589e-11
1.50801e-11
1.49022e-11
1.47252e-11
1.4549e-11
1.43738e-11
1.41995e-11
1.40261e-11
1.38537e-11
1.36823e-11
1.35119e-11
1.33425e-11
1.31742e-11
1.30069e-11
1.28406e-11
1.26755e-11
1.25114e-11
1.23485e-11
1.21866e-11
1.20259e-11
1.18664e-11
1.1708e-11
1.15507e-11
1.13947e-11
1.12398e-11
1.10861e-11
1.09337e-11
1.07824e-11
1.06324e-11
1.04836e-11
1.03361e-11
1.01898e-11
1.00448e-11
9.90099e-12
9.75847e-12
9.61723e-12
9.47727e-12
9.33859e-12
9.20119e-12
9.06508e-12
8.93027e-12
8.79675e-12
8.66453e-12
8.53361e-12
8.40399e-12
8.27568e-12
8.14867e-12
8.02297e-12
7.89857e-12
7.77548e-12
7.6537e-12
7.53322e-12
7.41405e-12
7.29618e-12
7.17961e-12
7.06434e-12
6.95037e-12
6.8377e-12
6.72632e-12
6.61623e-12
6.50742e-12
6.3999e-12
6.29366e-12
6.18869e-12
6.085e-12
5.98257e-12
5.8814e-12
5.78149e-12
5.68283e-12
5.58542e-12
5.48925e-12
5.39432e-12
5.30061e-12
5.20813e-12
5.11686e-12
5.0268e-12
4.93795e-12
4.85029e-12
4.76382e-12
4.67853e-12
4.59442e-12
4.51148e-12
4.42969e-12
4.34905e-12
4.26956e-12
4.19121e-12
4.11398e-12
4.03787e-12
3.96287e-12
3.88897e-12
3.81616e-12
3.74444e-12
3.6738e-12
3.60422e-12
3.53571e-12
3.46824e-12
3.40181e-12
3.33641e-12
3.27203e-12
3.20867e-12
3.14631e-12
3.08494e-12
3.02456e-12
2.96515e-12
2.90671e-12
2.84922e-12
2.79268e-12
2.73708e-12
2.6824e-12
2.62865e-12
2.5758e-12
2.52385e-12
2.47279e-12
2.42261e-12
2.37331e-12
2.32486e-12
2.27726e-12
2.23051e-12
2.18459e-12
2.13949e-12
2.0952e-12
2.05172e-12
2.00904e-12
1.96714e-12
1.92602e-12
1.88566e-12
1.84607e-12
1.80722e-12
1.76911e-12
1.73174e-12
1.69508e-12
1.65914e-12
1.62391e-12
1.58937e-12
1.55551e-12
1.52234e-12
1.48984e-12
1.458e-12
1.42681e-12
1.39626e-12
1.36636e-12
1.33708e-12
1.30843e-12
1.28038e-12
1.25294e-12
1.2261e-12
1.19985e-12
1.17418e-12
1.14909e-12
1.12456e-12
1.10059e-12
1.07718e-12
1.05431e-12
1.03198e-12
1.01018e-12
9.88905e-13
9.6815e-13
9.47907e-13
9.2817e-13
9.08931e-13
8.90186e-13
8.71928e-13
8.5415e-13
8.36848e-13
8.20015e-13
8.03645e-13
7.87734e-13
7.72275e-13
7.57264e-13
7.42695e-13
7.28564e-13
7.14865e-13
7.01593e-13
6.88745e-13
6.76314e-13
6.64298e-13
6.52692e-13
6.4149e-13
6.30691e-13
6.20288e-13
6.1028e-13
6.00661e-13
5.91429e-13
5.8258e-13
5.74111e-13
5.66018e-13
5.583e-13
5.50951e-13
5.43971e-13
5.37356e-13
5.31104e-13
5.25213e-13
5.19679e-13
5.14502e-13
5.09678e-13
5.05207e-13
5.01087e-13
4.97315e-13
4.93891e-13
4.90813e-13
4.8808e-13
4.85691e-13
4.83644e-13
4.81941e-13
4.80578e-13
4.79557e-13
4.78877e-13
4.78537e-13
4.97081e-13
1.49025e-12
2.48046e-12
3.46578e-12
4.44436e-12
5.41444e-12
6.37435e-12
7.32257e-12
8.25765e-12
9.17829e-12
1.00833e-11
1.09717e-11
1.18425e-11
1.26948e-11
1.35281e-11
1.43416e-11
1.51349e-11
1.59077e-11
1.66595e-11
1.73903e-11
1.80998e-11
1.87881e-11
1.9455e-11
2.01008e-11
2.07255e-11
2.13294e-11
2.19125e-11
2.24753e-11
2.30179e-11
2.35408e-11
2.40442e-11
2.45286e-11
2.49943e-11
2.54418e-11
2.58714e-11
2.62836e-11
2.66788e-11
2.70575e-11
2.742e-11
2.77669e-11
2.80984e-11
2.84152e-11
2.87175e-11
2.90058e-11
2.92806e-11
2.95421e-11
2.97908e-11
3.00271e-11
3.02514e-11
3.04639e-11
3.06651e-11
3.08553e-11
3.10349e-11
3.1204e-11
3.13632e-11
3.15126e-11
3.16525e-11
3.17833e-11
3.19051e-11
3.20183e-11
3.21231e-11
3.22197e-11
3.23084e-11
3.23894e-11
3.24629e-11
3.25291e-11
3.25882e-11
3.26404e-11
3.26859e-11