/*--------------------------------*- C++ -*----------------------------------*\
  =========                 |
  \\      /  F ield         | OpenFOAM: The Open Source CFD Toolbox
   \\    /   O peration     | Website:  https://openfoam.org
    \\  /    A nd           | Version:  10
     \\/     M anipulation  |
\*---------------------------------------------------------------------------*/
FoamFile
{
    format      ascii;
    class       volScalarField;
    location    "1.5";
    object      p;
}
// * * * * * * * * * * * * * * * * * * * * * * * * * * * * * * * * * * * * * //

dimensions      [1 -1 -2 0 0 0 0];

internalField   nonuniform List<scalar> 
5250
(
1
1.00002
1.00005
1.00012
1.00034
1.00077
1.00209
1.0047
1.01268
1.02929
1.07676
1.18909
1.5043
2.39825
5.09732
11.5677
11.4275
11.1604
11.2056
11.3747
11.6138
11.7791
11.8915
11.9776
12.0405
1
1.00002
1.00005
1.00012
1.00033
1.00077
1.00205
1.00467
1.01254
1.0289
1.07619
1.18665
1.49923
2.38147
5.04771
11.4942
11.3929
11.1653
11.2038
11.3628
11.6039
11.7698
11.8832
11.9701
12.0342
1
1.00002
1.00005
1.00012
1.00032
1.00076
1.002
1.00457
1.01226
1.02828
1.07449
1.18244
1.48751
2.34747
4.9416
11.3292
11.3146
11.1641
11.1874
11.3226
11.5625
11.7269
11.8388
11.9244
11.9882
1
1.00002
1.00005
1.00012
1.0003
1.00075
1.00188
1.00452
1.01163
1.02769
1.07135
1.17683
1.46904
2.29637
4.78145
11.0529
11.2618
11.1362
11.1469
11.2591
11.4884
11.6499
11.7578
11.8404
11.9048
1
1.00002
1.00004
1.00012
1.00029
1.00071
1.0018
1.0043
1.01111
1.02632
1.06808
1.16806
1.44573
2.22841
4.57128
10.6612
11.214
11.0845
11.0797
11.1737
11.385
11.543
11.645
11.7233
11.7879
1
1.00001
1.00004
1.0001
1.00028
1.00065
1.00173
1.00395
1.01061
1.02439
1.06449
1.15671
1.41733
2.14303
4.31817
10.1449
11.164
11.027
10.9826
11.063
11.2528
11.4005
11.4916
11.5614
11.6263
1
1.00001
1.00004
1.0001
1.00025
1.00063
1.0015
1.00392
1.0091
1.02405
1.05686
1.14815
1.3793
2.04933
4.02072
9.48815
11.1196
10.9655
10.8607
10.9258
11.0886
11.2173
11.2889
11.3406
11.3973
1
1.00001
1.00003
1.00009
1.00022
1.00058
1.00135
1.00349
1.00847
1.02107
1.05273
1.13188
1.34327
1.93495
3.68892
8.67393
11.0918
10.9048
10.7164
10.7623
10.8895
10.9878
11.0264
11.0401
11.0678
1
1.00001
1.00003
1.00008
1.00021
1.00047
1.00128
1.00291
1.00779
1.01811
1.04714
1.11523
1.30103
1.8114
3.31794
7.69507
11.0804
10.848
10.5524
10.5738
10.6532
10.7027
10.6864
10.6209
10.5488
1
1.00001
1.00003
1.00007
1.00017
1.00044
1.00103
1.00265
1.0064
1.01596
1.03981
1.099
1.25474
1.68018
2.92518
6.58006
11.057
10.7933
10.3837
10.3592
10.3823
10.3639
10.2619
10.0246
9.66053
1
1.00001
1.00002
1.00006
1.00015
1.00036
1.00088
1.00222
1.00528
1.01368
1.0323
1.08362
1.20699
1.55183
2.52138
5.33858
10.9153
10.6745
10.2289
10.1199
10.0844
9.97893
9.70635
9.08822
7.51477
1
1.00001
1.00002
1.00005
1.00012
1.00031
1.00075
1.00183
1.00468
1.01099
1.0287
1.06842
1.17736
1.45842
2.26882
4.62514
10.3131
10.3514
10.1084
9.87727
9.76987
9.56291
9.13347
8.29634
6.64187
1
1.00001
1.00002
1.00004
1.00011
1.00025
1.00065
1.00153
1.00388
1.00951
1.02338
1.05882
1.14659
1.38305
2.04362
3.98071
9.07501
10.0506
9.91157
9.63256
9.44479
9.1645
8.64485
7.77923
6.43716
1
1
1.00001
1.00004
1.00008
1.00022
1.0005
1.00132
1.00309
1.00796
1.01924
1.04833
1.12067
1.3114
1.84199
3.38204
7.65872
9.84892
9.73382
9.44241
9.15386
8.81483
8.27956
7.47841
6.40212
1
1
1.00001
1.00003
1.00007
1.00017
1.00041
1.00104
1.00246
1.00646
1.01496
1.03939
1.09421
1.24654
1.64899
2.82034
6.14134
9.6879
9.59829
9.30208
8.91392
8.52912
8.01155
7.29245
6.39207
1
1
1.00001
1.00002
1.00005
1.00013
1.00033
1.00078
1.00202
1.00464
1.01233
1.02836
1.07438
1.18109
1.47953
2.29528
4.57819
9.30169
9.40375
9.18788
8.73637
8.30242
7.80444
7.16138
6.38539
1
1
1.00001
1.00002
1.00004
1.0001
1.00026
1.00059
1.00159
1.00359
1.00957
1.02215
1.05746
1.14026
1.3669
1.98756
3.7644
8.25104
9.12417
8.97067
8.59076
8.11983
7.63633
7.05707
6.37587
1
1
1
1.00001
1.00003
1.00008
1.00019
1.00047
1.00117
1.00279
1.00723
1.01689
1.04406
1.10612
1.27724
1.73331
3.04669
6.60111
8.8405
8.75863
8.47665
7.98341
7.50188
6.97067
6.36516
1
1
1
1.00001
1.00002
1.00006
1.00014
1.00036
1.00081
1.00218
1.00493
1.01322
1.03033
1.07964
1.19441
1.51593
2.39479
4.80632
8.46769
8.57552
8.38395
7.93543
7.41196
6.90276
6.35511
1
1
1
1.00001
1.00002
1.00004
1.00011
1.00024
1.00064
1.0015
1.00375
1.00927
1.02245
1.05663
1.13938
1.36166
1.96005
3.62211
7.55855
8.36767
8.23466
7.87976
7.34779
6.85127
6.34668
1
1
1
1
1.00001
1.00003
1.00007
1.00018
1.00046
1.00106
1.00279
1.00633
1.01692
1.03896
1.10207
1.25165
1.67368
2.82946
5.89534
8.08985
8.04468
7.81752
7.33656
6.82739
6.34641
1
1
1
1
1.00001
1.00002
1.00005
1.00012
1.00031
1.00076
1.00182
1.00463
1.01081
1.028
1.0661
1.1698
1.42953
2.13874
3.9732
7.5609
7.89813
7.74364
7.3482
6.83065
6.35125
1
1
1
1
1.00001
1.00001
1.00003
1.00009
1.0002
1.00055
1.00122
1.00328
1.00736
1.01962
1.04533
1.11757
1.29203
1.7762
3.08186
6.33566
7.66702
7.59567
7.33991
6.85015
6.36728
1
1
1
1
1
1.00001
1.00002
1.00006
1.00014
1.00037
1.00083
1.00221
1.00497
1.01323
1.03035
1.07897
1.19218
1.50473
2.33594
4.50662
7.21872
7.41961
7.286
6.92014
6.40596
1
1
1
1
1
1.00001
1.00002
1.00004
1.0001
1.00024
1.00056
1.00144
1.00329
1.00869
1.01977
1.05197
1.12304
1.3199
1.82594
3.16387
6.2377
7.22963
7.1679
6.93653
6.4693
1
1
1
1
1
1
1.00001
1.00003
1.00006
1.00016
1.00036
1.00095
1.00212
1.00569
1.0128
1.0338
1.07913
1.20421
1.51891
2.36893
4.51523
6.82749
7.00996
6.89688
6.59106
1
1
1
1
1
1
1.00001
1.00002
1.00004
1.0001
1.00023
1.00059
1.00137
1.00358
1.0081
1.02141
1.04917
1.12739
1.3133
1.81566
3.08334
5.93689
6.82809
6.78963
6.60384
1
1
1
1
1
1
1
1.00001
1.00002
1.00006
1.00015
1.00036
1.0009
1.00211
1.00545
1.01246
1.03256
1.07605
1.19566
1.4919
2.28081
4.22884
6.41177
6.65611
6.56514
1
1
1
1
1
1
1
1.00001
1.00001
1.00004
1.00009
1.00023
1.00053
1.00136
1.00321
1.00788
1.01944
1.04678
1.11687
1.29077
1.74554
2.88597
5.4721
6.4561
6.44677
1
1
1
1
1
1
1
1
1.00001
1.00002
1.00005
1.00014
1.00032
1.00083
1.00188
1.00489
1.01125
1.02858
1.06834
1.17115
1.43023
2.09559
3.71857
5.97625
6.33596
1
1
1
1
1
1
1
1
1.00001
1.00001
1.00003
1.00008
1.00019
1.00049
1.00113
1.00294
1.00662
1.01741
1.03973
1.10269
1.24796
1.63894
2.60678
4.87788
6.08999
1
1
1
1
1
1
1
1
1
1.00001
1.00002
1.00005
1.00012
1.00027
1.0007
1.00158
1.00411
1.00936
1.02388
1.0562
1.14035
1.3462
1.86301
3.0742
5.49992
1
1
1
1
1
1
1
1
1
1
1.00001
1.00003
1.00007
1.00016
1.00041
1.00092
1.00242
1.0054
1.01423
1.03218
1.08343
1.19855
1.50981
2.27636
4.14572
1
1
1
1
1
1
1
1
1
1
1.00001
1.00002
1.00004
1.00009
1.00023
1.00053
1.00137
1.00307
1.00804
1.01804
1.04712
1.10912
1.27875
1.68667
2.68221
1
1
1
1
1
1
1
1
1
1
1
1.00001
1.00002
1.00005
1.00012
1.00031
1.0007
1.00183
1.00412
1.01058
1.02447
1.06106
1.14737
1.36654
1.90225
1
1
1
1
1
1
1
1
1
1
1
1
1.00001
1.00003
1.00007
1.00017
1.0004
1.001
1.0023
1.00593
1.0133
1.03483
1.07956
1.20428
1.49585
1
1
1
1
1
1
1
1
1
1
1
1
1.00001
1.00002
1.00004
1.00009
1.00023
1.00052
1.0013
1.00308
1.00742
1.01825
1.04311
1.1072
1.25926
1
1
1
1
1
1
1
1
1
1
1
1
1
1.00001
1.00002
1.00005
1.00012
1.00029
1.00067
1.00168
1.00379
1.00977
1.02192
1.05633
1.13007
1
1
1
1
1
1
1
1
1
1
1
1
1
1
1.00001
1.00002
1.00006
1.00015
1.00036
1.00087
1.00206
1.00514
1.01174
1.03005
1.06893
1
1
1
1
1
1
1
1
1
1
1
1
1
1
1.00001
1.00001
1.00003
1.00008
1.0002
1.00043
1.00113
1.00252
1.00651
1.01474
1.03737
1
1
1
1
1
1
1
1
1
1
1
1
1
1
1
1.00001
1.00002
1.00004
1.00009
1.00024
1.00054
1.00137
1.00315
1.0077
1.01854
1
1
1
1
1
1
1
1
1
1
1
1
1
1
1
1
1.00001
1.00002
1.00005
1.00011
1.00028
1.00067
1.00157
1.0039
1.00883
1
1
1
1
1
1
1
1
1
1
1
1
1
1
1
1
1
1.00001
1.00002
1.00006
1.00014
1.00032
1.00082
1.00183
1.00469
1
1
1
1
1
1
1
1
1
1
1
1
1
1
1
1
1
1.00001
1.00001
1.00003
1.00007
1.00017
1.00039
1.00093
1.00228
1
1
1
1
1
1
1
1
1
1
1
1
1
1
1
1
1
1
1.00001
1.00001
1.00003
1.00008
1.00018
1.00047
1.00104
1
1
1
1
1
1
1
1
1
1
1
1
1
1
1
1
1
1
1
1.00001
1.00002
1.00004
1.00009
1.00021
1.00054
1
1
1
1
1
1
1
1
1
1
1
1
1
1
1
1
1
1
1
1
1.00001
1.00002
1.00004
1.0001
1.00024
1
1
1
1
1
1
1
1
1
1
1
1
1
1
1
1
1
1
1
1
1
1.00001
1.00002
1.00005
1.00011
1
1
1
1
1
1
1
1
1
1
1
1
1
1
1
1
1
1
1
1
1
1
1.00001
1.00002
1.00006
1
1
1
1
1
1
1
1
1
1
1
1
1
1
1
1
1
1
1
1
1
1
1.00001
1.00001
1.00004
3.03176
1.54143
1.04688
0.940132
0.963416
1.03769
1.19417
1.32183
1.3626
1.36019
1.35227
1.33863
1.33552
1.33634
1.33857
1.34138
1.34124
1.34033
1.33787
1.3327
1.32624
1.32047
1.31537
1.31044
1.30522
1.29972
1.29392
1.28788
1.28165
1.27525
1.26872
1.26207
1.25529
1.24839
1.24138
1.23426
1.22703
1.21969
1.21227
1.20473
1.1971
1.18948
1.18176
1.17394
1.16613
1.15834
1.15052
1.14274
1.13505
1.12767
1.12111
1.11706
1.11809
1.12211
1.1329
1.15802
1.21344
1.32921
1.56369
2.01693
2.66458
3.39047
3.98766
4.28117
4.26578
4.22468
4.14819
4.02324
3.94698
3.93231
3.91827
3.89087
3.85799
3.81125
3.74901
3.66452
3.57365
3.49312
3.41864
3.35281
3.29686
3.24817
3.20552
3.16453
3.1217
3.07594
3.02578
2.97297
2.91937
2.86673
2.8165
2.76811
2.72159
2.67669
2.63377
2.59251
2.55354
2.51656
2.486
2.46056
3.74649
2.35512
1.75577
1.49827
1.37347
1.28233
1.24793
1.25311
1.26978
1.30486
1.34545
1.36068
1.35969
1.35634
1.34918
1.3423
1.33838
1.33648
1.33512
1.33291
1.32907
1.32403
1.31829
1.31225
1.30621
1.30027
1.29434
1.2883
1.28209
1.27569
1.26912
1.2624
1.25557
1.24862
1.24157
1.23442
1.22716
1.21981
1.21236
1.20482
1.1972
1.18954
1.18181
1.17402
1.16622
1.15841
1.1506
1.1429
1.13529
1.1286
1.1227
1.1229
1.12513
1.13227
1.15133
1.19513
1.28629
1.46839
1.7567
2.08891
2.42268
2.73625
3.08423
3.49907
3.89752
4.17476
4.29188
4.26574
4.19064
4.05673
3.8934
3.77012
3.68291
3.63366
3.6057
3.59085
3.57733
3.55215
3.51151
3.44978
3.37551
3.29777
3.22202
3.14991
3.08448
3.02649
2.9766
2.93239
2.89125
2.85075
2.80938
2.76738
2.72522
2.68302
2.64116
2.59965
2.5597
2.52025
2.48938
2.45667
4.57424
3.2708
2.45055
1.92711
1.5881
1.37586
1.24896
1.21899
1.2244
1.24135
1.27757
1.31577
1.3397
1.34777
1.34715
1.34494
1.34007
1.33427
1.33034
1.32715
1.32368
1.31954
1.31484
1.30968
1.30418
1.29848
1.29261
1.28655
1.28034
1.27398
1.26751
1.26093
1.25422
1.24739
1.24044
1.23336
1.22616
1.21886
1.21146
1.20397
1.19641
1.18879
1.1811
1.17337
1.16561
1.15786
1.15017
1.14268
1.1359
1.13051
1.13093
1.13356
1.14103
1.16152
1.20918
1.30774
1.50359
1.7847
2.06699
2.22525
2.3364
2.4404
2.56602
2.73692
2.96305
3.27611
3.64218
3.95613
4.17
4.16306
4.12824
4.0556
3.90963
3.75249
3.62238
3.53011
3.46243
3.41455
3.38433
3.36432
3.33742
3.29791
3.24517
3.18642
3.12599
3.06721
3.01078
2.95652
2.90483
2.85604
2.80996
2.76591
2.72316
2.68109
2.63955
2.59825
2.55868
2.51896
2.4889
2.45486
5.02164
3.84179
2.96724
2.35726
1.94874
1.6715
1.49454
1.37965
1.31082
1.28149
1.28296
1.29003
1.30611
1.32914
1.34573
1.35035
1.34962
1.34712
1.3416
1.33392
1.32783
1.3224
1.31748
1.3126
1.3074
1.30173
1.29562
1.28919
1.28259
1.27594
1.26924
1.26249
1.25566
1.24872
1.24167
1.23449
1.22721
1.21984
1.21238
1.20485
1.19725
1.18959
1.18187
1.17413
1.16638
1.1587
1.15122
1.14467
1.14015
1.14091
1.14452
1.15519
1.18098
1.23881
1.35638
1.58437
1.89778
2.14801
2.2531
2.29269
2.31152
2.32359
2.34459
2.38699
2.46365
2.57814
2.73863
2.95348
3.24755
3.56855
3.84009
4.02047
4.0015
3.95057
3.87191
3.72368
3.57169
3.44336
3.34257
3.26862
3.22019
3.19018
3.16622
3.142
3.1116
3.07149
3.02379
2.97206
2.91873
2.86576
2.81412
2.76411
2.71617
2.67055
2.62729
2.58579
2.54716
2.50825
2.47941
2.44695
5.29381
4.25845
3.41917
2.78185
2.31663
1.97619
1.72785
1.5472
1.41996
1.33561
1.28871
1.27756
1.27949
1.28595
1.29987
1.3157
1.32687
1.33145
1.33106
1.32947
1.3258
1.31933
1.31305
1.30714
1.30155
1.29603
1.29041
1.28458
1.27855
1.27233
1.26594
1.25939
1.2527
1.24587
1.23893
1.23189
1.22476
1.21755
1.21025
1.20287
1.19541
1.18789
1.18031
1.17272
1.16522
1.15791
1.15159
1.1488
1.14985
1.15455
1.16787
1.20081
1.27149
1.41505
1.67028
2.02049
2.22848
2.31274
2.33378
2.32741
2.30959
2.27938
2.25565
2.24673
2.2525
2.27123
2.31545
2.39569
2.50815
2.66445
2.88134
3.15552
3.45407
3.70933
3.87744
3.85673
3.80058
3.72182
3.58484
3.44112
3.31046
3.20887
3.13263
3.07448
3.03075
2.99544
2.96452
2.93388
2.90001
2.86091
2.81751
2.77246
2.72692
2.68186
2.63783
2.59453
2.55368
2.51276
2.48053
2.44838
5.47417
4.577
3.79755
3.16411
2.66916
2.28802
1.99775
1.7767
1.6108
1.48783
1.39943
1.33805
1.30459
1.29214
1.2932
1.29729
1.30643
1.31841
1.32811
1.33045
1.32993
1.32801
1.32377
1.31583
1.30763
1.30003
1.2933
1.28721
1.28137
1.27542
1.26915
1.26253
1.25563
1.24855
1.24136
1.23413
1.22686
1.21954
1.21216
1.20471
1.19718
1.18959
1.182
1.17451
1.1675
1.16119
1.16044
1.16208
1.16838
1.18566
1.2268
1.31479
1.4932
1.79166
2.14753
2.3124
2.37419
2.3839
2.3719
2.34106
2.30071
2.25953
2.21969
2.18684
2.16204
2.14476
2.14434
2.15149
2.17398
2.22244
2.30238
2.41057
2.56097
2.76377
3.02352
3.29542
3.54657
3.70493
3.68291
3.62655
3.55122
3.42159
3.28272
3.155
3.05601
2.97929
2.91887
2.87055
2.83202
2.79935
2.76974
2.73985
2.70786
2.67211
2.6337
2.59335
2.55381
2.51361
2.47956
2.44764
5.60138
4.8193
4.10546
3.4955
2.99442
2.59005
2.26882
2.01359
1.81227
1.65378
1.52966
1.436
1.36647
1.31956
1.29519
1.28767
1.28843
1.29121
1.29742
1.30539
1.31163
1.31163
1.31102
1.30909
1.30485
1.29752
1.28981
1.28262
1.27613
1.26998
1.26386
1.25764
1.25122
1.24459
1.23776
1.2308
1.22373
1.21659
1.20937
1.20208
1.19474
1.1874
1.18017
1.17364
1.1678
1.16831
1.17114
1.17931
1.20155
1.2517
1.35806
1.57056
1.92859
2.25299
2.38935
2.4354
2.43384
2.41715
2.38156
2.33872
2.29272
2.2471
2.20286
2.16119
2.12349
2.09159
2.06565
2.0467
2.035
2.03731
2.04697
2.07016
2.11725
2.19169
2.29395
2.43068
2.62165
2.85901
3.12019
3.36546
3.5307
3.50876
3.46244
3.39059
3.27797
3.1498
3.02822
2.92742
2.84935
2.78751
2.73714
2.69476
2.65872
2.6266
2.59741
2.56783
2.53785
2.50478
2.47341
2.44591
5.6936
5.0044
4.3554
3.77811
3.28436
2.87083
2.53036
2.25136
2.02427
1.83957
1.69099
1.57227
1.47827
1.40745
1.35322
1.31679
1.2965
1.28805
1.28844
1.29025
1.29446
1.30057
1.30613
1.30612
1.30556
1.30375
1.2997
1.2916
1.28262
1.27403
1.26628
1.25931
1.25283
1.24651
1.24008
1.2334
1.22642
1.2192
1.21179
1.2043
1.19691
1.18967
1.1834
1.17885
1.1796
1.18338
1.19464
1.22276
1.28618
1.41603
1.66814
2.07916
2.34188
2.45787
2.49077
2.48534
2.4633
2.42009
2.37625
2.32907
2.28128
2.23469
2.18964
2.14665
2.10573
2.06748
2.03195
2.00123
1.97425
1.95287
1.93644
1.9266
1.92931
1.93843
1.95982
2.00177
2.0699
2.16018
2.28805
2.45529
2.68112
2.92658
3.17117
3.34405
3.33034
3.29447
3.22965
3.13293
3.01786
2.90136
2.80152
2.72283
2.66075
2.60872
2.56461
2.52568
2.49257
2.46312
2.43726
2.4214
5.76035
5.14678
4.55593
4.01469
3.5371
3.12497
2.77548
2.48148
2.23603
2.0314
1.86165
1.72102
1.60543
1.51158
1.43626
1.37754
1.3339
1.30499
1.28891
1.28133
1.28142
1.28221
1.28422
1.28817
1.28931
1.289
1.28793
1.2854
1.2802
1.27281
1.26492
1.25714
1.24978
1.24287
1.23627
1.22977
1.2232
1.21647
1.20952
1.20253
1.1957
1.18925
1.18668
1.18792
1.19274
1.20686
1.24145
1.31811
1.47694
1.76805
2.21146
2.43378
2.51997
2.54164
2.53245
2.50661
2.4606
2.41229
2.36311
2.31432
2.26651
2.22048
2.17615
2.13372
2.09288
2.05366
2.0161
1.98025
1.94659
1.91501
1.88736
1.86276
1.84354
1.82816
1.81836
1.82037
1.82794
1.8458
1.88133
1.94093
2.02332
2.13492
2.29087
2.48851
2.73035
2.96738
3.15012
3.16297
3.1369
3.07454
2.99469
2.89532
2.79051
2.69116
2.6111
2.54631
2.49506
2.4505
2.41537
2.38732
5.81
5.25804
4.71811
4.21258
3.75538
3.35129
3.00022
2.69824
2.44061
2.22142
2.03576
1.87859
1.74624
1.63495
1.54255
1.4665
1.40549
1.35759
1.3217
1.2973
1.28322
1.27592
1.27479
1.2752
1.27633
1.2787
1.28007
1.27979
1.27862
1.27581
1.27005
1.26249
1.25445
1.24647
1.2388
1.23147
1.22443
1.21758
1.21081
1.20464
1.19894
1.19835
1.20001
1.20614
1.22395
1.26649
1.35972
1.54971
1.90377
2.33548
2.51879
2.58031
2.58987
2.57708
2.5455
2.49952
2.44781
2.3963
2.34585
2.29721
2.2503
2.20533
2.16204
2.12042
2.08011
2.0411
2.00323
1.9665
1.93105
1.89685
1.86425
1.83327
1.80436
1.77819
1.75541
1.73686
1.72265
1.71205
1.71277
1.71815
1.73222
1.7616
1.81395
1.88399
1.98548
2.11706
2.30158
2.51768
2.75569
2.93688
3.00096
2.97912
2.92082
2.86086
2.77942
2.68519
2.59405
2.50944
2.45131
2.39669
5.85068
5.34854
4.85203
4.38042
3.94561
3.55357
3.206
2.9012
2.63622
2.40679
2.20901
2.03866
1.89246
1.767
1.66001
1.56896
1.49243
1.42877
1.37728
1.33664
1.30633
1.28565
1.27323
1.26676
1.26425
1.26432
1.26462
1.26528
1.26519
1.26465
1.26308
1.25968
1.25349
1.24613
1.23829
1.23044
1.22287
1.21563
1.20932
1.20393
1.20442
1.20716
1.2149
1.23661
1.28725
1.39669
1.61867
2.04345
2.42558
2.59211
2.63971
2.63749
2.61946
2.58245
2.53353
2.4802
2.427
2.37552
2.32606
2.27868
2.23311
2.18928
2.14697
2.10603
2.06623
2.02753
1.98981
1.95306
1.91732
1.88248
1.84879
1.81602
1.78463
1.75438
1.72587
1.69896
1.67429
1.65262
1.63469
1.6209
1.61056
1.60828
1.61215
1.62298
1.64658
1.68829
1.75053
1.83327
1.95167
2.10314
2.306
2.52462
2.71439
2.83197
2.81621
2.77889
2.72824
2.66145
2.60061
2.49993
5.88471
5.4207
4.9643
4.52484
4.11273
3.73466
3.39365
3.08955
2.82083
2.58459
2.37782
2.1972
2.03983
1.90278
1.78381
1.68066
1.59178
1.51559
1.45117
1.39732
1.35362
1.31912
1.29306
1.275
1.26356
1.25755
1.25443
1.25412
1.25423
1.25436
1.25414
1.2533
1.25123
1.24694
1.24053
1.23328
1.22583
1.21904
1.21356
1.21422
1.21761
1.22772
1.2535
1.31401
1.44056
1.69718
2.18417
2.51304
2.65417
2.69347
2.68807
2.66504
2.61884
2.56617
2.51091
2.45654
2.40401
2.35384
2.30582
2.25973
2.21531
2.17239
2.13079
2.09033
2.05094
2.01248
1.97498
1.93836
1.90269
1.86786
1.83402
1.80095
1.76897
1.73774
1.70774
1.67858
1.65089
1.62427
1.59948
1.57617
1.55565
1.53787
1.52445
1.51441
1.50896
1.5115
1.5194
1.53672
1.56814
1.61901
1.69026
1.78443
1.91989
2.08335
2.29553
2.48319
2.63622
2.67002
2.65509
2.62354
5.9233
5.49037
5.06501
4.65218
4.26112
3.89755
3.56483
3.26384
2.99402
2.75364
2.5405
2.35202
2.18577
2.03926
1.9104
1.79717
1.69796
1.61126
1.53597
1.47101
1.4157
1.36932
1.33141
1.30147
1.27877
1.26266
1.25232
1.24644
1.2434
1.24209
1.24198
1.24172
1.24111
1.23969
1.23678
1.23177
1.22694
1.22178
1.22245
1.22635
1.23791
1.26762
1.33752
1.48159
1.77238
2.30825
2.60206
2.71476
2.74476
2.73572
2.7082
2.65697
2.59943
2.54144
2.4853
2.43181
2.38079
2.33212
2.28539
2.24034
2.19675
2.15444
2.11333
2.07321
2.03412
1.99588
1.95861
1.92217
1.8867
1.85202
1.81833
1.78535
1.7534
1.72209
1.69187
1.66224
1.63378
1.60594
1.57937
1.55356
1.52921
1.5059
1.48443
1.46444
1.4473
1.43358
1.42347
1.41601
1.41683
1.42138
1.43216
1.45528
1.49551
1.55132
1.62871
1.7407
1.86977
2.07714
2.23324
2.49966
5.96663
5.55561
5.15436
4.7657
4.39419
4.04483
3.72107
3.42459
3.15554
2.91305
2.69561
2.5013
2.32812
2.174
2.03705
1.91544
1.80763
1.71216
1.62791
1.55379
1.48903
1.43293
1.38494
1.34462
1.31149
1.28541
1.26534
1.25098
1.24139
1.23563
1.23249
1.23127
1.23067
1.23037
1.22975
1.22843
1.22874
1.23033
1.23554
1.24988
1.28531
1.36461
1.53031
1.86174
2.43252
2.69099
2.77893
2.79623
2.7837
2.75039
2.69517
2.63433
2.57348
2.51518
2.4601
2.40805
2.3585
2.31098
2.26513
2.22069
2.17758
2.1356
2.09478
2.05487
2.016
1.97794
1.94089
1.90464
1.86939
1.83493
1.80145
1.76869
1.73692
1.70578
1.67567
1.64611
1.61762
1.58962
1.56274
1.53633
1.51108
1.48635
1.46287
1.44005
1.41868
1.39825
1.37967
1.36259
1.34868
1.33773
1.33024
1.32679
1.32936
1.33638
1.35152
1.37927
1.42338
1.48896
1.5763
1.75315
6.02348
5.62141
5.23957
4.86992
4.51466
4.17842
3.86377
3.57266
3.30582
3.06289
2.84297
2.6446
2.46621
2.30607
2.16251
2.03392
1.91885
1.81597
1.72411
1.64227
1.56957
1.5053
1.44886
1.39979
1.35765
1.32217
1.29288
1.26953
1.25164
1.2388
1.22971
1.22447
1.22089
1.22104
1.22181
1.22358
1.22755
1.23648
1.25603
1.29963
1.39339
1.58489
1.96095
2.54009
2.77799
2.8457
2.84836
2.83212
2.79358
2.73407
2.67001
2.60658
2.54608
2.48926
2.43591
2.38538
2.337
2.29025
2.2449
2.20076
2.15785
2.116
2.07531
2.03552
1.9968
1.95889
1.92204
1.88599
1.85097
1.81671
1.78347
1.75093
1.7194
1.68848
1.65859
1.62924
1.60093
1.57308
1.5463
1.51991
1.49459
1.46964
1.44576
1.42224
1.39983
1.37784
1.35707
1.33686
1.3181
1.30018
1.28413
1.26954
1.25835
1.24978
1.24401
1.24473
1.24871
1.25879
1.28107
1.33016
6.1101
5.69376
5.31927
4.96456
4.6249
4.30004
3.99418
3.70901
3.44537
3.2033
2.98228
2.78133
2.59916
2.4344
2.28555
2.15126
2.03012
1.92098
1.82266
1.73422
1.65478
1.58361
1.52007
1.46366
1.41392
1.37055
1.33323
1.30174
1.27555
1.25482
1.23837
1.22752
1.21848
1.21821
1.21949
1.22353
1.23378
1.25765
1.30842
1.41675
1.63574
2.05097
2.61528
2.84947
2.90812
2.90363
2.8806
2.8353
2.77236
2.70466
2.63889
2.57669
2.51855
2.46411
2.41271
2.36352
2.31599
2.26968
2.22456
2.18048
2.13763
2.0958
2.05517
2.01544
1.97684
1.93905
1.90237
1.86648
1.83167
1.7976
1.76459
1.73225
1.70095
1.67025
1.6406
1.61147
1.58339
1.55577
1.5292
1.50301
1.47786
1.45303
1.42923
1.40569
1.38318
1.36091
1.33967
1.31869
1.2988
1.27923
1.26088
1.24299
1.22657
1.21088
1.19707
1.18472
1.17595
1.16892
1.16932
1.17394
6.20823
5.77546
5.39824
5.05299
4.72443
4.41072
4.11405
3.83545
3.57574
3.33542
3.11437
2.91194
2.72714
2.55884
2.40578
2.26675
2.14053
2.02601
1.92213
1.82801
1.74274
1.66564
1.59604
1.53343
1.47727
1.4273
1.38306
1.34441
1.311
1.28297
1.259
1.24172
1.22617
1.22646
1.22974
1.23787
1.2626
1.31695
1.43249
1.67165
2.11498
2.66577
2.89878
2.95626
2.95024
2.92651
2.87509
2.80503
2.73359
2.66628
2.60382
2.54558
2.49097
2.43918
2.38954
2.3414
2.29445
2.24843
2.20346
2.15949
2.11671
2.07496
2.03441
1.99476
1.95627
1.91861
1.88208
1.84634
1.81171
1.77781
1.74499
1.71285
1.68175
1.65127
1.62183
1.59294
1.56509
1.5377
1.51136
1.48541
1.46048
1.43587
1.41227
1.38891
1.36654
1.34436
1.32317
1.30213
1.2821
1.2622
1.24338
1.22465
1.20713
1.1897
1.17366
1.15784
1.14353
1.13019
1.1185
1.11204
6.3167
5.87735
5.48654
5.14099
4.82018
4.51631
4.22747
3.95409
3.69822
3.46021
3.23989
3.03687
2.85034
2.67939
2.52302
2.38007
2.24957
2.13047
2.02177
1.92269
1.83234
1.75006
1.67518
1.60721
1.54556
1.4899
1.43994
1.39515
1.35566
1.32102
1.29137
1.26679
1.25085
1.2523
1.25976
1.28226
1.33664
1.45556
1.70029
2.17715
2.71298
2.93678
2.99561
2.9876
2.96103
2.90482
2.82755
2.75323
2.68595
2.62467
2.56779
2.51402
2.46265
2.41302
2.36477
2.3175
2.27113
2.22554
2.18095
2.13728
2.0948
2.05327
2.01294
1.97348
1.93517
1.89766
1.8613
1.82571
1.79125
1.75752
1.72488
1.69292
1.66202
1.63173
1.6025
1.57382
1.54618
1.51901
1.49289
1.46716
1.44247
1.41808
1.39471
1.37157
1.34941
1.32743
1.30642
1.28553
1.26563
1.24579
1.227
1.20817
1.19053
1.17269
1.15631
1.13941
1.12449
1.1086
1.09585
1.08311
6.31672
6.01229
5.59611
5.23504
4.91349
4.6145
4.33195
4.06478
3.81347
3.5783
3.35941
3.15644
2.96894
2.79606
2.63705
2.49094
2.35679
2.23376
2.12091
2.01747
1.92268
1.83584
1.75635
1.68364
1.61728
1.55668
1.50177
1.45187
1.40714
1.36708
1.33335
1.30334
1.2983
1.30377
1.32287
1.37745
1.49843
1.74906
2.24878
2.78002
2.98763
3.04095
3.02883
2.99385
2.92308
2.84107
2.76548
2.69867
2.63896
2.58353
2.53097
2.48034
2.43127
2.38334
2.33642
2.29021
2.24479
2.20004
2.15623
2.11322
2.07134
2.0303
1.9904
1.95128
1.91329
1.87605
1.83995
1.80459
1.77035
1.73681
1.70438
1.6726
1.64189
1.61179
1.58276
1.55426
1.52683
1.49986
1.47395
1.44843
1.42394
1.39977
1.37661
1.35369
1.33176
1.30999
1.2892
1.26851
1.24881
1.22914
1.21052
1.19181
1.1743
1.15649
1.14018
1.12311
1.10822
1.09173
1.07903
1.06461
6.27854
6.09439
5.71704
5.33835
5.00883
4.71134
4.43312
4.17111
3.92351
3.69096
3.4738
3.27142
3.0834
2.90914
2.74803
2.5993
2.46208
2.33566
2.2192
2.11194
2.01325
1.92237
1.83879
1.76193
1.69129
1.62652
1.56708
1.51307
1.46357
1.42068
1.38222
1.36465
1.36907
1.38816
1.44293
1.56928
1.83141
2.35248
2.87223
3.06735
3.10505
3.08659
3.03699
2.94301
2.85517
2.77814
2.71058
2.65017
2.59497
2.54217
2.49183
2.44306
2.39566
2.34923
2.30374
2.25886
2.21473
2.17118
2.12852
2.08653
2.04558
2.00531
1.96613
1.9276
1.89017
1.85339
1.81772
1.78272
1.74882
1.71557
1.68341
1.65187
1.6214
1.59151
1.56269
1.53438
1.50715
1.48036
1.45465
1.42932
1.40503
1.38106
1.35811
1.33539
1.31368
1.29211
1.27154
1.25105
1.23156
1.21209
1.19367
1.17514
1.15783
1.14016
1.12403
1.10706
1.09232
1.07581
1.06328
1.04852
6.17285
6.0818
5.84969
5.45905
5.11194
4.80842
4.53161
4.27306
4.02975
3.8005
3.58507
3.383
3.19454
3.01927
2.85646
2.70552
2.5657
2.43631
2.31664
2.20603
2.10375
2.00932
1.922
1.84137
1.76702
1.6983
1.63527
1.57729
1.52555
1.47979
1.45164
1.45503
1.47363
1.52963
1.66425
1.9469
2.50879
3.00412
3.19368
3.19889
3.16986
3.1004
2.99592
2.90375
2.82116
2.74665
2.67875
2.61608
2.55779
2.50362
2.45354
2.40507
2.35829
2.31265
2.2681
2.22426
2.18131
2.13895
2.09752
2.05669
2.01689
1.97764
1.93944
1.90177
1.86515
1.82908
1.79408
1.75964
1.72627
1.69347
1.66173
1.63053
1.6004
1.57078
1.54223
1.51416
1.48716
1.46059
1.43508
1.40994
1.38586
1.36207
1.33933
1.3168
1.29529
1.27392
1.25355
1.23326
1.21398
1.19471
1.1765
1.15816
1.14106
1.12357
1.10765
1.09084
1.07632
1.05993
1.0476
1.03286
6.03717
6.01599
5.88597
5.59696
5.23075
4.91212
4.6304
4.37289
4.13248
3.90577
3.69204
3.49141
3.30308
3.12697
2.9627
2.8098
2.66766
2.5356
2.41316
2.29942
2.19407
2.09629
2.00562
1.92167
1.84376
1.77185
1.70555
1.64534
1.59306
1.55581
1.55887
1.57853
1.64027
1.78935
2.10303
2.71698
3.18927
3.36018
3.35112
3.29927
3.18884
3.08163
2.97936
2.88885
2.80762
2.73324
2.66445
2.59973
2.53814
2.47986
2.42489
2.37355
2.32516
2.27849
2.23343
2.18951
2.14685
2.10506
2.06441
2.02448
1.98566
1.94741
1.91023
1.87354
1.8379
1.80272
1.76859
1.73491
1.70227
1.6701
1.63895
1.60827
1.57861
1.54941
1.52124
1.49349
1.46679
1.44049
1.41523
1.39032
1.36646
1.34289
1.32035
1.29802
1.27671
1.25554
1.23538
1.21528
1.1962
1.17712
1.15911
1.14097
1.12407
1.10676
1.09106
1.07442
1.06012
1.04389
1.03178
1.01711
5.67887
5.90336
5.84904
5.68467
5.35108
5.02079
4.73347
4.47513
4.23576
4.00999
3.79664
3.59629
3.40835
3.23195
3.06661
2.91217
2.76797
2.63373
2.50857
2.3922
2.28391
2.18309
2.08951
2.00232
1.92157
1.84692
1.77863
1.71976
1.67532
1.67842
1.70017
1.76935
1.93684
2.28656
2.9776
3.42278
3.55609
3.54088
3.47013
3.32466
3.19226
3.07795
2.97631
2.88591
2.80455
2.72977
2.66033
2.59389
2.52986
2.46884
2.41015
2.35415
2.30141
2.25173
2.20441
2.15893
2.11524
2.07287
2.03203
1.99221
1.95373
1.91601
1.87951
1.84358
1.80878
1.77445
1.7412
1.70837
1.67656
1.64516
1.61475
1.58474
1.55571
1.52706
1.49941
1.47212
1.44584
1.41991
1.39499
1.37039
1.34682
1.3235
1.3012
1.27911
1.25802
1.23706
1.2171
1.1972
1.17833
1.15943
1.14164
1.12367
1.10698
1.08986
1.07436
1.0579
1.04382
1.02775
1.01586
1.00129
4.84461
5.68014
5.74374
5.67102
5.4839
5.14846
4.84489
4.57929
4.33801
4.11381
3.90242
3.70223
3.51341
3.33553
3.16903
3.01287
2.86703
2.73064
2.60321
2.48437
2.37324
2.27004
2.17341
2.0837
2.00063
1.92445
1.85894
1.80933
1.81278
1.83755
1.91673
2.10825
2.5072
3.28778
3.69434
3.78093
3.75471
3.66187
3.49332
3.33854
3.20614
3.09168
2.99037
2.89869
2.81448
2.73612
2.6624
2.59295
2.52756
2.46489
2.4036
2.34474
2.28829
2.23432
2.18344
2.13541
2.08953
2.0455
2.00342
1.96271
1.92368
1.88569
1.84919
1.81345
1.77904
1.74521
1.71259
1.68042
1.64935
1.61868
1.58903
1.55974
1.53144
1.50345
1.47644
1.44974
1.42401
1.39856
1.37411
1.34991
1.32672
1.30374
1.28177
1.25995
1.23914
1.21843
1.19872
1.17904
1.1604
1.14171
1.12413
1.10635
1.08987
1.07293
1.05765
1.04135
1.02749
1.01157
0.999912
0.985433
3.15646
5.14751
5.61725
5.60723
5.51396
5.29718
4.97887
4.69471
4.44446
4.21673
4.00429
3.80396
3.61497
3.43711
3.26977
3.11241
2.96491
2.82626
2.6971
2.57572
2.46251
2.35645
2.25772
2.16621
2.08219
2.01022
1.95717
1.96128
1.98984
2.08215
2.30317
2.76279
3.62743
3.99023
4.03486
3.99054
3.86892
3.68262
3.50977
3.36242
3.2355
3.12287
3.02047
2.92572
2.83727
2.75416
2.67573
2.60147
2.53113
2.46428
2.40153
2.34102
2.28225
2.2257
2.17153
2.11975
2.07088
2.02461
1.98054
1.93816
1.89779
1.85876
1.82149
1.78523
1.75055
1.71664
1.68414
1.65222
1.62157
1.59138
1.56232
1.53363
1.50598
1.47864
1.4523
1.42622
1.40113
1.37625
1.35237
1.32868
1.30597
1.28343
1.26187
1.24043
1.21998
1.19958
1.18018
1.16077
1.14241
1.12394
1.10661
1.08904
1.07279
1.05603
1.04098
1.02485
1.01122
0.995448
0.984013
0.969618
2.23479
3.93753
5.27653
5.5095
5.47997
5.36557
5.11954
4.81985
4.55474
4.31934
4.10412
3.90308
3.71403
3.53601
3.3679
3.2099
3.06112
2.92159
2.78993
2.66674
2.55139
2.44349
2.34341
2.25183
2.17318
2.11876
2.12415
2.1582
2.26705
2.52576
3.06594
3.97728
4.32715
4.32149
4.2483
4.08816
3.88766
3.70096
3.5403
3.40085
3.27704
3.16398
3.05889
2.96017
2.86709
2.77915
2.69596
2.6171
2.54237
2.47138
2.40418
2.34032
2.2803
2.22216
2.16599
2.11186
2.06009
2.01074
1.96414
1.91968
1.8775
1.83685
1.79822
1.76081
1.72525
1.69065
1.65771
1.6255
1.59479
1.56463
1.53579
1.50739
1.48017
1.45328
1.42748
1.40194
1.37743
1.35312
1.32982
1.30667
1.28451
1.26248
1.24141
1.22042
1.2004
1.1804
1.16138
1.14232
1.12428
1.10611
1.08907
1.07175
1.05576
1.03922
1.0244
1.00846
0.995058
0.979443
0.968236
0.953922
1.64155
2.5335
4.46597
5.28459
5.39922
5.3501
5.21728
4.94706
4.66968
4.42453
4.20454
4.00205
3.81249
3.63339
3.46487
3.30606
3.15616
3.01532
2.88245
2.75775
2.64074
2.53212
2.43316
2.34777
2.2942
2.3018
2.34467
2.47641
2.79198
3.45264
4.36681
4.67368
4.65621
4.54785
4.32631
4.1107
3.91395
3.74075
3.58839
3.45179
3.32722
3.21144
3.10264
2.99971
2.90215
2.80966
2.72196
2.63875
2.55986
2.48488
2.41382
2.34624
2.28227
2.22141
2.16418
2.10851
2.05503
2.00342
1.95418
1.90727
1.86303
1.82047
1.78014
1.7412
1.70432
1.66856
1.63469
1.6017
1.57041
1.53982
1.51076
1.48224
1.45507
1.42831
1.40277
1.37754
1.35343
1.32955
1.30673
1.28408
1.26243
1.24091
1.22035
1.19986
1.18032
1.16079
1.14221
1.12356
1.10592
1.08811
1.07142
1.05441
1.03873
1.02245
1.00791
0.99219
0.979044
0.963606
0.95264
0.938426
1.32616
1.77744
2.81331
4.72215
5.24559
5.28305
5.21948
5.0664
4.79494
4.53818
4.31
4.10322
3.91161
3.73223
3.56308
3.40245
3.25126
3.10845
2.97471
2.8489
2.73212
2.62549
2.53464
2.48406
2.49533
2.55101
2.71633
3.1068
3.92425
4.80414
5.0542
5.01425
4.86573
4.59551
4.35468
4.14498
3.96074
3.79582
3.6463
3.50884
3.38135
3.2617
3.14874
3.04155
2.93976
2.84307
2.75131
2.66415
2.58149
2.50289
2.42836
2.3574