/*--------------------------------*- C++ -*----------------------------------*\
  =========                 |
  \\      /  F ield         | OpenFOAM: The Open Source CFD Toolbox
   \\    /   O peration     | Website:  https://openfoam.org
    \\  /    A nd           | Version:  10
     \\/     M anipulation  |
\*---------------------------------------------------------------------------*/
FoamFile
{
    format      ascii;
    class       surfaceScalarField;
    location    "1.5";
    object      phi;
}
// * * * * * * * * * * * * * * * * * * * * * * * * * * * * * * * * * * * * * //

dimensions      [1 0 -1 0 0 0 0];

internalField   nonuniform List<scalar> 
10325
(
0.00840003
2.44008e-11
0.00840004
2.72281e-10
0.00839998
6.06664e-10
0.00840013
2.64445e-09
0.00839974
4.72915e-09
0.00840068
1.7406e-08
0.00839841
2.75117e-08
0.0084035
1.15386e-07
0.00839206
1.53218e-07
0.00841227
6.98307e-07
0.00837704
1.06685e-06
0.00841019
3.97992e-06
0.00836096
1.00989e-05
0.00833392
3.53618e-05
0.00813508
0.000155442
0.00743114
0.000642162
0.00666522
0.000743778
0.00602426
0.000655956
0.00536163
0.000674263
0.00460043
0.000750716
0.00376358
0.000814697
0.00288077
0.000876406
0.00195928
0.000922658
0.00100304
0.000955589
0.000981057
0.00840003
6.49911e-11
0.00840004
4.16738e-10
0.0084
1.50408e-09
0.00840007
3.97694e-09
0.00839987
1.10102e-08
0.00840034
2.70014e-08
0.00839886
6.8389e-08
0.00840237
1.74514e-07
0.0083934
4.27595e-07
0.00840975
1.09181e-06
0.00837983
2.728e-06
0.00840688
7.36218e-06
0.00836199
2.1452e-05
0.00833322
7.13129e-05
0.00813359
0.000311292
0.00741313
0.00129929
0.00668937
0.00144323
0.00604082
0.00132227
0.00536149
0.00136489
0.00460031
0.00150248
0.00375556
0.00163783
0.00286843
0.00175732
0.00194098
0.00185121
0.000980245
0.00191555
0.00193909
0.00840003
1.14296e-10
0.00840003
6.26885e-10
0.00840002
2.47782e-09
0.00840003
6.04453e-09
0.00839992
1.86904e-08
0.00840024
4.10903e-08
0.00839899
1.13098e-07
0.008402
2.60428e-07
0.00839402
6.55538e-07
0.00840824
1.65189e-06
0.00838183
4.10213e-06
0.00840431
1.11055e-05
0.00836358
3.2269e-05
0.00833474
0.000107164
0.00814237
0.000459785
0.00739597
0.00197987
0.00678965
0.00203041
0.00609944
0.00203104
0.00539609
0.00207732
0.00464159
0.00224952
0.00379308
0.00246536
0.00290215
0.00264223
0.00196724
0.0027874
0.00099353
0.00288876
0.00291039
0.00840003
1.405e-10
0.00840003
8.78692e-10
0.00840003
3.01959e-09
0.0084
8.58388e-09
0.00840003
2.25036e-08
0.00839995
5.68296e-08
0.00839973
1.41944e-07
0.00840016
3.50652e-07
0.00839752
8.79216e-07
0.0084011
2.17543e-06
0.00839176
5.57407e-06
0.00839273
1.47906e-05
0.00837185
4.29867e-05
0.008331
0.000141416
0.008162
0.000588966
0.00745171
0.00261717
0.00680735
0.00267934
0.00616874
0.00267475
0.00546442
0.00278366
0.00471119
0.0029974
0.00387182
0.00328516
0.00298233
0.00352689
0.00203591
0.00373483
0.00103368
0.00388957
0.00392234
0.00840003
1.63215e-10
0.00840003
1.09663e-09
0.00840003
3.50357e-09
0.0084
1.0777e-08
0.00840002
2.62401e-08
0.00839997
7.00242e-08
0.00839968
1.7406e-07
0.00840034
4.20055e-07
0.00839716
1.11029e-06
0.00840207
2.57336e-06
0.00839033
6.97762e-06
0.00839486
1.77341e-05
0.00837085
5.25264e-05
0.00834939
0.00017123
0.00819952
0.00069383
0.00752635
0.00320728
0.00687392
0.00333911
0.00624682
0.00330694
0.00554528
0.00348434
0.00480379
0.00373478
0.00398877
0.00408504
0.00310484
0.00440551
0.00214601
0.00469472
0.00110777
0.00492799
0.00501036
0.00840003
2.79011e-10
0.00840004
1.00694e-09
0.00840001
5.35025e-09
0.00840006
9.78473e-09
0.00839987
3.89955e-08
0.00840035
6.56002e-08
0.00839891
2.46583e-07
0.00840227
4.11651e-07
0.00839377
1.48888e-06
0.00840984
2.71412e-06
0.00837879
8.7071e-06
0.00841028
2.0122e-05
0.00836093
6.13904e-05
0.00835058
0.00019653
0.00821856
0.000780699
0.00759852
0.00373888
0.00695166
0.00399736
0.00633606
0.00393006
0.00567224
0.00414813
0.0049557
0.00444861
0.00416127
0.00486115
0.00328809
0.00527423
0.00231555
0.00567277
0.00121565
0.00603332
0.00620868
0.00840003
2.01776e-10
0.00840003
1.56074e-09
0.00840002
4.67213e-09
0.00840003
1.52934e-08
0.00840002
3.46117e-08
0.00839988
1.03754e-07
0.00840022
2.10241e-07
0.00839852
6.61887e-07
0.00840197
1.25383e-06
0.00839258
4.07413e-06
0.00840483
8.36269e-06
0.00838118
2.51292e-05
0.00838513
6.7192e-05
0.00833607
0.000222036
0.00824204
0.000850037
0.00770727
0.00417432
0.00706855
0.00465264
0.00646824
0.0045391
0.00583716
0.00477625
0.00515652
0.00512347
0.00439731
0.00560676
0.00354453
0.00612502
0.00255792
0.00666143
0.00139513
0.00719559
0.0075853
0.00840003
2.42441e-10
0.00840002
1.6689e-09
0.00840005
5.26109e-09
0.00839997
1.63515e-08
0.00840015
3.94755e-08
0.00839973
1.06139e-07
0.00840046
2.58939e-07
0.00839884
6.32755e-07
0.00840068
1.66968e-06
0.00839602
3.81536e-06
0.00839984
1.0564e-05
0.00838564
2.5911e-05
0.00838443
7.57557e-05
0.00834852
0.000238368
0.0082749
0.000898885
0.0079096
0.00442706
0.00726526
0.00531819
0.00666819
0.00514854
0.00607206
0.00537475
0.0054392
0.00575791
0.00471806
0.00631987
0.00389141
0.00695195
0.00291567
0.00764099
0.00167682
0.00843847
0.00924617
0.00840003
2.79045e-10
0.00840004
1.58056e-09
0.0084
5.95104e-09
0.0084001
1.54573e-08
0.00839986
4.38954e-08
0.00840041
1.05937e-07
0.00839911
2.72467e-07
0.008402
6.86646e-07
0.00839526
1.63428e-06
0.00840741
4.39379e-06
0.0083843
1.0326e-05
0.00840893
2.85008e-05
0.00837016
7.73882e-05
0.00837446
0.000246456
0.00833404
0.000902142
0.00828199
0.00436165
0.00762154
0.00600475
0.00699778
0.00578988
0.00642968
0.00594459
0.00582658
0.0063605
0.00517036
0.00696761
0.00441769
0.00770794
0.00349517
0.00857199
0.00218922
0.00975698
0.0114283
0.00840003
2.60641e-10
0.00840002
1.54318e-09
0.00840005
5.4536e-09
0.00839999
1.5011e-08
0.00840013
4.13719e-08
0.00839981
9.78802e-08
0.00840044
2.71402e-07
0.00839915
6.0252e-07
0.00840095
1.73428e-06
0.00839734
3.75444e-06
0.00840166
1.08835e-05
0.0083928
2.58108e-05
0.00840056
7.54481e-05
0.00839929
0.000227875
0.00845824
0.000824143
0.00893969
0.00375463
0.00824509
0.00671819
0.00750452
0.00654455
0.00694724
0.00650574
0.00638673
0.00692125
0.00580927
0.00753402
0.00517613
0.00833525
0.00432528
0.00942133
0.00304678
0.0110423
0.0144632
0.00840003
1.97233e-10
0.00840003
1.36744e-09
0.00840002
4.45657e-09
0.00840005
1.36193e-08
0.0084
3.26305e-08
0.00840005
9.34758e-08
0.00840008
1.99683e-07
0.00839965
5.91538e-07
0.00840124
1.21161e-06
0.00839734
3.66132e-06
0.00840705
7.68525e-06
0.00839758
2.23762e-05
0.00842522
5.54942e-05
0.00846506
0.000169083
0.00871519
0.000564312
0.00994023
0.0024296
0.00915467
0.00749774
0.0081308
0.00757197
0.00757073
0.0070648
0.00706231
0.00742893
0.00657406
0.00801999
0.00607519
0.0088346
0.00564857
0.0098539
0.00565357
0.0110531
0.011357
0.00876495
0.00840003
1.92381e-10
0.00840003
1.19729e-09
0.00840004
4.0953e-09
0.00840001
1.15206e-08
0.00840006
3.10284e-08
0.00839998
7.42879e-08
0.00840001
2.02433e-07
0.00840025
4.44183e-07
0.00839899
1.27068e-06
0.00840227
2.66419e-06
0.00839614
7.82683e-06
0.00840733
1.74292e-05
0.00840202
4.9925e-05
0.0084308
0.000138675
0.00851556
0.000461743
0.00902832
0.00187015
0.00910995
0.00734528
0.00883955
0.0078343
0.00812844
0.00777691
0.00764474
0.00791048
0.00723442
0.00842615
0.00694306
0.00912149
0.00687008
0.00992485
0.0072979
0.010632
0.0104064
0.00826321
0.00840003
1.80969e-10
0.00840003
1.04334e-09
0.00840002
3.89063e-09
0.00840006
1.03439e-08
0.00839997
2.84136e-08
0.00840018
7.06693e-08
0.00839976
1.74343e-07
0.00840047
4.50065e-07
0.00839925
1.03921e-06
0.00840066
2.82833e-06
0.00839843
6.34692e-06
0.00840199
1.757e-05
0.00839772
4.32889e-05
0.00841312
0.000126465
0.00845546
0.000401626
0.00874235
0.00154403
0.00908281
0.0068848
0.00879568
0.00811802
0.00838509
0.00818759
0.00807863
0.00821827
0.00785568
0.00864284
0.00775274
0.00921767
0.00791644
0.00975714
0.00844164
0.0101082
0.00983927
0.00902066
0.00840003
1.61724e-10
0.00840003
1.01897e-09
0.00840004
3.45285e-09
0.0084
9.88288e-09
0.00840009
2.61794e-08
0.0083999
6.42236e-08
0.00840033
1.70508e-07
0.00839943
3.91265e-07
0.00840129
1.06678e-06
0.00839735
2.37785e-06
0.00840438
6.62418e-06
0.00839233
1.52379e-05
0.00840888
4.22274e-05
0.00839542
0.000113974
0.00843772
0.000362373
0.00861892
0.00132859
0.00930462
0.00608406
0.00907323
0.00835985
0.00876714
0.00850464
0.00850961
0.00847758
0.00839418
0.00875705
0.00841194
0.00919393
0.00861538
0.00954923
0.00907004
0.00965354
0.00933887
0.00957816
0.00840003
1.29629e-10
0.00840003
9.03761e-10
0.00840003
2.9338e-09
0.00840004
8.92239e-09
0.00840002
2.17182e-08
0.00840004
6.07797e-08
0.00840006
1.36019e-07
0.00839981
3.84358e-07
0.00840077
8.38463e-07
0.00839785
2.39062e-06
0.00840509
5.27828e-06
0.00839227
1.48307e-05
0.00841445
3.56778e-05
0.00840109
0.000101866
0.00846459
0.000305028
0.00867426
0.00108604
0.0100007
0.00463592
0.00964803
0.0087095
0.00927309
0.00888165
0.00898326
0.00877636
0.00890062
0.00884476
0.00897579
0.00911907
0.0091659
0.00935909
0.00950492
0.00931464
0.00893677
0.00990924
0.00840003
1.11399e-10
0.00840003
7.20478e-10
0.00840003
2.41907e-09
0.00840002
7.0427e-09
0.00840004
1.82185e-08
0.00840003
4.61027e-08
0.00840002
1.17245e-07
0.00840028
2.80851e-07
0.00839945
7.27444e-07
0.00840256
1.69645e-06
0.00839653
4.47522e-06
0.00841323
1.04985e-05
0.00839848
2.78633e-05
0.00844941
7.1511e-05
0.0085141
0.000208848
0.00891744
0.000683925
0.0107371
0.00274608
0.0103704
0.00902835
0.0100602
0.00918313
0.0096006
0.00923273
0.00940547
0.00903272
0.00944734
0.00907625
0.00961945
0.00918287
0.00986184
0.00907245
0.00865101
0.0101488
0.00840003
9.73408e-11
0.00840003
5.7005e-10
0.00840003
2.0954e-09
0.00840004
5.59296e-09
0.00840001
1.54861e-08
0.00840011
3.77784e-08
0.00839987
9.58326e-08
0.00840056
2.37061e-07
0.00839912
5.75877e-07
0.00840301
1.46414e-06
0.00839564
3.46277e-06
0.00841246
9.01487e-06
0.00839104
2.17018e-05
0.00843449
5.79915e-05
0.00844169
0.000160164
0.00862291
0.000512101
0.00935477
0.00195844
0.010499
0.0077623
0.0103326
0.00933836
0.0100759
0.00948685
0.00985277
0.00926333
0.00983654
0.00909337
0.00997552
0.0090422
0.0101541
0.00888857
0.00846568
0.0103376
0.00840003
8.26357e-11
0.00840003
4.71957e-10
0.00840003
1.73056e-09
0.00840002
4.60031e-09
0.00840005
1.28959e-08
0.00840001
3.04239e-08
0.00840007
8.25462e-08
0.00840006
1.87455e-07
0.00839993
5.08786e-07
0.0084008
1.14985e-06
0.0083985
3.11463e-06
0.0084053
7.18224e-06
0.00839601
1.9236e-05
0.00841817
4.76357e-05
0.00842184
0.00013375
0.00852765
0.000407153
0.00896202
0.00147885
0.010588
0.00601828
0.0106294
0.0092982
0.0104541
0.00966121
0.0102229
0.00949443
0.0101777
0.00913433
0.0102725
0.00894781
0.010413
0.00874427
0.00834658
0.0105323
0.00840003
5.43479e-11
0.00840003
3.91261e-10
0.00840003
1.2236e-09
0.00840003
3.83039e-09
0.00840004
9.17285e-09
0.00840001
2.52077e-08
0.00840012
5.86121e-08
0.00839987
1.53754e-07
0.00840073
3.64121e-07
0.00839892
9.23722e-07
0.00840456
2.26301e-06
0.00839469
5.58497e-06
0.0084206
1.41429e-05
0.0083942
3.54481e-05
0.00846943
9.52476e-05
0.00854777
0.000276175
0.00908886
0.000930433
0.011298
0.00364679
0.0111686
0.00941403
0.011086
0.00975826
0.0108273
0.00976438
0.0105903
0.00937304
0.0105617
0.00897815
0.0106394
0.00866714
0.00826695
0.0107114
0.00840003
4.55262e-11
0.00840003
2.79071e-10
0.00840003
9.93757e-10
0.00840004
2.74605e-09
0.00840002
7.33713e-09
0.00840007
1.8542e-08
0.00839999
4.53422e-08
0.00840021
1.16355e-07
0.00839989
2.72465e-07
0.00840066
7.1653e-07
0.00840022
1.63556e-06
0.00840186
4.39156e-06
0.00840411
1.0058e-05
0.00841205
2.69673e-05
0.00843364
6.69205e-05
0.00851265
0.000191479
0.00882932
0.000599183
0.0101508
0.00226952
0.0114691
0.00801889
0.0114338
0.00979653
0.0112363
0.00996798
0.0109819
0.00962952
0.0108709
0.00908975
0.0108655
0.00867303
0.00824456
0.0108878
0.00840003
3.49929e-11
0.00840003
2.17746e-10
0.00840003
7.50911e-10
0.00840003
2.11716e-09
0.00840004
5.64161e-09
0.00840003
1.38746e-08
0.00840004
3.63503e-08
0.00840008
8.46888e-08
0.00839996
2.25492e-07
0.00840066
5.12461e-07
0.0083991
1.38502e-06
0.00840465
3.13773e-06
0.00839538
8.48824e-06
0.00842099
1.98823e-05
0.00840138
5.36719e-05
0.0084784
0.000141994
0.00859775
0.000435554
0.00929931
0.0015543
0.0114323
0.00576272
0.0116671
0.00955322
0.011624
0.0100085
0.0113936
0.00986032
0.0112164
0.00926831
0.0111304
0.00875764
0.00827129
0.0111002
0.00840003
2.61804e-11
0.00840003
1.53417e-10
0.00840003
5.60582e-10
0.00840003
1.51349e-09
0.00840003
4.13464e-09
0.00840005
1.00983e-08
0.00840002
2.57484e-08
0.0084001
6.24254e-08
0.00840006
1.54463e-07
0.00840023
3.82716e-07
0.00840074
9.18368e-07
0.00840035
2.32982e-06
0.00840566
5.53439e-06
0.00840405
1.42261e-05
0.00843162
3.47177e-05
0.00846398
9.23287e-05
0.00864138
0.000258936
0.00931753
0.000841236
0.0119114
0.0030632
0.0122103
0.00921761
0.0121779
0.0100312
0.0119342
0.0100954
0.0115671
0.00963454
0.0114087
0.00891203
0.00837466
0.0113024
0.00840003
1.7883e-11
0.00840003
1.15889e-10
0.00840003
3.92866e-10
0.00840003
1.13388e-09
0.00840003
2.9163e-09
0.00840003
7.50088e-09
0.00840005
1.83158e-08
0.00840001
4.59584e-08
0.00840021
1.11288e-07
0.00839983
2.76508e-07
0.00840132
6.71113e-07
0.00839878
1.66353e-06
0.00840746
4.05081e-06
0.00839555
1.008e-05
0.00843151
2.50205e-05
0.00841564
6.41394e-05
0.00853661
0.000174819
0.00878698
0.000536644
0.00986131
0.00196226
0.0121189
0.0068463
0.0123761
0.00976119
0.0123064
0.0101545
0.0119067
0.0100315
0.0117311
0.00909127
0.00854389
0.0115656
0.00840003
1.23002e-11
0.00840003
8.21328e-11
0.00840003
2.72183e-10
0.00840003
8.03749e-10
0.00840003
2.02605e-09
0.00840003
5.3064e-09
0.00840005
1.27438e-08
0.00840002
3.2336e-08
0.00840016
7.78123e-08
0.00839991
1.93567e-07
0.00840093
4.73603e-07
0.00839923
1.15612e-06
0.00840542
2.87695e-06
0.0083967
6.98893e-06
0.00842513
1.76646e-05
0.00840627
4.39619e-05
0.00850165
0.000117098
0.00864535
0.000336789
0.0094681
0.00113413
0.0121125
0.00404313
0.0125875
0.00925303
0.0126905
0.0100569
0.0125865
0.0101389
0.0121053
0.00957502
0.00881136
0.0118382
0.00840003
8.8452e-12
0.00840003
5.44578e-11
0.00840003
1.92782e-10
0.00840003
5.3384e-10
0.00840003
1.43037e-09
0.00840004
3.53438e-09
0.00840003
8.93203e-09
0.00840005
2.18183e-08
0.00840006
5.35945e-08
0.00840008
1.32582e-07
0.00840038
3.19601e-07
0.00839995
8.01625e-07
0.00840286
1.91397e-06
0.0083992
4.83447e-06
0.00841673
1.16327e-05
0.00840645
2.97082e-05
0.00847605
7.49045e-05
0.00856306
0.000207142
0.00906754
0.000638281
0.0107756
0.00227421
0.0127023
0.00722768
0.0128898
0.00986203
0.0129013
0.0101258
0.0124692
0.0100105
0.00910788
0.0121816
0.00840003
5.70537e-12
0.00840003
3.8263e-11
0.00840003
1.26613e-10
0.00840003
3.74279e-10
0.00840003
9.40292e-10
0.00840003
2.47252e-09
0.00840004
5.8971e-09
0.00840003
1.50909e-08
0.00840008
3.58638e-08
0.0084
9.02155e-08
0.00840042
2.17413e-07
0.00839976
5.37778e-07
0.00840255
1.31228e-06
0.00839874
3.22336e-06
0.00841359
7.97953e-06
0.0083997
1.96167e-05
0.00845676
4.99549e-05
0.00848188
0.000130863
0.00876385
0.00038086
0.0096934
0.00128942
0.0124325
0.00435336
0.0130461
0.00921717
0.0131812
0.00999211
0.0130468
0.0101463
0.0095577
0.0126015
0.00840003
3.91987e-12
0.00840003
2.44698e-11
0.00840003
8.6363e-11
0.00840003
2.39713e-10
0.00840003
6.40082e-10
0.00840003
1.58896e-09
0.00840003
3.96654e-09
0.00840004
9.83261e-09
0.00840004
2.36481e-08
0.00840007
5.99068e-08
0.00840017
1.3979e-07
0.0084001
3.6232e-07
0.00840122
8.31426e-07
0.00839995
2.17563e-06
0.00840814
4.99106e-06
0.00840119
1.30996e-05
0.00844145
3.09912e-05
0.0084522
8.21181e-05
0.00863879
0.000219891
0.00920235
0.000684232
0.0111679
0.00235045
0.0131542
0.00712137
0.013308
0.00982866
0.01343
0.0100201
0.00995913
0.0130325
0.00840003
2.56321e-12
0.00840003
1.60671e-11
0.00840003
5.56417e-11
0.00840003
1.57462e-10
0.00840003
4.12707e-10
0.00840003
1.03491e-09
0.00840003
2.59513e-09
0.00840003
6.2813e-09
0.00840005
1.57307e-08
0.00840004
3.75301e-08
0.00840012
9.45212e-08
0.0084002
2.23634e-07
0.00840031
5.66101e-07
0.0084016
1.33729e-06
0.00840079
3.37888e-06
0.00841066
8.08738e-06
0.00840821
2.03877e-05
0.00845526
5.05945e-05
0.00851088
0.000133503
0.00881984
0.000382221
0.00984614
0.00127814
0.0126842
0.00414389
0.0134708
0.00900135
0.0136241
0.00986718
0.0101139
0.0134722
0.00840003
1.60453e-12
0.00840003
1.04236e-11
0.00840003
3.51055e-11
0.00840003
1.02137e-10
0.00840003
2.60548e-10
0.00840003
6.70645e-10
0.00840003
1.63659e-09
0.00840003
4.06437e-09
0.00840005
9.91117e-09
0.00840002
2.4235e-08
0.00840014
5.95537e-08
0.00840003
1.43912e-07
0.00840058
3.56504e-07
0.00840033
8.55299e-07
0.00840232
2.1364e-06
0.00840357
5.09898e-06
0.00841152
1.28667e-05
0.0084262
3.1272e-05
0.00847957
8.0594e-05
0.00862834
0.000216234
0.00923342
0.000661798
0.0111048
0.00222409
0.0134263
0.00656819
0.0136342
0.00964916
0.0098547
0.0138887
0.00840003
9.59992e-13
0.00840003
6.57562e-12
0.00840003
2.15115e-11
0.00840003
6.43522e-11
0.00840003
1.59821e-10
0.00840003
4.21641e-10
0.00840003
9.98131e-10
0.00840003
2.55667e-09
0.00840004
6.02156e-09
0.00840003
1.51667e-08
0.0084001
3.61612e-08
0.00840002
8.93334e-08
0.00840046
2.16902e-07
0.00840003
5.2546e-07
0.00840246
1.29884e-06
0.00840057
3.10627e-06
0.0084124
7.78266e-06
0.00840966
1.8674e-05
0.00846127
4.77433e-05
0.0085169
0.000121659
0.00884688
0.000346365
0.00989659
0.00111971
0.0127794
0.00354006
0.013857
0.00853923
0.00973707
0.0139691
0.00840003
6.34615e-13
0.00840003
3.92082e-12
0.00840003
1.38985e-11
0.00840003
3.84403e-11
0.00840003
1.0225e-10
0.00840003
2.54912e-10
0.00840003
6.29089e-10
0.00840003
1.56525e-09
0.00840003
3.73559e-09
0.00840004
9.40308e-09
0.00840005
2.20694e-08
0.00840007
5.61733e-08
0.00840019
1.30469e-07
0.00840014
3.33831e-07
0.00840127
7.77507e-07
0.00840028
1.97322e-06
0.00840805
4.66922e-06
0.00840276
1.17497e-05
0.00844265
2.86095e-05
0.00844993
7.29226e-05
0.00864049
0.00019345
0.00911825
0.000578724
0.0107242
0.00191949
0.013494
0.00564718
0.00923146
0.0139712
0.00840003
3.87446e-13
0.00840003
2.37015e-12
0.00840003
8.39651e-12
0.00840003
2.31694e-11
0.00840003
6.22491e-11
0.00840003
1.51494e-10
0.00840003
3.87261e-10
0.00840003
9.15432e-10
0.00840003
2.31212e-09
0.00840004
5.4595e-09
0.00840003
1.36021e-08
0.00840009
3.24881e-08
0.00840003
7.98003e-08
0.00840043
1.9283e-07
0.00840008
4.67504e-07
0.00840231
1.14494e-06
0.00840085
2.7434e-06
0.00841228
6.79331e-06
0.00840961
1.63169e-05
0.00846227
4.10996e-05
0.00851304
0.00010336
0.00882933
0.000285565
0.00982833
0.000884559
0.0126935
0.00272962
0.00770258
0.0141466
0.00840003
2.25491e-13
0.00840003
1.43938e-12
0.00840003
4.93403e-12
0.00840003
1.41112e-11
0.00840003
3.64607e-11
0.00840003
9.2358e-11
0.00840003
2.27099e-10
0.00840003
5.5595e-10
0.00840003
1.36076e-09
0.00840003
3.28508e-09
0.00840004
8.09179e-09
0.00840005
1.93464e-08
0.00840006
4.77621e-08
0.0084002
1.14306e-07
0.0084001
2.81313e-07
0.00840129
6.75015e-07
0.00840018
1.65655e-06
0.008408
4.00154e-06
0.00840182
9.80991e-06
0.00844226
2.4078e-05
0.00843859
6.01782e-05
0.00861569
0.000157138
0.00897457
0.000452532
0.0102339
0.00147014
0.0044333
0.0133441
0.00840003
1.32009e-13
0.00840003
8.59844e-13
0.00840003
2.87949e-12
0.00840003
8.41779e-12
0.00840003
2.13174e-11
0.00840003
5.4759e-11
0.00840003
1.33538e-10
0.00840003
3.27602e-10
0.00840003
8.06669e-10
0.00840003
1.92486e-09
0.00840004
4.80827e-09
0.00840004
1.12803e-08
0.00840006
2.85477e-08
0.00840012
6.62254e-08
0.00840012
1.68496e-07
0.00840068
3.90968e-07
0.00840035
9.88855e-07
0.00840435
2.32382e-06
0.00840174
5.80658e-06
0.00842555
1.39308e-05
0.00841998
3.47971e-05
0.00852873
8.71452e-05
0.00868698
0.000233753
0.00947407
0.000699594
0.00221247
0.0116351
0.00840003
7.48246e-14
0.00840003
4.91145e-13
0.00840003
1.66588e-12
0.00840003
4.81234e-12
0.00840003
1.22844e-11
0.00840003
3.15882e-11
0.00840003
7.5578e-11
0.00840003
1.91679e-10
0.00840003
4.47815e-10
0.00840003
1.13422e-09
0.00840003
2.6411e-09
0.00840003
6.65208e-09
0.00840006
1.55758e-08
0.00840004
3.87638e-08
0.00840022
9.20682e-08
0.0084001
2.24943e-07
0.00840115
5.43783e-07
0.00840064
1.30604e-06
0.0084062
3.20958e-06
0.00840495
7.62737e-06
0.0084317
1.90973e-05
0.00844767
4.6e-05
0.00858165
0.000119761
0.00890433
0.000326191
0.00102397
0.0100656
0.00840003
4.44596e-14
0.00840003
2.72926e-13
0.00840003
9.69162e-13
0.00840003
2.67328e-12
0.00840003
7.14398e-12
0.00840003
1.75265e-11
0.00840003
4.408e-11
0.00840003
1.05826e-10
0.00840003
2.60637e-10
0.00840003
6.28569e-10
0.00840003
1.52484e-09
0.00840004
3.71302e-09
0.00840003
8.89304e-09
0.00840007
2.18659e-08
0.00840007
5.18272e-08
0.00840018
1.28498e-07
0.00840042
3.02304e-07
0.00840059
7.52068e-07
0.00840295
1.77139e-06
0.00840248
4.39777e-06
0.0084188
1.04678e-05
0.00841754
2.60777e-05
0.00850181
6.4222e-05
0.00860199
0.000168198
0.00048164
0.00917606
0.00840003
2.44757e-14
0.00840003
1.55116e-13
0.00840003
5.33239e-13
0.00840003
1.51838e-12
0.00840003
3.94129e-12
0.00840003
9.88079e-12
0.00840003
2.44682e-11
0.00840003
5.91375e-11
0.00840003
1.46064e-10
0.00840003
3.47634e-10
0.00840003
8.60732e-10
0.00840003
2.03804e-09
0.00840003
5.04807e-09
0.00840006
1.19505e-08
0.00840004
2.95019e-08
0.00840017
7.01924e-08
0.00840013
1.72017e-07
0.00840074
4.12247e-07
0.00840091
1.00246e-06
0.00840318
2.42832e-06
0.00840694
5.85834e-06
0.00841649
1.43955e-05
0.00844514
3.50608e-05
0.00851622
8.87794e-05
0.000234255
0.00875451
0.00840003
1.37874e-14
0.00840003
8.36251e-14
0.00840003
3.00816e-13
0.00840003
8.20567e-13
0.00840003
2.20767e-12
0.00840003
5.38543e-12
0.00840003
1.35416e-11
0.00840003
3.2549e-11
0.00840003
7.98229e-11
0.00840003
1.92268e-10
0.00840003
4.66217e-10
0.00840003
1.13154e-09
0.00840003
2.71032e-09
0.00840004
6.62701e-09
0.00840004
1.57628e-08
0.00840009
3.87296e-08
0.00840014
9.15191e-08
0.00840028
2.2539e-07
0.00840088
5.32448e-07
0.00840114
1.30685e-06
0.0084058
3.09898e-06
0.00840626
7.58905e-06
0.00843495
1.82133e-05
0.00844958
4.50261e-05
0.000113106
0.00860206
0.00840003
7.52526e-15
0.00840003
4.58651e-14
0.00840003
1.61887e-13
0.00840003
4.48245e-13
0.00840003
1.19314e-12
0.00840003
2.91526e-12
0.00840003
7.38345e-12
0.00840003
1.74201e-11
0.00840003
4.36385e-11
0.00840003
1.02494e-10
0.00840003
2.54646e-10
0.00840003
6.00955e-10
0.00840003
1.47531e-09
0.00840004
3.52729e-09
0.00840003
8.52463e-09
0.00840007
2.06757e-08
0.00840007
4.92216e-08
0.00840024
1.20706e-07
0.00840034
2.84296e-07
0.00840093
7.03912e-07
0.00840246
1.64258e-06
0.00840394
4.08961e-06
0.00841652
9.58661e-06
0.00842356
2.39396e-05
5.78304e-05
0.00849622
0.00840003
3.73397e-15
0.00840003
2.55001e-14
0.00840003
8.3492e-14
0.00840003
2.4832e-13
0.00840003
6.19722e-13
0.00840003
1.60396e-12
0.00840003
3.8428e-12
0.00840003
9.51724e-12
0.00840003
2.29065e-11
0.00840003
5.52145e-11
0.00840003
1.35054e-10
0.00840003
3.19041e-10
0.00840003
7.93074e-10
0.00840003
1.84281e-09
0.00840003
4.62906e-09
0.00840005
1.0706e-08
0.00840005
2.68491e-08
0.00840016
6.23758e-08
0.00840011
1.55196e-07
0.00840084
3.64419e-07
0.00840052
8.94802e-07
0.0084046
2.13785e-06
0.00840349
5.16517e-06
0.00842451
1.26131e-05
3.04222e-05
0.00842872
0.00840003
2.1349e-15
0.00840003
1.2814e-14
0.00840003
4.59304e-14
0.00840003
1.26972e-13
0.00840003
3.36007e-13
0.00840003
8.33471e-13
0.00840003
2.04484e-12
0.00840003
5.02231e-12
0.00840003
1.19426e-11
0.00840003
2.96499e-11
0.00840003
6.91139e-11
0.00840003
1.7322e-10
0.00840003
4.01257e-10
0.00840003
1.00596e-09
0.00840004
2.33374e-09
0.00840003
5.8171e-09
0.00840006
1.3624e-08
0.00840005
3.35104e-08
0.0084002
7.96351e-08
0.00840017
1.92789e-07
0.00840095
4.65692e-07
0.00840112
1.10864e-06
0.00840443
2.72615e-06
0.00840829
6.40133e-06
1.60184e-05
0.00842299
0.00840003
1.02281e-15
0.00840003
6.73791e-15
0.00840003
2.38111e-14
0.00840003
6.62291e-14
0.00840003
1.75093e-13
0.00840003
4.2964e-13
0.00840003
1.08069e-12
0.00840003
2.54825e-12
0.00840003
6.38293e-12
0.00840003
1.48448e-11
0.00840003
3.71734e-11
0.00840003
8.63248e-11
0.00840003
2.14585e-10
0.00840003
5.03661e-10
0.00840003
1.23443e-09
0.00840004
2.93593e-09
0.00840004
7.08292e-09
0.00840007
1.71251e-08
0.00840007
4.05896e-08
0.0084002
9.94242e-08
0.00840034
2.32911e-07
0.00840081
5.74841e-07
0.00840234
1.3372e-06
0.00840366
3.31211e-06
7.72628e-06
0.00841536
0.00840003
5.41423e-16
0.00840003
3.64937e-15
0.00840003
1.16928e-14
0.00840003
3.50922e-14
0.00840003
8.71972e-14
0.00840003
2.26754e-13
0.00840003
5.36799e-13
0.00840003
1.34505e-12
0.00840003
3.1646e-12
0.00840003
7.80053e-12
0.00840003
1.84909e-11
0.00840003
4.48208e-11
0.00840003
1.07892e-10
0.00840003
2.56899e-10
0.00840003
6.26531e-10
0.00840003
1.47389e-09
0.00840004
3.63005e-09
0.00840004
8.4536e-09
0.00840005
2.09223e-08
0.00840013
4.86917e-08
0.00840013
1.19726e-07
0.00840065
2.81395e-07
0.00840059
6.82106e-07
0.00840363
1.62698e-06
3.88894e-06
0.00840359
0.00840003
2.59992e-16
0.00840003
1.65728e-15
0.00840003
6.14569e-15
0.00840003
1.69775e-14
0.00840003
4.54073e-14
0.00840003
1.12181e-13
0.00840003
2.76056e-13
0.00840003
6.7378e-13
0.00840003
1.6071e-12
0.00840003
3.93435e-12
0.00840003
9.26913e-12
0.00840003
2.28426e-11
0.00840003
5.3252e-11
0.00840003
1.31798e-10
0.00840003
3.07443e-10
0.00840003
7.54449e-10
0.00840003
1.77962e-09
0.00840003
4.3065e-09
0.00840005
1.02897e-08
0.00840005
2.45446e-08
0.00840015
5.94427e-08
0.0084002
1.39754e-07
0.00840057
3.43039e-07
0.00840129
7.96966e-07
1.97217e-06
0.00840246
0.00840003
8.79559e-17
0.00840003
6.11978e-16
0.00840003
2.82142e-15
0.00840003
8.34752e-15
0.00840003
2.25649e-14
0.00840003
5.51402e-14
0.00840003
1.39985e-13
0.00840003
3.27877e-13
0.00840003
8.21114e-13
0.00840003
1.91232e-12
0.00840003
4.72204e-12
0.00840003
1.10822e-11
0.00840003
2.70107e-11
0.00840003
6.42022e-11
0.00840003
1.53794e-10
0.00840003
3.71506e-10
0.00840003
8.76095e-10
0.00840003
2.1467e-09
0.00840004
4.98809e-09
0.00840004
1.23685e-08
0.00840009
2.85431e-08
0.0084001
7.08235e-08
0.0084004
1.6404e-07
0.00840035
4.04723e-07
9.4395e-07
0.00840227
0.00840003
3.52637e-17
0.00840003
5.3256e-16
0.00840003
1.57315e-15
0.00840003
4.25186e-15
0.00840003
1.09185e-14
0.00840003
2.79996e-14
0.00840003
6.64351e-14
0.00840003
1.6683e-13
0.00840003
3.88817e-13
0.00840003
9.64846e-13
0.00840003
2.25526e-12
0.00840003
5.52163e-12
0.00840003
1.30277e-11
0.00840003
3.15121e-11
0.00840003
7.52653e-11
0.00840003
1.79343e-10
0.00840003
4.34178e-10
0.00840003
1.02124e-09
0.00840003
2.49958e-09
0.00840004
5.82685e-09
0.00840004
1.43329e-08
0.00840011
3.33547e-08
0.0084001
8.20192e-08
0.00840049
1.91048e-07
4.68524e-07
0.00840046
0.00840003
7.0446e-17
0.00840003
2.56007e-16
0.00840003
6.61363e-16
0.00840003
2.23224e-15
0.00840003
5.45652e-15
0.00840003
1.3213e-14
0.00840003
3.27308e-14
0.00840003
7.74472e-14
0.00840003
1.91692e-13
0.00840003
4.50947e-13
0.00840003
1.10984e-12
0.00840003
2.59342e-12
0.00840003
6.37923e-12
0.00840003
1.48647e-11
0.00840003
3.65443e-11
0.00840003
8.52303e-11
0.00840003
2.08727e-10
0.00840003
4.89728e-10
0.00840003
1.18868e-09
0.00840004
2.81364e-09
0.00840004
6.76011e-09
0.00840006
1.61872e-08
0.00840009
3.83844e-08
0.00840017
9.29162e-08
2.1821e-07
0.00840045
0.00840003
1.1132e-16
0.00840003
2.18006e-16
0.00840003
4.75775e-16
0.00840003
9.94674e-16
0.00840003
2.38619e-15
0.00840003
5.98236e-15
0.00840003
1.5125e-14
0.00840003
3.57674e-14
0.00840003
8.86998e-14
0.00840003
2.09175e-13
0.00840003
5.08323e-13
0.00840003
1.21007e-12
0.00840003
2.89511e-12
0.00840003
6.9896e-12
0.00840003
1.64628e-11
0.00840003
4.02002e-11
0.00840003
9.36566e-11
0.00840003
2.30787e-10
0.00840003
5.33303e-10
0.00840003
1.31882e-09
0.00840004
3.04595e-09
0.00840004
7.50726e-09
0.00840007
1.74176e-08
0.00840008
4.25701e-08
9.97662e-08
0.00840028
0.00840003
1.86618e-16
0.00840003
4.13244e-16
0.00840003
6.95949e-16
0.00840003
9.15446e-16
0.00840003
1.72234e-15
0.00840003
3.04227e-15
0.00840003
6.16523e-15
0.00840003
1.51771e-14
0.00840003
3.37063e-14
0.00840003
8.28859e-14
0.00840003
1.94599e-13
0.00840003
4.7289e-13
0.00840003
1.12211e-12
0.00840003
2.69649e-12
0.00840003
6.4268e-12
0.00840003
1.53959e-11
0.00840003
3.67929e-11
0.00840003
8.75767e-11
0.00840003
2.1053e-10
0.00840003
4.98059e-10
0.00840003
1.20256e-09
0.00840004
2.82751e-09
0.00840004
6.84455e-09
0.00840008
1.60933e-08
3.87924e-08
0.00840009
0.00840003
0.00840003
0.00840003
0.00840003
0.00840003
0.00840003
0.00840003
0.00840003
0.00840003
0.00840003
0.00840003
0.00840003
0.00840003
0.00840003
0.00840003
0.00840003
0.00840003
0.00840003
0.00840003
0.00840003
0.00840003
0.00840004
0.00840004
0.00840006
0.00840007
0.00478826
0.00398088
0.00320023
0.00159145
0.00251915
0.000682263
0.00224921
0.000267655
0.0022309
1.51675e-05
0.00241655
-0.000190616
0.00262611
-0.000217466
0.00275062
-0.000132926
0.00279651
-5.43634e-05
0.00279385
-6.34104e-06
0.00276425
2.03616e-05
0.00274313
1.12823e-05
0.00273061
1.6283e-06
0.00272963
-9.41944e-06
0.00273318
-1.39789e-05
0.00273662
-1.37823e-05
0.00273883
-1.20702e-05
0.00273806
-9.17986e-06
0.0027353
-6.55081e-06
0.00273218
-5.77986e-06
0.00273049
-6.81574e-06
0.00273099
-8.48838e-06
0.00273356
-9.90311e-06
0.00273761
-1.07825e-05
0.00274253
-1.12957e-05
0.00274801
-1.16269e-05
0.00275396
-1.19086e-05
0.00276043
-1.21769e-05
0.00276748
-1.24201e-05
0.00277504
-1.26182e-05
0.0027829
-1.27618e-05
0.00279076
-1.28522e-05
0.00279833
-1.28966e-05
0.00280536
-1.29021e-05
0.00281165
-1.28738e-05
0.00281706
-1.28151e-05
0.00282155
-1.27307e-05
0.00282513
-1.26233e-05
0.00282781
-1.24986e-05
0.00282955
-1.23744e-05
0.00283052
-1.22361e-05
0.00283088
-1.20751e-05
0.00283042
-1.19477e-05
0.00282903
-1.18537e-05
0.00282707
-1.17214e-05
0.00282489
-1.15784e-05
0.00282269
-1.14571e-05
0.00282056
-1.14067e-05
0.00281862
-1.14665e-05
0.00281697
-1.21335e-05
0.00281717
-1.36878e-05
0.00281584
-1.86258e-05
0.00282006
-2.39691e-05
0.00283128
-3.30411e-05
0.00285342
-5.16333e-05
0.0028996
-9.19807e-05
0.00299858
-0.000180062
0.00322132
-0.000360322
0.00361978
-0.000655518
0.00415749
-0.000981165
0.00473009
-0.00114143
0.00523287
-0.00108264
0.00561304
-0.000807277
0.00589876
-0.000436774
0.00604637
-0.000193066
0.0061073
-4.04336e-05
0.00609799
4.59358e-05