/*--------------------------------*- C++ -*----------------------------------*\
  =========                 |
  \\      /  F ield         | OpenFOAM: The Open Source CFD Toolbox
   \\    /   O peration     | Website:  https://openfoam.org
    \\  /    A nd           | Version:  10
     \\/     M anipulation  |
\*---------------------------------------------------------------------------*/
FoamFile
{
    format      ascii;
    class       volScalarField;
    location    "0.6";
    object      Exp1;
}
// * * * * * * * * * * * * * * * * * * * * * * * * * * * * * * * * * * * * * //

dimensions      [0 0 0 0 0 0 0];

internalField   uniform 0;

boundaryField
{
    frontAndBack
    {
        type            empty;
    }
    inlet
    {
        type            calculated;
        value           uniform 0;
    }
    outlet
    {
        type            calculated;
        value           uniform 0;
    }
    substrate
    {
        type            calculated;
        value           nonuniform List<scalar> 
400
(
2.58877e-11
7.75255e-11
1.28843e-10
1.797e-10
2.29972e-10
2.79555e-10
3.28351e-10
3.7628e-10
4.23269e-10
4.69255e-10
5.14185e-10
5.58015e-10
6.00707e-10
6.42233e-10
6.8257e-10
7.21702e-10
7.5962e-10
7.96318e-10
8.31797e-10
8.66061e-10
8.99119e-10
9.3098e-10
9.61661e-10
9.91179e-10
1.01955e-09
1.0468e-09
1.07295e-09
1.09802e-09
1.12203e-09
1.14502e-09
1.167e-09
1.18801e-09
1.20807e-09
1.2272e-09
1.24544e-09
1.26281e-09
1.27932e-09
1.29502e-09
1.30992e-09
1.32404e-09
1.33742e-09
1.35007e-09
1.36202e-09
1.37328e-09
1.38388e-09
1.39385e-09
1.40318e-09
1.41192e-09
1.42007e-09
1.42766e-09
1.4347e-09
1.4412e-09
1.44719e-09
1.45268e-09
1.45768e-09
1.46221e-09
1.46628e-09
1.4699e-09
1.47309e-09
1.47586e-09
1.47822e-09
1.48018e-09
1.48175e-09
1.48295e-09
1.48378e-09
1.48426e-09
1.48439e-09
1.48418e-09
1.48364e-09
1.48278e-09
1.48161e-09
1.48013e-09
1.47836e-09
1.47629e-09
1.47395e-09
1.47133e-09
1.46844e-09
1.46528e-09
1.46188e-09
1.45822e-09
1.45432e-09
1.45019e-09
1.44582e-09
1.44123e-09
1.43641e-09
1.43139e-09
1.42615e-09
1.42071e-09
1.41507e-09
1.40924e-09
1.40322e-09
1.39702e-09
1.39064e-09
1.38408e-09
1.37735e-09
1.37046e-09
1.36341e-09
1.3562e-09
1.34884e-09
1.34133e-09
1.33368e-09
1.32589e-09
1.31797e-09
1.30991e-09
1.30173e-09
1.29343e-09
1.285e-09
1.27647e-09
1.26782e-09
1.25907e-09
1.25021e-09
1.24126e-09
1.23221e-09
1.22307e-09
1.21384e-09
1.20453e-09
1.19514e-09
1.18567e-09
1.17612e-09
1.16651e-09
1.15683e-09
1.14709e-09
1.13729e-09
1.12743e-09
1.11753e-09
1.10757e-09
1.09756e-09
1.08752e-09
1.07743e-09
1.06731e-09
1.05715e-09
1.04696e-09
1.03675e-09
1.02651e-09
1.01626e-09
1.00598e-09
9.95687e-10
9.85383e-10
9.7507e-10
9.64749e-10
9.54425e-10
9.44099e-10
9.33775e-10
9.23455e-10
9.13141e-10
9.02837e-10
8.92544e-10
8.82265e-10
8.72003e-10
8.61759e-10
8.51536e-10
8.41337e-10
8.31164e-10
8.21018e-10
8.10902e-10
8.00819e-10
7.90769e-10
7.80756e-10
7.7078e-10
7.60845e-10
7.50952e-10
7.41102e-10
7.31298e-10
7.21541e-10
7.11833e-10
7.02175e-10
6.9257e-10
6.83018e-10
6.73522e-10
6.64082e-10
6.547e-10
6.45378e-10
6.36117e-10
6.26918e-10
6.17782e-10
6.0871e-10
5.99705e-10
5.90766e-10
5.81895e-10
5.73093e-10
5.64361e-10
5.557e-10
5.4711e-10
5.38593e-10
5.3015e-10
5.21781e-10
5.13486e-10
5.05268e-10
4.97125e-10
4.8906e-10
4.81071e-10
4.73161e-10
4.6533e-10
4.57577e-10
4.49904e-10
4.42311e-10
4.34798e-10
4.27365e-10
4.20014e-10
4.12743e-10
4.05553e-10
3.98445e-10
3.91419e-10
3.84474e-10
3.77611e-10
3.7083e-10
3.64131e-10
3.57514e-10
3.50979e-10
3.44526e-10
3.38154e-10
3.31864e-10
3.25656e-10
3.19529e-10
3.13483e-10
3.07519e-10
3.01635e-10
2.95831e-10
2.90108e-10
2.84464e-10
2.78901e-10
2.73416e-10
2.68011e-10
2.62683e-10
2.57434e-10
2.52263e-10
2.47169e-10
2.42152e-10
2.37211e-10
2.32346e-10
2.27556e-10
2.22841e-10
2.182e-10
2.13633e-10
2.0914e-10
2.04719e-10
2.00369e-10
1.96092e-10
1.91885e-10
1.87748e-10
1.83681e-10
1.79683e-10
1.75753e-10
1.71891e-10
1.68096e-10
1.64367e-10
1.60704e-10
1.57106e-10
1.53572e-10
1.50101e-10
1.46694e-10
1.43348e-10
1.40064e-10
1.36841e-10
1.33678e-10
1.30575e-10
1.27529e-10
1.24542e-10
1.21612e-10
1.18738e-10
1.1592e-10
1.13157e-10
1.10449e-10
1.07793e-10
1.05191e-10
1.02641e-10
1.00142e-10
9.76932e-11
9.52947e-11
9.29454e-11
9.06445e-11
8.83913e-11
8.61852e-11
8.40254e-11
8.19112e-11
7.98418e-11
7.78167e-11
7.5835e-11
7.38962e-11
7.19994e-11
7.01441e-11
6.83295e-11
6.6555e-11
6.48199e-11
6.31235e-11
6.14652e-11
5.98443e-11
5.82601e-11
5.67121e-11
5.51995e-11
5.37218e-11
5.22783e-11
5.08685e-11
4.94916e-11
4.8147e-11
4.68343e-11
4.55527e-11
4.43018e-11
4.30808e-11
4.18893e-11
4.07267e-11
3.95924e-11
3.84858e-11
3.74064e-11
3.63538e-11
3.53272e-11
3.43263e-11
3.33504e-11
3.23992e-11
3.1472e-11
3.05684e-11
2.96879e-11
2.883e-11
2.79942e-11
2.71801e-11
2.63872e-11
2.56151e-11
2.48632e-11
2.41313e-11
2.34187e-11
2.27252e-11
2.20503e-11
2.13935e-11
2.07545e-11
2.01329e-11
1.95283e-11
1.89403e-11
1.83685e-11
1.78126e-11
1.72721e-11
1.67469e-11
1.62364e-11
1.57403e-11
1.52584e-11
1.47903e-11
1.43357e-11
1.38942e-11
1.34655e-11
1.30494e-11
1.26455e-11
1.22536e-11
1.18734e-11
1.15045e-11
1.11468e-11
1.07999e-11
1.04637e-11
1.01377e-11
9.8219e-12
9.51592e-12
9.21957e-12
8.9326e-12
8.65481e-12
8.38595e-12
8.12583e-12
7.87424e-12
7.63097e-12
7.39583e-12
7.16862e-12
6.94916e-12
6.73726e-12
6.53276e-12
6.33548e-12
6.14525e-12
5.96191e-12
5.78531e-12
5.6153e-12
5.45173e-12
5.29445e-12
5.14334e-12
4.99826e-12
4.85907e-12
4.72567e-12
4.59792e-12
4.47573e-12
4.35897e-12
4.24754e-12
4.14134e-12
4.04028e-12
3.94426e-12
3.8532e-12
3.76701e-12
3.68561e-12
3.60893e-12
3.53689e-12
3.46944e-12
3.4065e-12
3.34802e-12
3.29394e-12
3.24422e-12
3.1988e-12
3.15765e-12
3.12071e-12
3.08797e-12
3.05939e-12
3.03494e-12
3.0146e-12
2.99835e-12
2.98617e-12
2.97806e-12
2.97401e-12
)
;
    }
    Wall
    {
        type            calculated;
        value           nonuniform List<scalar> 
400
(
2.58878e-11
7.75261e-11
1.28845e-10
1.79702e-10
2.29975e-10
2.79557e-10
3.28354e-10
3.76283e-10
4.23271e-10
4.69256e-10
5.14186e-10
5.58014e-10
6.00706e-10
6.4223e-10
6.82566e-10
7.21698e-10
7.59614e-10
7.96312e-10
8.3179e-10
8.66053e-10
8.99109e-10
9.3097e-10
9.61649e-10
9.91165e-10
1.01954e-09
1.04678e-09
1.07293e-09
1.098e-09
1.12201e-09
1.145e-09
1.16698e-09
1.18799e-09
1.20805e-09
1.22718e-09
1.24542e-09
1.26278e-09
1.2793e-09
1.29499e-09
1.30989e-09
1.32402e-09
1.33739e-09
1.35004e-09
1.36199e-09
1.37325e-09
1.38385e-09
1.39381e-09
1.40315e-09
1.41189e-09
1.42004e-09
1.42763e-09
1.43467e-09
1.44117e-09
1.44716e-09
1.45265e-09
1.45765e-09
1.46217e-09
1.46624e-09
1.46986e-09
1.47305e-09
1.47582e-09
1.47818e-09
1.48014e-09
1.48172e-09
1.48292e-09
1.48375e-09
1.48422e-09
1.48435e-09
1.48414e-09
1.4836e-09
1.48274e-09
1.48157e-09
1.48009e-09
1.47832e-09
1.47625e-09
1.47391e-09
1.47129e-09
1.4684e-09
1.46525e-09
1.46184e-09
1.45818e-09
1.45428e-09
1.45015e-09
1.44578e-09
1.44119e-09
1.43638e-09
1.43135e-09
1.42611e-09
1.42067e-09
1.41504e-09
1.40921e-09
1.40318e-09
1.39698e-09
1.3906e-09
1.38404e-09
1.37731e-09
1.37042e-09
1.36337e-09
1.35616e-09
1.3488e-09
1.34129e-09
1.33364e-09
1.32585e-09
1.31793e-09
1.30987e-09
1.30169e-09
1.29339e-09
1.28497e-09
1.27643e-09
1.26779e-09
1.25903e-09
1.25018e-09
1.24123e-09
1.23218e-09
1.22304e-09
1.21381e-09
1.20449e-09
1.1951e-09
1.18563e-09
1.17609e-09
1.16648e-09
1.1568e-09
1.14706e-09
1.13726e-09
1.1274e-09
1.11749e-09
1.10754e-09
1.09753e-09
1.08748e-09
1.0774e-09
1.06728e-09
1.05712e-09
1.04693e-09
1.03672e-09
1.02648e-09
1.01623e-09
1.00595e-09
9.95658e-10
9.85355e-10
9.75041e-10
9.64721e-10
9.54397e-10
9.44072e-10
9.33748e-10
9.23428e-10
9.13115e-10
9.02811e-10
8.92518e-10
8.82239e-10
8.71977e-10
8.61734e-10
8.51512e-10
8.41313e-10
8.31139e-10
8.20994e-10
8.10879e-10
8.00795e-10
7.90746e-10
7.80733e-10
7.70758e-10
7.60823e-10
7.5093e-10
7.4108e-10
7.31276e-10
7.2152e-10
7.11812e-10
7.02155e-10
6.92549e-10
6.82998e-10
6.73502e-10
6.64062e-10
6.54681e-10
6.45359e-10
6.36098e-10
6.26899e-10
6.17764e-10
6.08692e-10
5.99687e-10
5.90749e-10
5.81878e-10
5.73076e-10
5.64344e-10
5.55683e-10
5.47094e-10
5.38577e-10
5.30134e-10
5.21765e-10
5.13471e-10
5.05253e-10
4.9711e-10
4.89045e-10
4.81057e-10
4.73147e-10
4.65316e-10
4.57564e-10
4.49891e-10
4.42298e-10
4.34785e-10
4.27353e-10
4.20001e-10
4.1273e-10
4.05541e-10
3.98433e-10
3.91407e-10
3.84463e-10
3.776e-10
3.70819e-10
3.6412e-10
3.57504e-10
3.50969e-10
3.44515e-10
3.38144e-10
3.31854e-10
3.25646e-10
3.1952e-10
3.13474e-10
3.07509e-10
3.01626e-10
2.95822e-10
2.90099e-10
2.84456e-10
2.78892e-10
2.73408e-10
2.68003e-10
2.62676e-10
2.57427e-10
2.52256e-10
2.47162e-10
2.42145e-10
2.37204e-10
2.32339e-10
2.27549e-10
2.22834e-10
2.18194e-10
2.13627e-10
2.09133e-10
2.04712e-10
2.00364e-10
1.96086e-10
1.91879e-10
1.87743e-10
1.83676e-10
1.79678e-10
1.75748e-10
1.71886e-10
1.68091e-10
1.64362e-10
1.60699e-10
1.57101e-10
1.53567e-10
1.50097e-10
1.46689e-10
1.43344e-10
1.4006e-10
1.36837e-10
1.33674e-10
1.30571e-10
1.27526e-10
1.24538e-10
1.21608e-10
1.18735e-10
1.15917e-10
1.13154e-10
1.10445e-10
1.0779e-10
1.05188e-10
1.02638e-10
1.00139e-10
9.76904e-11
9.52919e-11
9.29427e-11
9.06419e-11
8.83888e-11
8.61827e-11
8.40229e-11
8.19088e-11
7.98395e-11
7.78144e-11
7.58328e-11
7.3894e-11
7.19973e-11
7.01421e-11
6.83275e-11
6.65531e-11
6.4818e-11
6.31217e-11
6.14634e-11
5.98425e-11
5.82584e-11
5.67104e-11
5.51979e-11
5.37203e-11
5.22768e-11
5.0867e-11
4.94901e-11
4.81457e-11
4.6833e-11
4.55514e-11
4.43005e-11
4.30796e-11
4.18881e-11
4.07255e-11
3.95912e-11
3.84847e-11
3.74054e-11
3.63527e-11
3.53262e-11
3.43253e-11
3.33495e-11
3.23983e-11
3.14711e-11
3.05675e-11
2.9687e-11
2.88292e-11
2.79934e-11
2.71794e-11
2.63865e-11
2.56144e-11
2.48625e-11
2.41306e-11
2.34181e-11
2.27246e-11
2.20496e-11
2.13929e-11
2.07539e-11
2.01323e-11
1.95277e-11
1.89397e-11
1.8368e-11
1.78121e-11
1.72717e-11
1.67464e-11
1.62359e-11
1.57399e-11
1.5258e-11
1.47899e-11
1.43353e-11
1.38938e-11
1.34651e-11
1.3049e-11
1.26452e-11
1.22533e-11
1.18731e-11
1.15042e-11
1.11465e-11
1.07996e-11
1.04634e-11
1.01375e-11
9.82164e-12
9.51567e-12
9.21933e-12
8.93237e-12
8.65458e-12
8.38574e-12
8.12563e-12
7.87404e-12
7.63078e-12
7.39564e-12
7.16844e-12
6.94898e-12
6.73709e-12
6.5326e-12
6.33532e-12
6.1451e-12
5.96177e-12
5.78517e-12
5.61516e-12
5.4516e-12
5.29433e-12
5.14322e-12
4.99814e-12
4.85896e-12
4.72556e-12
4.59782e-12
4.47562e-12
4.35887e-12
4.24744e-12
4.14125e-12
4.04019e-12
3.94418e-12
3.85312e-12
3.76693e-12
3.68553e-12
3.60885e-12
3.53682e-12
3.46937e-12
3.40643e-12
3.34795e-12
3.29388e-12
3.24415e-12
3.19874e-12
3.15758e-12
3.12065e-12
3.08791e-12
3.05932e-12
3.03487e-12
3.01453e-12
2.99827e-12
2.9861e-12
2.97801e-12
2.97398e-12
)
;
    }
}


// ************************************************************************* //
