/*--------------------------------*- C++ -*----------------------------------*\
  =========                 |
  \\      /  F ield         | OpenFOAM: The Open Source CFD Toolbox
   \\    /   O peration     | Website:  https://openfoam.org
    \\  /    A nd           | Version:  10
     \\/     M anipulation  |
\*---------------------------------------------------------------------------*/
FoamFile
{
    format      ascii;
    class       volScalarField;
    location    "0.6";
    object      N1;
}
// * * * * * * * * * * * * * * * * * * * * * * * * * * * * * * * * * * * * * //

dimensions      [0 0 0 0 0 0 0];

internalField   nonuniform List<scalar> 
8000
(
1.96512e-10
5.88726e-10
9.78801e-10
1.36565e-09
1.74833e-09
2.12602e-09
2.498e-09
2.86363e-09
3.22234e-09
3.57365e-09
3.91715e-09
4.25247e-09
4.57932e-09
4.89748e-09
5.20674e-09
5.50698e-09
5.79809e-09
6.08004e-09
6.3528e-09
6.61639e-09
6.87086e-09
7.11627e-09
7.35274e-09
7.58036e-09
7.79929e-09
8.00965e-09
8.21162e-09
8.40536e-09
8.59106e-09
8.76889e-09
8.93904e-09
9.10171e-09
9.2571e-09
9.40538e-09
9.54677e-09
9.68145e-09
9.80961e-09
9.93144e-09
1.00471e-08
1.01569e-08
1.02608e-08
1.03591e-08
1.0452e-08
1.05397e-08
1.06222e-08
1.06997e-08
1.07725e-08
1.08405e-08
1.09041e-08
1.09633e-08
1.10182e-08
1.1069e-08
1.11158e-08
1.11587e-08
1.11978e-08
1.12333e-08
1.12652e-08
1.12937e-08
1.13188e-08
1.13406e-08
1.13593e-08
1.13748e-08
1.13874e-08
1.13971e-08
1.14039e-08
1.1408e-08
1.14094e-08
1.14081e-08
1.14043e-08
1.13981e-08
1.13894e-08
1.13783e-08
1.13649e-08
1.13493e-08
1.13316e-08
1.13116e-08
1.12896e-08
1.12656e-08
1.12396e-08
1.12117e-08
1.11819e-08
1.11503e-08
1.11169e-08
1.10817e-08
1.10448e-08
1.10063e-08
1.09662e-08
1.09245e-08
1.08812e-08
1.08365e-08
1.07903e-08
1.07427e-08
1.06937e-08
1.06433e-08
1.05917e-08
1.05387e-08
1.04846e-08
1.04292e-08
1.03727e-08
1.0315e-08
1.02562e-08
1.01964e-08
1.01355e-08
1.00736e-08
1.00107e-08
9.94688e-09
9.88215e-09
9.81654e-09
9.75008e-09
9.6828e-09
9.61472e-09
9.54589e-09
9.47632e-09
9.40604e-09
9.33509e-09
9.2635e-09
9.19128e-09
9.11847e-09
9.0451e-09
8.97119e-09
8.89677e-09
8.82187e-09
8.74651e-09
8.67072e-09
8.59452e-09
8.51795e-09
8.44102e-09
8.36376e-09
8.28619e-09
8.20835e-09
8.13025e-09
8.05192e-09
7.97338e-09
7.89465e-09
7.81576e-09
7.73674e-09
7.65759e-09
7.57835e-09
7.49903e-09
7.41967e-09
7.34027e-09
7.26086e-09
7.18146e-09
7.1021e-09
7.02278e-09
6.94353e-09
6.86437e-09
6.78532e-09
6.7064e-09
6.62762e-09
6.549e-09
6.47056e-09
6.39232e-09
6.3143e-09
6.2365e-09
6.15895e-09
6.08166e-09
6.00465e-09
5.92794e-09
5.85153e-09
5.77544e-09
5.69969e-09
5.62429e-09
5.54925e-09
5.47458e-09
5.40031e-09
5.32644e-09
5.25298e-09
5.17994e-09
5.10734e-09
5.03519e-09
4.9635e-09
4.89227e-09
4.82152e-09
4.75126e-09
4.68149e-09
4.61223e-09
4.54349e-09
4.47526e-09
4.40757e-09
4.34041e-09
4.2738e-09
4.20774e-09
4.14224e-09
4.0773e-09
4.01293e-09
3.94914e-09
3.88593e-09
3.82331e-09
3.76128e-09
3.69985e-09
3.63901e-09
3.57878e-09
3.51916e-09
3.46014e-09
3.40175e-09
3.34396e-09
3.2868e-09
3.23026e-09
3.17434e-09
3.11905e-09
3.06438e-09
3.01034e-09
2.95693e-09
2.90415e-09
2.852e-09
2.80048e-09
2.74959e-09
2.69933e-09
2.64969e-09
2.60069e-09
2.55232e-09
2.50457e-09
2.45745e-09
2.41095e-09
2.36508e-09
2.31983e-09
2.27519e-09
2.23117e-09
2.18777e-09
2.14498e-09
2.1028e-09
2.06123e-09
2.02026e-09
1.97989e-09
1.94012e-09
1.90094e-09
1.86235e-09
1.82435e-09
1.78694e-09
1.7501e-09
1.71384e-09
1.67815e-09
1.64302e-09
1.60846e-09
1.57446e-09
1.54101e-09
1.50811e-09
1.47576e-09
1.44394e-09
1.41266e-09
1.38192e-09
1.35169e-09
1.32199e-09
1.2928e-09
1.26412e-09
1.23595e-09
1.20828e-09
1.1811e-09
1.15441e-09
1.1282e-09
1.10247e-09
1.07721e-09
1.05243e-09
1.0281e-09
1.00423e-09
9.80809e-10
9.57835e-10
9.353e-10
9.13199e-10
8.91526e-10
8.70276e-10
8.49444e-10
8.29023e-10
8.09008e-10
7.89394e-10
7.70174e-10
7.51344e-10
7.32897e-10
7.14829e-10
6.97133e-10
6.79804e-10
6.62837e-10
6.46227e-10
6.29966e-10
6.14051e-10
5.98476e-10
5.83236e-10
5.68324e-10
5.53737e-10
5.39468e-10
5.25512e-10
5.11864e-10
4.9852e-10
4.85473e-10
4.72719e-10
4.60253e-10
4.4807e-10
4.36164e-10
4.24531e-10
4.13166e-10
4.02065e-10
3.91222e-10
3.80632e-10
3.70292e-10
3.60196e-10
3.50339e-10
3.40718e-10
3.31328e-10
3.22164e-10
3.13223e-10
3.04499e-10
2.95988e-10
2.87687e-10
2.79591e-10
2.71696e-10
2.63998e-10
2.56493e-10
2.49177e-10
2.42046e-10
2.35097e-10
2.28325e-10
2.21727e-10
2.15299e-10
2.09038e-10
2.0294e-10
1.97002e-10
1.91219e-10
1.8559e-10
1.8011e-10
1.74776e-10
1.69585e-10
1.64534e-10
1.5962e-10
1.54839e-10
1.50189e-10
1.45667e-10
1.41269e-10
1.36994e-10
1.32837e-10
1.28798e-10
1.24871e-10
1.21057e-10
1.1735e-10
1.1375e-10
1.10253e-10
1.06858e-10
1.03561e-10
1.00361e-10
9.72548e-11
9.42407e-11
9.13163e-11
8.84795e-11
8.57283e-11
8.30606e-11
8.04744e-11
7.79677e-11
7.55387e-11
7.31855e-11
7.09063e-11
6.86993e-11
6.65628e-11
6.44951e-11
6.24946e-11
6.05596e-11
5.86886e-11
5.68802e-11
5.51328e-11
5.34449e-11
5.18153e-11
5.02425e-11
4.87252e-11
4.72622e-11
4.58522e-11
4.4494e-11
4.31864e-11
4.19284e-11
4.07188e-11
3.95566e-11
3.84408e-11
3.73704e-11
3.63444e-11
3.53619e-11
3.44221e-11
3.35242e-11
3.26672e-11
3.18504e-11
3.10732e-11
3.03347e-11
2.96344e-11
2.89715e-11
2.83455e-11
2.77557e-11
2.72017e-11
2.66829e-11
2.61989e-11
2.57491e-11
2.53332e-11
2.49508e-11
2.46015e-11
2.4285e-11
2.40009e-11
2.37491e-11
2.35293e-11
2.33413e-11
2.31848e-11
2.30598e-11
2.29662e-11
2.29038e-11
2.28727e-11
1.98523e-10
5.94934e-10
9.89536e-10
1.38129e-09
1.76925e-09
2.15261e-09
2.53062e-09
2.90263e-09
3.26806e-09
3.62639e-09
3.97718e-09
4.32006e-09
4.65469e-09
4.98082e-09
5.29822e-09
5.60673e-09
5.90622e-09
6.19663e-09
6.47789e-09
6.75e-09
7.01299e-09
7.26689e-09
7.51179e-09
7.74777e-09
7.97495e-09
8.19347e-09
8.40346e-09
8.60507e-09
8.79848e-09
8.98385e-09
9.16136e-09
9.3312e-09
9.49356e-09
9.64861e-09
9.79655e-09
9.93757e-09
1.00719e-08
1.01996e-08
1.0321e-08
1.04362e-08
1.05454e-08
1.06488e-08
1.07465e-08
1.08387e-08
1.09256e-08
1.10073e-08
1.10841e-08
1.11559e-08
1.12231e-08
1.12856e-08
1.13437e-08
1.13976e-08
1.14472e-08
1.14927e-08
1.15344e-08
1.15721e-08
1.16062e-08
1.16367e-08
1.16636e-08
1.16871e-08
1.17073e-08
1.17243e-08
1.17382e-08
1.1749e-08
1.17568e-08
1.17617e-08
1.17639e-08
1.17632e-08
1.176e-08
1.17541e-08
1.17457e-08
1.17348e-08
1.17216e-08
1.17059e-08
1.16881e-08
1.16679e-08
1.16457e-08
1.16213e-08
1.15948e-08
1.15664e-08
1.15359e-08
1.15036e-08
1.14694e-08
1.14334e-08
1.13956e-08
1.13561e-08
1.13149e-08
1.12721e-08
1.12277e-08
1.11817e-08
1.11342e-08
1.10853e-08
1.10349e-08
1.09831e-08
1.09299e-08
1.08754e-08
1.08196e-08
1.07626e-08
1.07044e-08
1.0645e-08
1.05844e-08
1.05227e-08
1.046e-08
1.03962e-08
1.03313e-08
1.02656e-08
1.01988e-08
1.01312e-08
1.00626e-08
9.99325e-09
9.92304e-09
9.85205e-09
9.78029e-09
9.70781e-09
9.63462e-09
9.56076e-09
9.48626e-09
9.41115e-09
9.33546e-09
9.2592e-09
9.18242e-09
9.10514e-09
9.02738e-09
8.94918e-09
8.87056e-09
8.79154e-09
8.71216e-09
8.63244e-09
8.5524e-09
8.47207e-09
8.39148e-09
8.31064e-09
8.22959e-09
8.14834e-09
8.06693e-09
7.98537e-09
7.90369e-09
7.82192e-09
7.74006e-09
7.65815e-09
7.57621e-09
7.49425e-09
7.41231e-09
7.3304e-09
7.24854e-09
7.16675e-09
7.08505e-09
7.00346e-09
6.922e-09
6.8407e-09
6.75955e-09
6.6786e-09
6.59785e-09
6.51731e-09
6.43702e-09
6.35698e-09
6.27721e-09
6.19772e-09
6.11854e-09
6.03968e-09
5.96114e-09
5.88296e-09
5.80513e-09
5.72768e-09
5.65062e-09
5.57396e-09
5.49771e-09
5.42189e-09
5.34651e-09
5.27158e-09
5.19711e-09
5.12311e-09
5.04959e-09
4.97657e-09
4.90405e-09
4.83204e-09
4.76055e-09
4.6896e-09
4.61918e-09
4.54931e-09
4.47999e-09
4.41124e-09
4.34305e-09
4.27544e-09
4.20842e-09
4.14198e-09
4.07614e-09
4.0109e-09
3.94626e-09
3.88224e-09
3.81883e-09
3.75604e-09
3.69387e-09
3.63233e-09
3.57142e-09
3.51114e-09
3.4515e-09
3.3925e-09
3.33414e-09
3.27642e-09
3.21935e-09
3.16293e-09
3.10715e-09
3.05202e-09
2.99755e-09
2.94372e-09
2.89054e-09
2.83801e-09
2.78613e-09
2.73491e-09
2.68433e-09
2.6344e-09
2.58512e-09
2.53648e-09
2.48849e-09
2.44114e-09
2.39443e-09
2.34836e-09
2.30293e-09
2.25813e-09
2.21396e-09
2.17043e-09
2.12752e-09
2.08523e-09
2.04356e-09
2.00251e-09
1.96207e-09
1.92224e-09
1.88302e-09
1.8444e-09
1.80638e-09
1.76895e-09
1.73211e-09
1.69586e-09
1.66019e-09
1.62509e-09
1.59057e-09
1.55661e-09
1.52322e-09
1.49038e-09
1.4581e-09
1.42636e-09
1.39516e-09
1.3645e-09
1.33438e-09
1.30478e-09
1.2757e-09
1.24713e-09
1.21908e-09
1.19153e-09
1.16448e-09
1.13793e-09
1.11186e-09
1.08627e-09
1.06116e-09
1.03652e-09
1.01235e-09
9.88638e-10
9.65378e-10
9.42567e-10
9.20197e-10
8.98264e-10
8.76762e-10
8.55684e-10
8.35025e-10
8.1478e-10
7.94943e-10
7.75507e-10
7.56467e-10
7.37817e-10
7.19553e-10
7.01667e-10
6.84154e-10
6.67009e-10
6.50226e-10
6.33799e-10
6.17723e-10
6.01992e-10
5.86601e-10
5.71545e-10
5.56817e-10
5.42412e-10
5.28326e-10
5.14552e-10
5.01086e-10
4.87922e-10
4.75055e-10
4.62479e-10
4.50191e-10
4.38184e-10
4.26454e-10
4.14995e-10
4.03803e-10
3.92873e-10
3.822e-10
3.71779e-10
3.61606e-10
3.51676e-10
3.41984e-10
3.32525e-10
3.23296e-10
3.14291e-10
3.05507e-10
2.96939e-10
2.88583e-10
2.80434e-10
2.72488e-10
2.64742e-10
2.57191e-10
2.4983e-10
2.42657e-10
2.35668e-10
2.28858e-10
2.22223e-10
2.15761e-10
2.09467e-10
2.03337e-10
1.97369e-10
1.91558e-10
1.85902e-10
1.80397e-10
1.75039e-10
1.69825e-10
1.64753e-10
1.59819e-10
1.55019e-10
1.50351e-10
1.45812e-10
1.41399e-10
1.37109e-10
1.3294e-10
1.28887e-10
1.2495e-10
1.21124e-10
1.17408e-10
1.13799e-10
1.10294e-10
1.06892e-10
1.03588e-10
1.00382e-10
9.72714e-11
9.4253e-11
9.1325e-11
8.84853e-11
8.57318e-11
8.30624e-11
8.04751e-11
7.7968e-11
7.55391e-11
7.31866e-11
7.09086e-11
6.87034e-11
6.65692e-11
6.45043e-11
6.25072e-11
6.0576e-11
5.87094e-11
5.69058e-11
5.51637e-11
5.34816e-11
5.18582e-11
5.02922e-11
4.87821e-11
4.73267e-11
4.59249e-11
4.45753e-11
4.32768e-11
4.20283e-11
4.08288e-11
3.96771e-11
3.85722e-11
3.75132e-11
3.64992e-11
3.55291e-11
3.46023e-11
3.37177e-11
3.28747e-11
3.20725e-11
3.13103e-11
3.05874e-11
2.99032e-11
2.9257e-11
2.86483e-11
2.80765e-11
2.7541e-11
2.70414e-11
2.65772e-11
2.61479e-11
2.57532e-11
2.53927e-11
2.5066e-11
2.47728e-11
2.45129e-11
2.4286e-11
2.40919e-11
2.39304e-11
2.38014e-11
2.37048e-11
2.36404e-11
2.36082e-11
2.00493e-10
6.00933e-10
9.99772e-10
1.39602e-09
1.78879e-09
2.17725e-09
2.56068e-09
2.93839e-09
3.3098e-09
3.67439e-09
4.03167e-09
4.38126e-09
4.72281e-09
5.05602e-09
5.38065e-09
5.69652e-09
6.00346e-09
6.30138e-09
6.59021e-09
6.8699e-09
7.14047e-09
7.40193e-09
7.65434e-09
7.89778e-09
8.13233e-09
8.35811e-09
8.57525e-09
8.78389e-09
8.98419e-09
9.1763e-09
9.3604e-09
9.53665e-09
9.70524e-09
9.86635e-09
1.00202e-08
1.01669e-08
1.03067e-08
1.04397e-08
1.05662e-08
1.06863e-08
1.08002e-08
1.09081e-08
1.10102e-08
1.11065e-08
1.11974e-08
1.12829e-08
1.13632e-08
1.14384e-08
1.15088e-08
1.15744e-08
1.16354e-08
1.16919e-08
1.17441e-08
1.17921e-08
1.18359e-08
1.18758e-08
1.19118e-08
1.19441e-08
1.19727e-08
1.19977e-08
1.20193e-08
1.20376e-08
1.20526e-08
1.20644e-08
1.20731e-08
1.20789e-08
1.20817e-08
1.20816e-08
1.20788e-08
1.20733e-08
1.20652e-08
1.20545e-08
1.20413e-08
1.20257e-08
1.20077e-08
1.19874e-08
1.19649e-08
1.19402e-08
1.19133e-08
1.18844e-08
1.18534e-08
1.18205e-08
1.17856e-08
1.17488e-08
1.17102e-08
1.16698e-08
1.16277e-08
1.15839e-08
1.15384e-08
1.14913e-08
1.14427e-08
1.13925e-08
1.13409e-08
1.12878e-08
1.12332e-08
1.11774e-08
1.11201e-08
1.10616e-08
1.10019e-08
1.09409e-08
1.08787e-08
1.08154e-08
1.0751e-08
1.06855e-08
1.06189e-08
1.05514e-08
1.04829e-08
1.04134e-08
1.0343e-08
1.02717e-08
1.01996e-08
1.01267e-08
1.0053e-08
9.97848e-09
9.90329e-09
9.82741e-09
9.75086e-09
9.67368e-09
9.5959e-09
9.51755e-09
9.43865e-09
9.35923e-09
9.27933e-09
9.19896e-09
9.11816e-09
9.03696e-09
8.95538e-09
8.87345e-09
8.79119e-09
8.70863e-09
8.62579e-09
8.54271e-09
8.45941e-09
8.37591e-09
8.29223e-09
8.2084e-09
8.12445e-09
8.0404e-09
7.95626e-09
7.87207e-09
7.78785e-09
7.70361e-09
7.61938e-09
7.53519e-09
7.45104e-09
7.36697e-09
7.283e-09
7.19913e-09
7.1154e-09
7.03183e-09
6.94842e-09
6.86521e-09
6.7822e-09
6.69942e-09
6.61688e-09
6.53461e-09
6.45261e-09
6.37091e-09
6.28952e-09
6.20845e-09
6.12773e-09
6.04736e-09
5.96736e-09
5.88775e-09
5.80853e-09
5.72973e-09
5.65135e-09
5.57341e-09
5.49593e-09
5.4189e-09
5.34235e-09
5.26628e-09
5.19071e-09
5.11565e-09
5.0411e-09
4.96708e-09
4.8936e-09
4.82066e-09
4.74827e-09
4.67645e-09
4.6052e-09
4.53452e-09
4.46443e-09
4.39493e-09
4.32604e-09
4.25774e-09
4.19006e-09
4.123e-09
4.05656e-09
3.99074e-09
3.92556e-09
3.86101e-09
3.79711e-09
3.73385e-09
3.67123e-09
3.60927e-09
3.54797e-09
3.48732e-09
3.42733e-09
3.368e-09
3.30933e-09
3.25133e-09
3.19399e-09
3.13732e-09
3.08132e-09
3.02599e-09
2.97133e-09
2.91733e-09
2.864e-09
2.81135e-09
2.75935e-09
2.70803e-09
2.65737e-09
2.60737e-09
2.55804e-09
2.50937e-09
2.46135e-09
2.414e-09
2.36729e-09
2.32124e-09
2.27584e-09
2.23109e-09
2.18698e-09
2.14351e-09
2.10068e-09
2.05848e-09
2.01691e-09
1.97597e-09
1.93565e-09
1.89595e-09
1.85687e-09
1.81839e-09
1.78053e-09
1.74326e-09
1.70659e-09
1.67051e-09
1.63502e-09
1.60012e-09
1.56579e-09
1.53204e-09
1.49885e-09
1.46622e-09
1.43416e-09
1.40264e-09
1.37167e-09
1.34124e-09
1.31135e-09
1.28199e-09
1.25315e-09
1.22483e-09
1.19703e-09
1.16973e-09
1.14293e-09
1.11663e-09
1.09082e-09
1.06549e-09
1.04065e-09
1.01627e-09
9.9236e-10
9.68911e-10
9.45916e-10
9.2337e-10
9.01267e-10
8.796e-10
8.58364e-10
8.37553e-10
8.17161e-10
7.97182e-10
7.7761e-10
7.58439e-10
7.39664e-10
7.21278e-10
7.03276e-10
6.85651e-10
6.68399e-10
6.51513e-10
6.34988e-10
6.18818e-10
6.02996e-10
5.87519e-10
5.72379e-10
5.57572e-10
5.43092e-10
5.28934e-10
5.15091e-10
5.01559e-10
4.88332e-10
4.75405e-10
4.62773e-10
4.50431e-10
4.38373e-10
4.26594e-10
4.15089e-10
4.03854e-10
3.92882e-10
3.8217e-10
3.71713e-10
3.61505e-10
3.51542e-10
3.41819e-10
3.32332e-10
3.23076e-10
3.14046e-10
3.05239e-10
2.96649e-10
2.88272e-10
2.80104e-10
2.72141e-10
2.64379e-10
2.56813e-10
2.4944e-10
2.42255e-10
2.35254e-10
2.28434e-10
2.21791e-10
2.15321e-10
2.0902e-10
2.02885e-10
1.96912e-10
1.91098e-10
1.85439e-10
1.79931e-10
1.74572e-10
1.69358e-10
1.64285e-10
1.59352e-10
1.54554e-10
1.49888e-10
1.45351e-10
1.40942e-10
1.36655e-10
1.3249e-10
1.28442e-10
1.2451e-10
1.2069e-10
1.1698e-10
1.13377e-10
1.09879e-10
1.06484e-10
1.03188e-10
9.99901e-11
9.68873e-11
9.38775e-11
9.09584e-11
8.81279e-11
8.5384e-11
8.27244e-11
8.01472e-11
7.76504e-11
7.52322e-11
7.28905e-11
7.06237e-11
6.84298e-11
6.63072e-11
6.42542e-11
6.22691e-11
6.03503e-11
5.84963e-11
5.67055e-11
5.49764e-11
5.33077e-11
5.16978e-11
5.01456e-11
4.86495e-11
4.72085e-11
4.58212e-11
4.44864e-11
4.3203e-11
4.19699e-11
4.0786e-11
3.96503e-11
3.85617e-11
3.75193e-11
3.65222e-11
3.55694e-11
3.46601e-11
3.37936e-11
3.29689e-11
3.21854e-11
3.14423e-11
3.0739e-11
3.00748e-11
2.9449e-11
2.88612e-11
2.83108e-11
2.77972e-11
2.732e-11
2.68788e-11
2.6473e-11
2.61024e-11
2.57665e-11
2.54652e-11
2.5198e-11
2.49648e-11
2.47652e-11
2.45992e-11
2.44666e-11
2.43673e-11
2.43012e-11
2.42681e-11
2.02337e-10
6.06517e-10
1.00923e-09
1.40955e-09
1.80661e-09
2.1996e-09
2.58781e-09
2.97054e-09
3.34722e-09
3.71729e-09
4.08027e-09
4.43574e-09
4.78334e-09
5.12275e-09
5.45372e-09
5.77602e-09
6.08948e-09
6.39398e-09
6.68943e-09
6.97577e-09
7.25299e-09
7.52107e-09
7.78007e-09
8.03004e-09
8.27106e-09
8.50322e-09
8.72665e-09
8.94147e-09
9.14782e-09
9.34586e-09
9.53574e-09
9.71764e-09
9.89172e-09
1.00582e-08
1.02172e-08
1.03689e-08
1.05135e-08
1.06512e-08
1.07822e-08
1.09067e-08
1.10247e-08
1.11366e-08
1.12425e-08
1.13425e-08
1.14369e-08
1.15257e-08
1.16092e-08
1.16874e-08
1.17606e-08
1.1829e-08
1.18925e-08
1.19514e-08
1.20059e-08
1.2056e-08
1.21018e-08
1.21435e-08
1.21812e-08
1.22151e-08
1.22452e-08
1.22716e-08
1.22944e-08
1.23138e-08
1.23298e-08
1.23425e-08
1.23521e-08
1.23585e-08
1.23619e-08
1.23624e-08
1.236e-08
1.23549e-08
1.2347e-08
1.23364e-08
1.23233e-08
1.23077e-08
1.22897e-08
1.22693e-08
1.22465e-08
1.22215e-08
1.21943e-08
1.21649e-08
1.21335e-08
1.21e-08
1.20645e-08
1.20271e-08
1.19877e-08
1.19466e-08
1.19036e-08
1.18589e-08
1.18126e-08
1.17645e-08
1.17148e-08
1.16636e-08
1.16108e-08
1.15566e-08
1.15009e-08
1.14437e-08
1.13853e-08
1.13255e-08
1.12644e-08
1.1202e-08
1.11384e-08
1.10737e-08
1.10078e-08
1.09408e-08
1.08727e-08
1.08036e-08
1.07334e-08
1.06624e-08
1.05903e-08
1.05174e-08
1.04436e-08
1.0369e-08
1.02935e-08
1.02173e-08
1.01403e-08
1.00627e-08
9.98431e-09
9.90531e-09
9.82569e-09
9.74548e-09
9.66472e-09
9.58342e-09
9.50162e-09
9.41934e-09
9.33663e-09
9.25349e-09
9.16997e-09
9.08609e-09
9.00187e-09
8.91734e-09
8.83254e-09
8.74747e-09
8.66218e-09
8.57669e-09
8.49101e-09
8.40518e-09
8.31923e-09
8.23316e-09
8.14702e-09
8.06082e-09
7.97458e-09
7.88832e-09
7.80208e-09
7.71587e-09
7.62972e-09
7.54363e-09
7.45765e-09
7.37178e-09
7.28604e-09
7.20046e-09
7.11506e-09
7.02985e-09
6.94486e-09
6.8601e-09
6.77558e-09
6.69134e-09
6.60737e-09
6.52371e-09
6.44037e-09
6.35736e-09
6.2747e-09
6.19241e-09
6.11049e-09
6.02897e-09
5.94786e-09
5.86716e-09
5.78691e-09
5.7071e-09
5.62776e-09
5.54888e-09
5.4705e-09
5.39261e-09
5.31522e-09
5.23836e-09
5.16202e-09
5.08623e-09
5.01098e-09
4.93629e-09
4.86217e-09
4.78863e-09
4.71567e-09
4.6433e-09
4.57152e-09
4.50036e-09
4.42981e-09
4.35988e-09
4.29057e-09
4.2219e-09
4.15387e-09
4.08647e-09
4.01973e-09
3.95363e-09
3.88819e-09
3.82342e-09
3.7593e-09
3.69586e-09
3.63308e-09
3.57097e-09
3.50954e-09
3.44879e-09
3.38872e-09
3.32932e-09
3.27061e-09
3.21259e-09
3.15524e-09
3.09858e-09
3.04261e-09
2.98731e-09
2.93271e-09
2.87879e-09
2.82555e-09
2.77299e-09
2.72112e-09
2.66992e-09
2.6194e-09
2.56956e-09
2.5204e-09
2.4719e-09
2.42408e-09
2.37693e-09
2.33044e-09
2.28461e-09
2.23944e-09
2.19493e-09
2.15107e-09
2.10786e-09
2.06529e-09
2.02337e-09
1.98209e-09
1.94143e-09
1.90141e-09
1.86201e-09
1.82324e-09
1.78508e-09
1.74753e-09
1.71059e-09
1.67425e-09
1.6385e-09
1.60335e-09
1.56879e-09
1.5348e-09
1.5014e-09
1.46856e-09
1.43629e-09
1.40458e-09
1.37342e-09
1.34281e-09
1.31274e-09
1.28321e-09
1.25422e-09
1.22574e-09
1.19779e-09
1.17035e-09
1.14342e-09
1.11699e-09
1.09105e-09
1.06561e-09
1.04065e-09
1.01617e-09
9.92154e-10
9.68608e-10
9.45521e-10
9.22887e-10
9.007e-10
8.78955e-10
8.57645e-10
8.36763e-10
8.16305e-10
7.96264e-10
7.76633e-10
7.57407e-10
7.3858e-10
7.20146e-10
7.02099e-10
6.84433e-10
6.67142e-10
6.50221e-10
6.33662e-10
6.17462e-10
6.01613e-10
5.8611e-10
5.70948e-10
5.5612e-10
5.41622e-10
5.27447e-10
5.13591e-10
5.00047e-10
4.8681e-10
4.73875e-10
4.61236e-10
4.48889e-10
4.36827e-10
4.25047e-10
4.13542e-10
4.02307e-10
3.91338e-10
3.8063e-10
3.70177e-10
3.59975e-10
3.50019e-10
3.40304e-10
3.30826e-10
3.2158e-10
3.12561e-10
3.03765e-10
2.95187e-10
2.86823e-10
2.78669e-10
2.70721e-10
2.62974e-10
2.55423e-10
2.48066e-10
2.40898e-10
2.33914e-10
2.27112e-10
2.20486e-10
2.14034e-10
2.07752e-10
2.01636e-10
1.95682e-10
1.89887e-10
1.84247e-10
1.7876e-10
1.7342e-10
1.68226e-10
1.63174e-10
1.58261e-10
1.53483e-10
1.48838e-10
1.44322e-10
1.39933e-10
1.35668e-10
1.31523e-10
1.27496e-10
1.23585e-10
1.19786e-10
1.16097e-10
1.12515e-10
1.09038e-10
1.05663e-10
1.02389e-10
9.92115e-11
9.61294e-11
9.31403e-11
9.0242e-11
8.74322e-11
8.47088e-11
8.20698e-11
7.95131e-11
7.70368e-11
7.4639e-11
7.23178e-11
7.00713e-11
6.78978e-11
6.57956e-11
6.37628e-11
6.1798e-11
5.98995e-11
5.80657e-11
5.62952e-11
5.45864e-11
5.2938e-11
5.13484e-11
4.98165e-11
4.83409e-11
4.69203e-11
4.55535e-11
4.42394e-11
4.29767e-11
4.17644e-11
4.06014e-11
3.94867e-11
3.84193e-11
3.73983e-11
3.64226e-11
3.54916e-11
3.46042e-11
3.37598e-11
3.29574e-11
3.21965e-11
3.14764e-11
3.07962e-11
3.01555e-11
2.95536e-11
2.89899e-11
2.8464e-11
2.79754e-11
2.75235e-11
2.7108e-11
2.67285e-11
2.63846e-11
2.6076e-11
2.58024e-11
2.55636e-11
2.53593e-11
2.51893e-11
2.50535e-11
2.49518e-11
2.48841e-11
2.48502e-11
2.03994e-10
6.11519e-10
1.01767e-09
1.42157e-09
1.82238e-09
2.21931e-09
2.61165e-09
2.99873e-09
3.37993e-09
3.75471e-09
4.12258e-09
4.4831e-09
4.83589e-09
5.18062e-09
5.51701e-09
5.84483e-09
6.16389e-09
6.47404e-09
6.77517e-09
7.06721e-09
7.35012e-09
7.6239e-09
7.88855e-09
8.14414e-09
8.39071e-09
8.62836e-09
8.85719e-09
9.07732e-09
9.28889e-09
9.49202e-09
9.68689e-09
9.87365e-09
1.00525e-08
1.02235e-08
1.0387e-08
1.0543e-08
1.06918e-08
1.08336e-08
1.09684e-08
1.10966e-08
1.12183e-08
1.13336e-08
1.14428e-08
1.1546e-08
1.16434e-08
1.17351e-08
1.18213e-08
1.19021e-08
1.19778e-08
1.20485e-08
1.21142e-08
1.21752e-08
1.22316e-08
1.22836e-08
1.23311e-08
1.23744e-08
1.24137e-08
1.24489e-08
1.24803e-08
1.25078e-08
1.25318e-08
1.25521e-08
1.2569e-08
1.25825e-08
1.25928e-08
1.25998e-08
1.26038e-08
1.26047e-08
1.26027e-08
1.25978e-08
1.25901e-08
1.25797e-08
1.25667e-08
1.25511e-08
1.2533e-08
1.25125e-08
1.24895e-08
1.24643e-08
1.24367e-08
1.2407e-08
1.23752e-08
1.23412e-08
1.23052e-08
1.22672e-08
1.22273e-08
1.21854e-08
1.21418e-08
1.20963e-08
1.20491e-08
1.20003e-08
1.19497e-08
1.18976e-08
1.18438e-08
1.17886e-08
1.17319e-08
1.16737e-08
1.16141e-08
1.15532e-08
1.14909e-08
1.14274e-08
1.13626e-08
1.12966e-08
1.12294e-08
1.11611e-08
1.10917e-08
1.10212e-08
1.09498e-08
1.08773e-08
1.08038e-08
1.07295e-08
1.06542e-08
1.05781e-08
1.05012e-08
1.04234e-08
1.03449e-08
1.02657e-08
1.01858e-08
1.01053e-08
1.0024e-08
9.94224e-09
9.85986e-09
9.77693e-09
9.6935e-09
9.60958e-09
9.5252e-09
9.4404e-09
9.3552e-09
9.26964e-09
9.18373e-09
9.09751e-09
9.01099e-09
8.92422e-09
8.83722e-09
8.75e-09
8.6626e-09
8.57505e-09
8.48736e-09
8.39956e-09
8.31168e-09
8.22374e-09
8.13576e-09
8.04777e-09
7.95979e-09
7.87184e-09
7.78395e-09
7.69613e-09
7.60841e-09
7.5208e-09
7.43334e-09
7.34603e-09
7.25891e-09
7.17198e-09
7.08527e-09
6.99879e-09
6.91257e-09
6.82662e-09
6.74097e-09
6.65562e-09
6.57059e-09
6.4859e-09
6.40157e-09
6.31761e-09
6.23404e-09
6.15087e-09
6.06812e-09
5.9858e-09
5.90392e-09
5.8225e-09
5.74155e-09
5.66108e-09
5.58111e-09
5.50165e-09
5.4227e-09
5.34428e-09
5.26641e-09
5.18908e-09
5.11231e-09
5.03611e-09
4.96049e-09
4.88546e-09
4.81102e-09
4.73719e-09
4.66397e-09
4.59137e-09
4.51939e-09
4.44804e-09
4.37734e-09
4.30728e-09
4.23786e-09
4.16911e-09
4.10101e-09
4.03358e-09
3.96682e-09
3.90073e-09
3.83532e-09
3.77059e-09
3.70655e-09
3.64319e-09
3.58051e-09
3.51853e-09
3.45724e-09
3.39665e-09
3.33675e-09
3.27755e-09
3.21905e-09
3.16124e-09
3.10413e-09
3.04772e-09
2.99201e-09
2.937e-09
2.88269e-09
2.82907e-09
2.77614e-09
2.72391e-09
2.67237e-09
2.62152e-09
2.57137e-09
2.52189e-09
2.4731e-09
2.42499e-09
2.37756e-09
2.33081e-09
2.28473e-09
2.23932e-09
2.19457e-09
2.15049e-09
2.10706e-09
2.06429e-09
2.02217e-09
1.98069e-09
1.93986e-09
1.89967e-09
1.86011e-09
1.82118e-09
1.78287e-09
1.74518e-09
1.7081e-09
1.67164e-09
1.63578e-09
1.60051e-09
1.56584e-09
1.53176e-09
1.49826e-09
1.46533e-09
1.43298e-09
1.40119e-09
1.36996e-09
1.33929e-09
1.30916e-09
1.27958e-09
1.25053e-09
1.22201e-09
1.19402e-09
1.16654e-09
1.13958e-09
1.11312e-09
1.08716e-09
1.06169e-09
1.03671e-09
1.01222e-09
9.88195e-10
9.64641e-10
9.41549e-10
9.18914e-10
8.96729e-10
8.74988e-10
8.53684e-10
8.32812e-10
8.12366e-10
7.92338e-10
7.72724e-10
7.53516e-10
7.34709e-10
7.16297e-10
6.98274e-10
6.80633e-10
6.63369e-10
6.46476e-10
6.29948e-10
6.13778e-10
5.97962e-10
5.82493e-10
5.67366e-10
5.52575e-10
5.38113e-10
5.23976e-10
5.10158e-10
4.96654e-10
4.83457e-10
4.70563e-10
4.57966e-10
4.45661e-10
4.33642e-10
4.21904e-10
4.10442e-10
3.99252e-10
3.88327e-10
3.77662e-10
3.67254e-10
3.57097e-10
3.47186e-10
3.37516e-10
3.28082e-10
3.18881e-10
3.09907e-10
3.01156e-10
2.92623e-10
2.84305e-10
2.76195e-10
2.68291e-10
2.60588e-10
2.53082e-10
2.45769e-10
2.38644e-10
2.31704e-10
2.24945e-10
2.18363e-10
2.11953e-10
2.05713e-10
1.99639e-10
1.93727e-10
1.87973e-10
1.82374e-10
1.76927e-10
1.71628e-10
1.66474e-10
1.61461e-10
1.56587e-10
1.51848e-10
1.47241e-10
1.42763e-10
1.38411e-10
1.34183e-10
1.30075e-10
1.26084e-10
1.22208e-10
1.18444e-10
1.1479e-10
1.11243e-10
1.078e-10
1.04459e-10
1.01218e-10
9.80733e-11
9.50238e-11
9.20668e-11
8.92002e-11
8.64217e-11
8.37293e-11
8.1121e-11
7.85946e-11
7.61483e-11
7.37802e-11
7.14883e-11
6.92708e-11
6.7126e-11
6.50522e-11
6.30477e-11
6.11108e-11
5.92399e-11
5.74336e-11
5.56902e-11
5.40084e-11
5.23868e-11
5.08239e-11
4.93184e-11
4.78691e-11
4.64747e-11
4.51339e-11
4.38457e-11
4.26089e-11
4.14224e-11
4.02852e-11
3.91962e-11
3.81545e-11
3.71591e-11
3.62092e-11
3.53039e-11
3.44424e-11
3.36239e-11
3.28476e-11
3.21128e-11
3.14189e-11
3.07653e-11
3.01512e-11
2.95761e-11
2.90396e-11
2.85411e-11
2.80801e-11
2.76562e-11
2.7269e-11
2.69182e-11
2.66033e-11
2.63242e-11
2.60805e-11
2.58721e-11
2.56986e-11
2.55601e-11
2.54563e-11
2.53872e-11
2.53527e-11
2.05422e-10
6.15828e-10
1.02493e-09
1.43187e-09
1.83586e-09
2.23612e-09
2.63193e-09
3.02264e-09
3.40763e-09
3.78635e-09
4.1583e-09
4.52303e-09
4.88015e-09
5.22932e-09
5.57023e-09
5.90265e-09
6.22637e-09
6.54123e-09
6.84709e-09
7.14389e-09
7.43156e-09
7.71008e-09
7.97946e-09
8.23973e-09
8.49094e-09
8.73317e-09
8.96652e-09
9.19109e-09
9.40701e-09
9.61441e-09
9.81345e-09
1.00043e-08
1.01871e-08
1.03619e-08
1.05291e-08
1.06888e-08
1.08411e-08
1.09862e-08
1.11244e-08
1.12557e-08
1.13804e-08
1.14986e-08
1.16106e-08
1.17164e-08
1.18163e-08
1.19104e-08
1.19989e-08
1.2082e-08
1.21597e-08
1.22323e-08
1.23e-08
1.23627e-08
1.24208e-08
1.24742e-08
1.25232e-08
1.25679e-08
1.26084e-08
1.26448e-08
1.26772e-08
1.27058e-08
1.27306e-08
1.27518e-08
1.27694e-08
1.27836e-08
1.27944e-08
1.2802e-08
1.28064e-08
1.28077e-08
1.2806e-08
1.28014e-08
1.27939e-08
1.27836e-08
1.27707e-08
1.27551e-08
1.27369e-08
1.27163e-08
1.26932e-08
1.26677e-08
1.264e-08
1.26099e-08
1.25777e-08
1.25434e-08
1.25069e-08
1.24685e-08
1.2428e-08
1.23856e-08
1.23414e-08
1.22953e-08
1.22475e-08
1.21979e-08
1.21466e-08
1.20937e-08
1.20391e-08
1.19831e-08
1.19255e-08
1.18664e-08
1.18059e-08
1.1744e-08
1.16808e-08
1.16163e-08
1.15505e-08
1.14834e-08
1.14152e-08
1.13458e-08
1.12753e-08
1.12037e-08
1.11311e-08
1.10574e-08
1.09828e-08
1.09072e-08
1.08308e-08
1.07534e-08
1.06752e-08
1.05962e-08
1.05165e-08
1.0436e-08
1.03547e-08
1.02729e-08
1.01903e-08
1.01072e-08
1.00234e-08
9.93915e-09
9.85434e-09
9.76904e-09
9.68328e-09
9.59708e-09
9.51048e-09
9.4235e-09
9.33617e-09
9.24853e-09
9.16059e-09
9.07238e-09
8.98394e-09
8.89528e-09
8.80644e-09
8.71743e-09
8.62829e-09
8.53904e-09
8.44971e-09
8.36031e-09
8.27088e-09
8.18143e-09
8.09199e-09
8.00259e-09
7.91323e-09
7.82396e-09
7.73478e-09
7.64573e-09
7.55681e-09
7.46806e-09
7.37949e-09
7.29112e-09
7.20297e-09
7.11506e-09
7.0274e-09
6.94003e-09
6.85295e-09
6.76618e-09
6.67974e-09
6.59365e-09
6.50792e-09
6.42257e-09
6.33761e-09
6.25306e-09
6.16894e-09
6.08525e-09
6.00201e-09
5.91924e-09
5.83694e-09
5.75514e-09
5.67384e-09
5.59305e-09
5.5128e-09
5.43308e-09
5.35391e-09
5.27529e-09
5.19725e-09
5.11979e-09
5.04291e-09
4.96663e-09
4.89096e-09
4.8159e-09
4.74146e-09
4.66765e-09
4.59448e-09
4.52195e-09
4.45007e-09
4.37884e-09
4.30828e-09
4.23838e-09
4.16915e-09
4.1006e-09
4.03273e-09
3.96555e-09
3.89905e-09
3.83324e-09
3.76813e-09
3.70372e-09
3.64001e-09
3.57699e-09
3.51469e-09
3.45309e-09
3.39219e-09
3.33201e-09
3.27253e-09
3.21377e-09
3.15571e-09
3.09836e-09
3.04173e-09
2.9858e-09
2.93058e-09
2.87607e-09
2.82227e-09
2.76917e-09
2.71678e-09
2.66508e-09
2.61409e-09
2.56379e-09
2.51419e-09
2.46529e-09
2.41707e-09
2.36954e-09
2.32269e-09
2.27652e-09
2.23103e-09
2.18622e-09
2.14207e-09
2.09859e-09
2.05577e-09
2.0136e-09
1.97209e-09
1.93123e-09
1.89101e-09
1.85144e-09
1.81249e-09
1.77418e-09
1.73648e-09
1.69941e-09
1.66295e-09
1.6271e-09
1.59186e-09
1.55721e-09
1.52315e-09
1.48968e-09
1.45679e-09
1.42447e-09
1.39273e-09
1.36154e-09
1.33092e-09
1.30084e-09
1.27131e-09
1.24232e-09
1.21386e-09
1.18592e-09
1.15851e-09
1.13161e-09
1.10522e-09
1.07933e-09
1.05394e-09
1.02904e-09
1.00461e-09
9.80669e-10
9.57194e-10
9.34182e-10
9.11629e-10
8.89526e-10
8.67869e-10
8.4665e-10
8.25863e-10
8.05503e-10
7.85563e-10
7.66036e-10
7.46917e-10
7.28199e-10
7.09876e-10
6.91942e-10
6.74391e-10
6.57217e-10
6.40415e-10
6.23977e-10
6.07898e-10
5.92172e-10
5.76793e-10
5.61756e-10
5.47054e-10
5.32682e-10
5.18635e-10
5.04906e-10
4.9149e-10
4.78382e-10
4.65575e-10
4.53065e-10
4.40847e-10
4.28914e-10
4.17262e-10
4.05885e-10
3.94779e-10
3.83937e-10
3.73356e-10
3.6303e-10
3.52954e-10
3.43124e-10
3.33534e-10
3.24179e-10
3.15056e-10
3.0616e-10
2.97485e-10
2.89028e-10
2.80784e-10
2.72749e-10
2.64918e-10
2.57287e-10
2.49852e-10
2.42609e-10
2.35554e-10
2.28682e-10
2.21991e-10
2.15475e-10
2.09131e-10
2.02956e-10
1.96946e-10
1.91096e-10
1.85405e-10
1.79867e-10
1.7448e-10
1.6924e-10
1.64144e-10
1.59189e-10
1.54371e-10
1.49687e-10
1.45135e-10
1.40711e-10
1.36412e-10
1.32236e-10
1.28179e-10
1.24239e-10
1.20412e-10
1.16698e-10
1.13091e-10
1.09591e-10
1.06195e-10
1.02899e-10
9.97028e-11
9.66026e-11
9.35965e-11
9.06822e-11
8.78576e-11
8.51205e-11
8.24688e-11
7.99005e-11
7.74135e-11
7.5006e-11
7.2676e-11
7.04217e-11
6.82413e-11
6.6133e-11
6.40952e-11
6.21261e-11
6.02242e-11
5.83878e-11
5.66155e-11
5.49058e-11
5.32572e-11
5.16683e-11
5.01378e-11
4.86644e-11
4.72468e-11
4.58838e-11
4.45742e-11
4.33169e-11
4.21106e-11
4.09545e-11
3.98474e-11
3.87884e-11
3.77765e-11
3.68109e-11
3.58905e-11
3.50147e-11
3.41825e-11
3.33934e-11
3.26464e-11
3.1941e-11
3.12764e-11
3.06521e-11
3.00675e-11
2.95221e-11
2.90153e-11
2.85466e-11
2.81157e-11
2.77221e-11
2.73654e-11
2.70453e-11
2.67616e-11
2.65138e-11
2.63019e-11
2.61256e-11
2.59847e-11
2.58792e-11
2.5809e-11
2.57739e-11
2.06594e-10
6.1936e-10
1.03087e-09
1.44029e-09
1.84686e-09
2.2498e-09
2.64841e-09
3.04204e-09
3.43008e-09
3.81196e-09
4.18718e-09
4.55528e-09
4.91587e-09
5.26858e-09
5.61312e-09
5.94922e-09
6.27667e-09
6.59529e-09
6.90495e-09
7.20555e-09
7.49703e-09
7.77935e-09
8.05251e-09
8.31653e-09
8.57146e-09
8.81737e-09
9.05433e-09
9.28247e-09
9.50188e-09
9.71271e-09
9.91509e-09
1.01092e-08
1.02951e-08
1.04731e-08
1.06433e-08
1.08059e-08
1.0961e-08
1.11088e-08
1.12496e-08
1.13834e-08
1.15105e-08
1.16311e-08
1.17453e-08
1.18533e-08
1.19552e-08
1.20513e-08
1.21416e-08
1.22264e-08
1.23059e-08
1.23801e-08
1.24492e-08
1.25133e-08
1.25727e-08
1.26274e-08
1.26776e-08
1.27233e-08
1.27648e-08
1.28022e-08
1.28355e-08
1.28648e-08
1.28904e-08
1.29122e-08
1.29305e-08
1.29452e-08