/*--------------------------------*- C++ -*----------------------------------*\
  =========                 |
  \\      /  F ield         | OpenFOAM: The Open Source CFD Toolbox
   \\    /   O peration     | Website:  https://openfoam.org
    \\  /    A nd           | Version:  10
     \\/     M anipulation  |
\*---------------------------------------------------------------------------*/
FoamFile
{
    format      ascii;
    class       volScalarField;
    location    "7";
    object      p;
}
// * * * * * * * * * * * * * * * * * * * * * * * * * * * * * * * * * * * * * //

dimensions      [1 -1 -2 0 0 0 0];

internalField   nonuniform List<scalar> 
5250
(
1.00001
1.00003
1.00009
1.00025
1.00059
1.00157
1.00358
1.00962
1.0219
1.05849
1.13967
1.372
2.00393
3.8891
9.16927
11.4014
11.1937
11.0706
11.1532
11.3729
11.5953
11.7349
11.8421
11.9256
11.9904
1.00001
1.00003
1.00009
1.00025
1.00057
1.00156
1.00352
1.0095
1.02171
1.05738
1.13829
1.36623
1.98961
3.84522
9.06709
11.4067
11.1919
11.0612
11.1445
11.3649
11.587
11.7267
11.8354
11.9203
11.9866
1.00001
1.00003
1.00009
1.00024
1.00058
1.00146
1.00362
1.00873
1.02221
1.05378
1.1371
1.35211
1.96105
3.74994
8.83785
11.4183
11.1841
11.0322
11.1138
11.3318
11.5511
11.6886
11.7966
11.8807
11.9468
1.00001
1.00003
1.00008
1.00023
1.00054
1.00144
1.00328
1.00882
1.02006
1.05365
1.12769
1.33916
1.91035
3.60974
8.47723
11.4421
11.1734
10.984
11.0615
11.2732
11.4878
11.6209
11.7256
11.8074
11.8742
1.00001
1.00003
1.00008
1.0002
1.00054
1.0013
1.00321
1.00805
1.01935
1.04934
1.12131
1.31502
1.84958
3.42071
7.98481
11.4801
11.1617
10.9188
10.99
11.1917
11.4001
11.5264
11.6257
11.7039
11.7723
1
1.00003
1.00008
1.00019
1.0005
1.00116
1.00308
1.00701
1.01881
1.04344
1.11427
1.28498
1.77572
3.18958
7.35681
11.5265
11.149
10.836
10.8983
11.0851
11.2845
11.4
11.4892
11.56
11.629
1
1.00002
1.00007
1.00018
1.00043
1.00112
1.00258
1.00688
1.0156
1.04185
1.0985
1.26006
1.68421
2.93315
6.61326
11.5587
11.1331
10.7385
10.7877
10.9512
11.1366
11.2351
11.3061
11.3603
11.4241
1
1.00002
1.00006
1.00016
1.00037
1.00101
1.00227
1.00614
1.0138
1.03709
1.08665
1.22837
1.59299
2.65957
5.78134
11.506
11.089
10.6283
10.6603
10.7888
10.9524
11.0242
11.0637
11.0824
11.121
1
1.00002
1.00006
1.00013
1.00036
1.00082
1.00221
1.00498
1.01331
1.03068
1.08032
1.19635
1.52372
2.43972
5.15247
11.1956
10.9415
10.5034
10.5105
10.5916
10.7228
10.7551
10.7437
10.6904
10.6399
1
1.00002
1.00005
1.00012
1.00032
1.00073
1.00196
1.00442
1.01186
1.02723
1.07158
1.1739
1.46253
2.2653
4.64251
10.5012
10.6224
10.4183
10.3349
10.3713
10.4431
10.425
10.3368
10.1241
9.80031
1
1.00001
1.00004
1.00011
1.00026
1.0007
1.0016
1.00419
1.00991
1.02502
1.06152
1.15536
1.40187
2.10198
4.14801
9.5439
10.4299
10.3016
10.1413
10.138
10.1278
10.0481
9.80799
9.24131
7.7766
1
1.00001
1.00004
1.00009
1.00025
1.00056
1.00149
1.00345
1.00893
1.02128
1.05397
1.13341
1.34708
1.93767
3.66614
8.43153
10.3067
10.1963
9.96625
9.89541
9.82196
9.64956
9.26786
8.49976
6.9896
1
1.00001
1.00003
1.00008
1.00019
1.00051
1.0012
1.00301
1.00746
1.01804
1.04569
1.11234
1.28986
1.77582
3.18372
7.17514
10.2206
10.0984
9.81272
9.65563
9.52655
9.27489
8.80032
8.02209
6.83712
1
1.00001
1.00002
1.00007
1.00016
1.00042
1.00096
1.00257
1.0058
1.01558
1.03566
1.09415
1.23016
1.61901
2.70461
5.81723
10.076
9.98212
9.69054
9.4319
9.24062
8.94758
8.46183
7.7515
6.82103
1
1.00001
1.00002
1.00005
1.00013
1.00033
1.0008
1.00201
1.00476
1.01226
1.02875
1.07425
1.18149
1.47763
2.2927
4.60312
9.65789
9.77648
9.57748
9.23309
8.98502
8.67507
8.21281
7.58005
6.80532
1
1.00001
1.00002
1.00004
1.00011
1.00025
1.00068
1.00154
1.00404
1.00949
1.02402
1.05866
1.14781
1.37948
2.02914
3.88368
8.61674
9.51027
9.37507
9.06374
8.76727
8.44739
8.01523
7.44988
6.77967
1
1
1.00001
1.00003
1.00009
1.0002
1.00054
1.00121
1.00328
1.00738
1.01967
1.04569
1.11883
1.29668
1.80225
3.22702
7.1027
9.25993
9.18074
8.9353
8.59281
8.25675
7.85
7.34141
6.75086
1
1
1.00001
1.00003
1.00007
1.00016
1.00042
1.00095
1.00253
1.00571
1.01523
1.03498
1.09172
1.22385
1.59895
2.62999
5.50231
9.0214
9.02115
8.85039
8.47858
8.10247
7.71019
7.24872
6.72247
1
1
1.00001
1.00002
1.00005
1.00013
1.00029
1.00077
1.00175
1.00467
1.01047
1.02807
1.06451
1.16901
1.42465
2.14613
4.10578
8.43833
8.89457
8.74342
8.38689
7.97814
7.59364
7.16968
6.6954
1
1
1.00001
1.00002
1.00004
1.0001
1.00023
1.00057
1.00139
1.00334
1.00845
1.01996
1.05108
1.12377
1.32021
1.84775
3.3332
7.14047
8.64186
8.55857
8.301
7.88367
7.49816
7.10084
6.66871
1
1
1
1.00001
1.00003
1.00007
1.00016
1.00044
1.00098
1.00261
1.00589
1.01559
1.03607
1.09346
1.2295
1.60973
2.64811
5.46026
8.34783
8.37019
8.21662
7.85425
7.43148
7.04197
6.64257
1
1
1
1.00001
1.00002
1.00005
1.00012
1.00031
1.0007
1.00186
1.00423
1.01099
1.02571
1.06526
1.15924
1.41174
2.08217
3.87224
7.71254
8.25701
8.13587
7.82516
7.38484
6.99568
6.61932
1
1
1
1.00001
1.00001
1.00004
1.00008
1.00022
1.0005
1.00135
1.00299
1.00803
1.01803
1.04774
1.11223
1.29335
1.76043
3.06303
6.35158
8.02719
7.98078
7.78225
7.37084
6.96674
6.60059
1
1
1
1
1.00001
1.00003
1.00006
1.00016
1.00035
1.00094
1.00212
1.00555
1.01287
1.03268
1.07894
1.19986
1.51238
2.36524
4.59289
7.60076
7.83266
7.70548
7.37917
6.96437
6.5941
1
1
1
1
1.00001
1.00002
1.00004
1.00011
1.00024
1.00065
1.00146
1.00383
1.00871
1.02259
1.05296
1.13507
1.3364
1.88417
3.32359
6.657
7.66157
7.59337
7.37104
6.97447
6.59717
1
1
1
1
1
1.00001
1.00003
1.00007
1.00017
1.00044
1.00099
1.00263
1.00589
1.01558
1.03564
1.09245
1.22406
1.58933
2.55022
5.02622
7.32048
7.43703
7.32571
7.0219
6.61234
1
1
1
1
1
1.00001
1.00002
1.00005
1.00012
1.00028
1.00067
1.00171
1.00391
1.01022
1.0231
1.06058
1.14231
1.36917
1.9436
3.423
6.59256
7.3023
7.23842
7.03305
6.65037
1
1
1
1
1
1.00001
1.00001
1.00003
1.00008
1.00018
1.00045
1.00112
1.00262
1.00673
1.01537
1.04005
1.09356
1.24149
1.61243
2.61238
5.10015
7.01074
7.10461
7.00633
6.74049
1
1
1
1
1
1
1.00001
1.00002
1.00005
1.00012
1.0003
1.00068
1.0018
1.00398
1.01056
1.02364
1.06186
1.14506
1.37451
1.9472
3.38464
6.36428
6.98765
6.94127
6.77145
1
1
1
1
1
1
1.00001
1.00001
1.00003
1.00008
1.00019
1.00046
1.00112
1.00265
1.00669
1.01545
1.0398
1.09336
1.23935
1.60464
2.57585
4.96942
6.70596
6.82921
6.74669
1
1
1
1
1
1
1
1.00001
1.00002
1.00005
1.00011
1.0003
1.00067
1.00175
1.00393
1.01016
1.02346
1.05904
1.14219
1.35947
1.90722
3.25654
6.05487
6.70268
6.67516
1
1
1
1
1
1
1
1.00001
1.00001
1.00003
1.00008
1.00017
1.00045
1.00103
1.00263
1.00614
1.01518
1.03681
1.08978
1.22331
1.56748
2.45696
4.64454
6.38541
6.57685
1
1
1
1
1
1
1
1
1.00001
1.00002
1.00004
1.00012
1.00026
1.00068
1.00151
1.00396
1.00884
1.02302
1.05272
1.13434
1.32701
1.83098
3.05214
5.65431
6.424
1
1
1
1
1
1
1
1
1.00001
1.00001
1.00003
1.00007
1.00017
1.00039
1.001
1.00226
1.00575
1.01348
1.03317
1.08055
1.19877
1.50024
2.26883
4.13506
6.03516
1
1
1
1
1
1
1
1
1
1.00001
1.00002
1.00004
1.0001
1.00025
1.00056
1.00144
1.00329
1.00825
1.01954
1.04774
1.11619
1.28805
1.7216
2.7874
5.15461
1
1
1
1
1
1
1
1
1
1
1.00001
1.00002
1.00006
1.00014
1.00036
1.0008
1.00206
1.00466
1.01187
1.02753
1.06852
1.16487
1.41344
2.02512
3.48603
1
1
1
1
1
1
1
1
1
1
1.00001
1.00002
1.00003
1.00008
1.00021
1.00048
1.00122
1.00275
1.00711
1.01587
1.04153
1.09452
1.2439
1.59397
2.49547
1
1
1
1
1
1
1
1
1
1
1
1.00001
1.00002
1.00005
1.00012
1.00029
1.00068
1.00172
1.00388
1.01002
1.02242
1.05804
1.13391
1.33992
1.83144
1
1
1
1
1
1
1
1
1
1
1
1.00001
1.00001
1.00003
1.00008
1.00017
1.00045
1.001
1.00258
1.00579
1.01482
1.03419
1.08547
1.20605
1.51991
1
1
1
1
1
1
1
1
1
1
1
1
1.00001
1.00002
1.00005
1.00012
1.0003
1.00071
1.00182
1.00413
1.01089
1.02462
1.06499
1.15372
1.40427
1
1
1
1
1
1
1
1
1
1
1
1
1.00001
1.00002
1.00004
1.00009
1.00025
1.00057
1.00154
1.00347
1.00933
1.02146
1.05666
1.13754
1.36537
1
1
1
1
1
1
1
1
1
1
1
1
1.00001
1.00002
1.00003
1.00009
1.00021
1.00057
1.00134
1.00345
1.00846
1.02109
1.05332
1.13449
1.35342
1
1
1
1
1
1
1
1
1
1
1
1
1.00001
1.00001
1.00003
1.00009
1.0002
1.00055
1.00128
1.00341
1.00804
1.02104
1.05141
1.13315
1.34627
1
1
1
1
1
1
1
1
1
1
1
1
1.00001
1.00001
1.00003
1.00008
1.00021
1.0005
1.00136
1.00311
1.00853
1.01966
1.05301
1.12917
1.34766
1
1
1
1
1
1
1
1
1
1
1
1
1.00001
1.00001
1.00003
1.00009
1.0002
1.00054
1.00122
1.00337
1.00764
1.02112
1.04917
1.13242
1.33812
1
1
1
1
1
1
1
1
1
1
1
1
1
1.00001
1.00003
1.00008
1.00019
1.00052
1.00124
1.00319
1.00793
1.01978
1.05044
1.12766
1.33701
1
1
1
1
1
1
1
1
1
1
1
1
1.00001
1.00001
1.00003
1.00008
1.00021
1.00048
1.00129
1.003
1.00801
1.01918
1.05006
1.12519
1.33373
1
1
1
1
1
1
1
1
1
1
1
1
1
1.00001
1.00003
1.00008
1.00019
1.00051
1.00118
1.00316
1.00748
1.01966
1.04821
1.12549
1.32725
1
1
1
1
1
1
1
1
1
1
1
1
1
1.00001
1.00003
1.00008
1.00018
1.0005
1.00114
1.00317
1.00721
1.01994
1.04676
1.12573
1.32302
1
1
1
1
1
1
1
1
1
1
1
1
1.00001
1.00001
1.00003
1.00007
1.0002
1.00046
1.00123
1.00293
1.00764
1.01887
1.04816
1.12269
1.32488
3.62717
2.7769
3.70767
4.17286
3.85732
3.75463
3.70233
3.6595
3.58025
3.48996
3.40814
3.33291
3.25356
3.16938
3.08664
3.0117
2.94528
2.879
2.80987
2.77552
2.76203
2.75913
2.78115
2.84533
2.95163
3.0913
3.24941
3.41315
3.57483
3.72949
3.87482
4.0093
4.13112
4.24091
4.33953
4.42829
4.50826
4.58099
4.64589
4.70235
4.75064
4.79146
4.8249
4.85413
4.87872
4.89624
4.90651
4.91168
4.91189
4.90972
4.90318
4.89067
4.87473
4.85628
4.83556
4.81258
4.78734
4.76011
4.73103
4.70031
4.66806
4.63441
4.5995
4.56339
4.52622
4.48804
4.44892
4.40893
4.36813
4.32655
4.28429
4.24135
4.19783
4.15374
4.10916
4.06413
4.01872
3.97296
3.92695
3.88072
3.83436
3.78792
3.7415
3.69514
3.64892
3.6029
3.55714
3.5117
3.46666
3.42209
3.37809
3.3348
3.29237
3.25103
3.2111
3.17305
3.13756
3.10583
3.07944
3.06177
4.48223
3.80181
4.08414
4.06442
3.85643
3.75056
3.74555
3.70209
3.58786
3.48078
3.39322
3.3245
3.251
3.16798
3.08426
3.00689
2.93914
2.87757
2.81694
2.77572
2.75777
2.75346
2.77232
2.83319
2.93664
3.07638
3.23633
3.40149
3.56382
3.71852
3.86364
3.99778
4.11983
4.22927
4.32738
4.41586
4.49526
4.56914
4.63562
4.69258
4.74127
4.78268
4.81723
4.84653
4.87117
4.88922
4.90042
4.90598
4.90651
4.90489
4.89948
4.88773
4.87107
4.85248
4.832
4.80929
4.78429
4.75718
4.7282
4.69754
4.66536
4.63177
4.5969
4.56085
4.52372
4.48559
4.44652
4.40658
4.36582
4.32431
4.2821
4.23923
4.19577
4.15175
4.10724
4.06228
4.01692
3.97124
3.92528
3.87911
3.83281
3.78643
3.74006
3.69376
3.64759
3.60161
3.5559
3.51048
3.46548
3.42091
3.37691
3.33359
3.2911
3.24967
3.20958
3.17129
3.13563
3.10356
3.07664
3.05848
5.30057
4.44508
4.25173
4.08725
3.88873
3.77077
3.72265
3.65978
3.56952
3.47317
3.39453
3.33101
3.25148
3.1632
3.0755
2.99462
2.92489
2.86738
2.81817
2.77603
2.75211
2.74454
2.75971
2.81465
2.91222
3.05064
3.21284
3.37835
3.54065
3.69505
3.84173
3.97828
4.10211
4.21298
4.31286
4.40299
4.48406
4.55816
4.62417
4.68165
4.73102
4.77315
4.80851
4.83819
4.86246
4.8807
4.89256
4.89867
4.89951
4.89831
4.89398
4.88391
4.86689
4.84786
4.82727
4.80473
4.77997
4.75306
4.72419
4.6936
4.66146
4.62792
4.59309
4.55709
4.51999
4.4819
4.44287
4.40298
4.36228
4.32084
4.27869
4.2359
4.19251
4.14857
4.10414
4.05926
4.01399
3.96837
3.9225
3.8764
3.83019
3.78388
3.7376
3.69136
3.64527
3.59935
3.5537
3.50832
3.46334
3.41877
3.37479
3.33144
3.28879
3.24724
3.20703
3.16857
3.13246
3.09976
3.07187
3.05255
5.6854
4.82225
4.38967
4.14709
3.95805
3.81831
3.73396
3.65914
3.56522
3.46976
3.38667
3.31505
3.23787
3.15219
3.06722
2.98831
2.91983
2.86364
2.81444
2.77435
2.74306
2.72681
2.74145
2.7988
2.89034
3.02587
3.18586
3.35181
3.51513
3.67092
3.8173
3.95344
4.07738
4.18904
4.28966
4.38079
4.46293
4.53735
4.60395
4.66245
4.71288
4.75596
4.79227
4.8226
4.84726
4.86611
4.87884
4.88581
4.88725
4.88641
4.88317
4.87522
4.85924
4.83976
4.81877
4.79632
4.77187
4.74533
4.71673
4.68637
4.65438
4.621
4.58629
4.55041
4.51343
4.47546
4.43655
4.39678
4.3562
4.31488
4.27287
4.23021
4.18696
4.14316
4.09886
4.0541
4.00896
3.96347
3.91771
3.87174
3.82565
3.77948
3.73332
3.68722
3.64125
3.59547
3.54989
3.50465
3.45973
3.41513
3.37119
3.32793
3.28542
3.24378
3.2033
3.16446
3.12778
3.09428
3.06525
3.04453
5.88709
5.09273
4.57503
4.26341
4.04976
3.88929
3.7694
3.67502
3.57765
3.47966
3.39243
3.31393
3.23074
3.14536
3.06224
2.98576
2.91857
2.86176
2.81337
2.77526
2.74985
2.74227
2.75473
2.802
2.89704
3.01902
3.1641
3.31953
3.4778
3.63134
3.77694
3.91308
4.03839
4.15224
4.25526
4.34855
4.4329
4.50897
4.57697
4.63682
4.68861
4.73292
4.77034
4.80155
4.8269
4.84651
4.86022
4.8682
4.87054
4.86997
4.86758
4.86142
4.84837
4.82895
4.80766
4.78512
4.76089
4.73475
4.70659
4.67661
4.64494
4.61181
4.57734
4.54167
4.50488
4.4671
4.42837
4.38877
4.34837
4.30723
4.26539
4.22291
4.17984
4.1362
4.09206
4.04746
4.00246
3.95711
3.91151
3.86569
3.81976
3.77374
3.72777
3.68182
3.63604
3.59043
3.54494
3.49982
3.45505
3.41083
3.36688
3.32352
3.2809
3.23911
3.1984
3.15913
3.12184
3.08744
3.05719
3.03484
6.01292
5.30347
4.76893
4.40658
4.15573
3.97014
3.82951
3.71341
3.60846
3.50606
3.41044
3.3229
3.23718
3.15186
3.0694
2.99406
2.92926
2.87618
2.83432
2.80515
2.79048
2.7927
2.80882
2.85398
2.93951
3.03934
3.15661
3.28156
3.42222
3.56853
3.71528
3.85571
3.98611
4.10445
4.21099
4.30691
4.3934
4.47136
4.54108
4.60268
4.65622
4.70217
4.74105
4.7735
4.79993
4.82063
4.83557
4.84486
4.84849
4.84815
4.84651
4.842
4.83207
4.81413
4.79312
4.77051
4.74643
4.72066
4.69305
4.6636
4.63244
4.59972
4.56562
4.53026
4.49378
4.45625
4.41778
4.37843
4.33827
4.29735
4.25574
4.21348
4.17061
4.12717
4.08322
4.03879
3.99397
3.94879
3.90336
3.85773
3.81199
3.76618
3.72042
3.67464
3.62905
3.58367
3.53862
3.49375
3.44917
3.40503
3.3612
3.31791
3.2752
3.23332
3.19236
3.15275
3.11485
3.0796
3.04816
3.02401
6.09541
5.46517
4.94445
4.55492
4.27177
4.06004
3.89839
3.76715
3.65236
3.54467
3.44297
3.34642
3.25637
3.17062
3.0893
3.01638
2.9563
2.91227
2.88562
2.87543
2.87916
2.89639
2.93707
2.99209
3.0462
3.10479
3.17498
3.2625
3.35074
3.47089
3.61419
3.76349
3.90722
4.0374
4.15249
4.25362
4.34327
4.42337
4.49509
4.55879
4.61462
4.66288
4.7039
4.73822
4.76628
4.78848
4.80497
4.81585
4.82121
4.82118
4.82027
4.81721
4.80997
4.79515
4.77507
4.75278
4.72896
4.70358
4.67652
4.64771
4.61718
4.58505
4.55146
4.51656
4.48046
4.4433
4.40515
4.36611
4.32624
4.28561
4.24426
4.20226
4.15962
4.11641
4.07266
4.02843
3.98379
3.93881
3.89357
3.84817
3.80266
3.75708
3.7116
3.66634
3.62112
3.57606
3.53118
3.48653
3.44208
3.398
3.35426
3.31101
3.26828
3.22629
3.18516
3.1452
3.10681
3.07077
3.0383
3.01259
6.14986
5.58709
5.09339
4.69623
4.39085
4.15704
3.97474
3.82802
3.70236
3.58821
3.48166
3.38198
3.28915
3.20266
3.12287
3.05437
3.00349
2.97634
2.97458
2.9818
3.00856
3.07156
3.15228
3.19313
3.2122
3.22462
3.23592
3.26077
3.31392
3.37625
3.47828
3.62324
3.78107
3.9331
4.0678
4.18292
4.2812
4.36596
4.44045
4.50616
4.56413
4.61482
4.6584
4.6952
4.72552
4.74978
4.76822
4.78102
4.78829
4.78977
4.7892
4.78708
4.78183
4.77077
4.75268
4.73153
4.70837
4.68349
4.65698
4.62882
4.599
4.56757
4.53463
4.50031
4.46473
4.42802
4.39029
4.35162
4.31211
4.2718
4.23077
4.18904
4.14666
4.10368
4.06015
4.01612
3.97169
3.92693
3.88193
3.83677
3.79164
3.74659
3.70156
3.65659
3.6117
3.56688
3.52219
3.47771
3.43343
3.38949
3.34586
3.3027
3.26002
3.21801
3.17676
3.13657
3.09776
3.06106
3.02772
3.00055
6.18603
5.67892
5.21626
4.82393
4.50705
4.25605
4.05678
3.89522
3.75855
3.63762
3.52651
3.42381
3.32872
3.24208
3.16582
3.10564
3.07324
3.07423
3.0857
3.12301
3.21058
3.35525
3.4368
3.44384
3.4342
3.40428
3.34215
3.30459
3.31041
3.33649
3.39247
3.4827
3.61478
3.77694
3.93432
4.07442
4.19328
4.29205
4.37464
4.44478
4.50547
4.55828
4.60416
4.64347
4.67638
4.70327
4.72425
4.73949
4.74912
4.75308
4.75286
4.75161
4.74814
4.74048
4.72541
4.70624
4.6843
4.66026
4.63444
4.60699
4.57793
4.54728
4.5151
4.48147
4.44653
4.41038
4.37315
4.33494
4.29584
4.25591
4.21522
4.1738
4.13171
4.08897
4.04568
4.00188
3.95771
3.91322
3.86866
3.82404
3.77941
3.73476
3.69008
3.64539
3.60073
3.55616
3.51169
3.46742
3.42334
3.37959
3.33612
3.29311
3.25052
3.20855
3.16726
3.12693
3.08783
3.05062
3.01661
2.98818
6.20941
5.74852
5.31673
4.93621
4.61626
4.35417
4.14128
3.96682
3.82014
3.69225
3.57653
3.47138
3.37549
3.29084
3.22171
3.17791
3.1787
3.19104
3.23195
3.33017
3.53216
3.71094
3.75585
3.74384
3.70215
3.60686
3.47589
3.38043
3.33945
3.34372
3.36557
3.41612
3.49271
3.6033
3.75198
3.90766
4.0535
4.17915
4.28287
4.36704
4.43589
4.49322
4.54183
4.58348
4.61878
4.64848
4.67251
4.69078
4.70344
4.71057
4.71209
4.71151
4.70944
4.7044
4.69386
4.67706
4.65681
4.63403
4.60922
4.58263
4.55439
4.52456
4.49319
4.46034
4.42612
4.39063
4.35399
4.31632
4.27769
4.2382
4.19788
4.15679
4.11498
4.07249
4.02942
3.98587
3.94209
3.89817
3.85416
3.81003
3.76579
3.72145
3.67705
3.63264
3.58822
3.54392
3.49969
3.45568
3.41183
3.3683
3.32502
3.28218
3.23973
3.19787
3.15661
3.11623
3.07697
3.03939
3.00491
2.97546
6.22399
5.80172
5.39866
5.03345
4.71618
4.44862
4.22599
4.04111
3.88516
3.75062
3.63135
3.52433
3.42955
3.35118
3.29551
3.28849
3.29952
3.33966
3.4403
3.6565
3.95757
4.10086
4.09603
4.0626
3.9753
3.79953
3.63022
3.50181
3.41993
3.38477
3.38737
3.40315
3.44389
3.50189
3.59007
3.71255
3.8611
4.00873
4.14177
4.25343
4.34321
4.41417
4.47062
4.51657
4.55477
4.58685
4.61355
4.63492
4.65093
4.66157
4.66686
4.66685
4.66601
4.66324
4.65681
4.64371
4.62559
4.6045
4.58104
4.55555
4.52825
4.49928
4.46874
4.43671
4.40327
4.36851
4.33255
4.29549
4.25741
4.21839
4.17849
4.13774
4.09624
4.05399
4.01131
3.96832
3.92513
3.88172
3.83815
3.79438
3.75047
3.70645
3.66235
3.61824
3.57413
3.53011
3.48618
3.44244
3.39886
3.35557
3.31254
3.26992
3.22767
3.18596
3.14483
3.1045
3.0652
3.02741
2.99265
2.96245
6.23333
5.8434
5.46596
5.1173
4.80657
4.53781
4.30934
4.1166
3.95312
3.81273
3.69032
3.5837
3.49348
3.42685
3.40736
3.41653
3.45265
3.5465
3.75109
4.14185
4.42339
4.46987
4.44615
4.36987
4.20393
3.98757
3.80115
3.65535
3.54867
3.47835
3.43918
3.435
3.44163
3.46489
3.51187
3.5751
3.66901
3.80091
3.94386
4.08172
4.20246
4.30088
4.37753
4.43645
4.48221
4.51859
4.54817
4.57235
4.5914
4.60559
4.61473
4.61837
4.61815
4.61687
4.61328
4.60535
4.59036
4.57145
4.54971
4.52561
4.49945
4.47145
4.44179
4.4106
4.37798
4.34402
4.30881
4.27243
4.23497
4.19648
4.15701
4.11662
4.07542
4.03372
3.99162
3.94921
3.90654
3.86357
3.82038
3.77697
3.73341
3.68973
3.64597
3.6022
3.55841
3.51473
3.4711
3.42767
3.38439
3.3414
3.29865
3.25629
3.2143
3.17283
3.13189
3.0917
3.05249
3.01464
2.97976
2.94901
6.23892
5.8762
5.52249
5.19001
4.88813
4.62146
4.3904
4.19247
4.02336
3.87858
3.75466
3.65165
3.57155
3.53837
3.54542
3.57738
3.66468
3.8604
4.25908
4.68071
4.83576
4.82262
4.76577
4.6299
4.39319
4.17021
3.98272
3.83027
3.70837
3.614
3.54419
3.49906
3.47493
3.47659
3.4879
3.51497
3.55923
3.62829
3.73407
3.86646
4.00476
4.13212
4.24002
4.32581
4.39096
4.43958
4.4762
4.50448
4.52662
4.54383
4.55626
4.56395
4.56654
4.56617
4.56451
4.56017
4.55084
4.53487
4.51521
4.49277
4.46795
4.44108
4.4124
4.38212
4.35037
4.31727
4.28287
4.24724
4.21044
4.1725
4.13348
4.09352
4.05291
4.01185
3.97037
3.9285
3.88628
3.84375
3.80095
3.75794
3.71475
3.67145
3.62805
3.58464
3.54122
3.49788
3.4546
3.41151
3.36857
3.3259
3.28348
3.24144
3.19976
3.15858
3.11792
3.07796
3.03895
3.00119
2.96637
2.93528
6.24448
5.90292
5.57014
5.25402
4.96223
4.70026
4.46922
4.26858
4.0961
3.94919
3.82754
3.73298
3.68236
3.6871
3.7143
3.79437
3.98006
4.36628
4.87806
5.16688
5.16653
5.13183
5.0307
4.8173
4.57043
4.35463
4.17226
4.01774
3.88604
3.77446
3.68148
3.60692
3.55094
3.51368
3.49901
3.50257
3.51557
3.54336
3.59163
3.66908
3.78619
3.91451
4.04459
4.16214
4.25904
4.33356
4.38821
4.42752
4.45596
4.47699
4.49251
4.5034
4.50979
4.51146
4.51095
4.50898
4.50405
4.49364
4.47692
4.45653
4.43333
4.40779
4.38026
4.35101
4.32023
4.28803
4.25449
4.21965
4.18354
4.14614
4.10767
4.06838
4.02849
3.98806
3.94715
3.90579
3.86405
3.82197
3.7796
3.73701
3.69423
3.65133
3.60833
3.56532
3.52228
3.47933
3.43645
3.39374
3.35118
3.3089
3.26687
3.2252
3.18389
3.14308
3.10278
3.06317
3.02448
2.98695
2.95235
2.92115
6.25207
5.92687
5.61263
5.31226
5.03157
4.77534
4.54631
4.34525
4.17217
4.02712
3.91453
3.84133
3.84321
3.86537
3.93795
4.11258
4.48116
5.05042
5.4275
5.49708
5.4715
5.3883
5.20757
4.9648
4.7387
4.54027
4.36607
4.21115
4.07214
3.9476
3.8371
3.74103
3.66001
3.59448
3.54655
3.51439
3.50911
3.51301
3.52639
3.55685
3.61186
3.6984
3.81732
3.94538
4.06927
4.17739
4.26343
4.32711
4.37193
4.40275
4.42389
4.43838
4.44774
4.45285
4.45344
4.45282
4.45059
4.44516
4.43384
4.41634
4.39528
4.37147
4.34538
4.31735
4.28764
4.25642
4.22377
4.18973
4.15427
4.11752
4.07981
4.04131
4.00214
3.96235
3.92202
3.88119
3.83996
3.79837
3.75648
3.71435
3.67201
3.62956
3.587
3.54442
3.50181
3.4593
3.41684
3.37457
3.33244
3.2906
3.24899
3.20777
3.16689
3.12652
3.08667
3.0475
3.00927
2.97213
2.93793
2.90684
6.26656
5.95333
5.65442
5.36788
5.09751
4.84789
4.62259
4.42385
4.25403
4.11879
4.02454
4.01205
4.03056
4.09673
4.2616
4.6141
5.21422
5.66242
5.798
5.78063
5.71562
5.56643
5.33326
5.10845
4.90739
4.72595
4.5591
4.40385
4.25902
4.12455
4.00097
3.88895
3.78926
3.70254
3.62984
3.57145
3.53036
3.50665
3.50677
3.50988
3.52357
3.55656
3.62163
3.71913
3.83874
3.96427
4.08108
4.17934
4.25479
4.30842
4.34423
4.36718
4.38135
4.38961
4.39309
4.39298
4.39211
4.38947
4.38336
4.37086
4.35287
4.3315
4.30736
4.28087
4.25241
4.22223
4.19049
4.1572
4.12246
4.08654
4.0497
4.01201
3.97357
3.93445
3.89474
3.8545
3.81382
3.77276
3.73137
3.68974
3.64789
3.60592
3.56383
3.52173
3.4796
3.43757
3.39559
3.3538
3.31217
3.27081
3.22971
3.18899
3.14864
3.1088
3.06951
3.03091
2.99327
2.95672
2.92312
2.89245
6.29611
5.98629
5.69776
5.42246
5.16157
4.91904
4.69938
4.50678
4.34872
4.23304
4.19805
4.2137
4.27417
4.42956
4.76507
5.3792
5.88116
6.07031
6.06061
6.01251
5.89411
5.67464
5.45602
5.25828
5.07791
4.90866
4.74668
4.59083
4.44152
4.29973
4.16657
4.04286
3.9295
3.82696
3.73601
3.65724
3.59156
3.54044
3.50526
3.49205
3.48816
3.49207
3.50899
3.54858
3.62449
3.72955
3.84981
3.97158
4.0814
4.17031
4.23533
4.27892
4.30587
4.32127
4.32881
4.33075
4.33041
4.3291
4.32576
4.31855
4.30474
4.28676
4.26536
4.24101
4.21417
4.18524
4.15447
4.12199
4.08811
4.05313
4.01719
3.98034
3.94269
3.9043
3.86527
3.82567
3.7856
3.74511
3.70429
3.6632
3.62189
3.58045
3.53889
3.49733
3.45573
3.41422
3.37279
3.33154
3.29045
3.24965
3.20912
3.16899
3.12925
3.09005
3.05143
3.01355
2.9767
2.94098
2.90823
2.87836
6.35341
6.02956
5.74395
5.47682
5.22461
4.99029
4.77955
4.60044
4.46408
4.40561
4.41782
4.47236
4.61855
4.93812
5.55559
6.09255
6.32723
6.32332
6.28588
6.18677
5.98633
5.77711
5.58703
5.41346
5.24826
5.08669
4.92712
4.77021
4.61739
4.47026
4.33011
4.19789
4.07441
3.96014
3.85564
3.76132
3.67777
3.60578
3.54659
3.5018
3.47674
3.46284
3.45968
3.46511
3.48677
3.53491
3.62052
3.72998
3.85189
3.96974
4.07137
4.15006
4.20472
4.2387
4.25735
4.26549
4.26643
4.26583
4.26396
4.25961
4.25065
4.23632
4.21821
4.19668
4.1721
4.14491
4.11538
4.08396
4.05115
4.01714
3.98212
3.94615
3.90935
3.87175
3.83348
3.79458
3.75517
3.71532
3.6751
3.63462
3.59389
3.55304
3.51207
3.47109
3.43008
3.38917
3.34833
3.30769
3.26723
3.22706
3.18719
3.14774
3.10872
3.07029
3.03251
2.99556
2.95972
2.92517
2.89358
2.86512
6.42287
6.08385
5.79343
5.5311
5.28754
5.06416
4.86939
4.71524
4.63445
4.64326
4.69233
4.83133
5.13943
5.75335
6.31059
6.57625
6.58132
6.54921
6.45616
6.26566
6.06733
5.88935
5.72666
5.57041
5.41449
5.25696
5.09828
4.94044
4.78524
4.63444
4.48934
4.35096
4.21997
4.09697
3.98225
3.87626
3.77931
3.69198
3.61503
3.54915
3.4967
3.45826
3.43998
3.4224
3.42268
3.43087
3.45762
3.51542
3.61112
3.72411
3.84463
3.95764
4.05108
4.11962
4.16405
4.1888
4.19937
4.20007
4.19922
4.19666
4.19109
4.18012
4.16523
4.14682
4.12511
4.10028
4.07267
4.04283
4.0113
3.9784
3.94438
3.90934
3.87343
3.83668
3.79921
3.76108
3.7224
3.68325
3.64372
3.6039
3.56383
3.52364
3.48332
3.443
3.40266
3.36241
3.32225
3.28229
3.24254
3.2031
3.16399
3.12534
3.08719
3.0497
3.01297
2.9772
2.94271
2.90981
2.87983
2.85367
6.52408
6.15872
5.85077
5.58799
5.3537
5.14739
4.97985
4.88082
4.88674
4.93174
5.06687
5.37151
5.98186
6.55209
6.83101
6.84512
6.81252
6.71778
6.5255
6.33237
6.16467
6.01456
5.86981
5.72329
5.57221
5.41693
5.25915
5.10109
4.94463
4.79156
4.64299
4.50018
4.36364
4.23406
4.11159
3.9967
3.88961
3.7907
3.70029
3.61912
3.54799
3.48839
3.44098
3.41043
3.38976
3.37652
3.37866
3.39141
3.42469
3.49357
3.59391
3.71137
3.83024
3.93685
4.02111
4.07918
4.11323
4.12889
4.13084
4.12983
4.12667
4.11977
4.1074
4.09152
4.07263
4.0506
4.02551
3.99785
3.96808
3.93659
3.90375
3.86974
3.83477
3.7989
3.76229
3.72499
3.68712
3.64876
3.60999
3.57093
3.53161
3.49216
3.45258
3.413
3.3734
3.33391
3.29452
3.25535
3.2164
3.17781
3.1396
3.10191
3.06482
3.0285
2.9931
2.95892
2.92623
2.89571
2.86803
2.84554
6.54005
6.24791
5.92154
5.65346
5.43103
5.2528
5.13942
5.14334
5.18621
5.32139
5.6306
6.25212
6.82998
7.11088
7.12032
7.08472
6.98298
6.77915
6.5865
6.42307
6.28056
6.14622
6.01008
5.86813
5.71979
5.56633
5.40974
5.25209
5.09533
4.94097
4.79042
4.64444
4.50392
4.36924
4.24087
4.11918
4.00424
3.89655
3.79604
3.70335
3.61885
3.54336
3.47777
3.42348
3.38288
3.35652
3.33379
3.32429
3.32854
3.34616
3.38714
3.46936
3.57325
3.69191
3.80777
3.90669
3.98054
4.02753
4.05142
4.05765
4.05671
4.0534
4.04586
4.03219
4.01542
3.99567
3.97319
3.94809
3.92062
3.89106
3.85977
3.82703
3.79311
3.75821
3.72252
3.68612
3.64914
3.61167
3.57378
3.53559
3.49713
3.45853
3.4198
3.38106
3.34231
3.30368
3.26517
3.2269
3.1889
3.1513
3.11417
3.07765
3.04188
3.00706
2.97342
2.94139
2.91126
2.88419
2.85992
2.84312
6.51153
6.333
6.00832
5.73651
5.53322
5.40482
5.40783
5.45175
5.59319
5.9173
6.56537
7.15051
7.42683
7.42323
7.37614
7.25406
7.03507
6.83542
6.6721
6.53419
6.40704
6.27916
6.14585
6.00544
5.85842
5.70626
5.55087
5.39405
5.23756
5.08273
4.93087
4.78274
4.63929
4.50083
4.36806
4.241
4.12006
4.00528
3.8972
3.79571
3.70132
3.61423
3.53522
3.46486
3.40466
3.35504
3.32067
3.29288
3.2717
3.26919
3.27587
3.29831
3.34778
3.43859
3.54718
3.66494
3.77572
3.8658
3.9287
3.96473
3.97923
3.97876
3.97598
3.96906
3.95498
3.93692
3.91622
3.89328
3.86817
3.8409
3.81161
3.78053
3.748
3.71429
3.67968
3.64432
3.60835
3.57189
3.535
3.49781
3.46034
3.42271
3.38494
3.34717
3.30939
3.27175
3.23425
3.19704
3.16016
3.12376
3.08794
3.05288
3.01879
2.98597
2.95474
2.92576
2.8994
2.87728
2.8587
2.84687
6.42204
6.33864
6.13489
5.86217
5.68301
5.68123
5.72603
5.87723
6.22648
6.92482
7.52315
7.78009
7.76863
7.69996
7.53727
7.30014
7.08834
6.91941
6.78156
6.65811
6.5368
6.41045
6.27696
6.13629
5.98955
5.83814
5.68375
5.52781
5.37185
5.217
5.06444
4.91496
4.76937
4.62811
4.49178
4.36052
4.23488
4.11473
4.00057
3.89225
3.79024
3.69448
3.60554
3.52362
3.44958
3.38411
3.3283
3.28517
3.25204
3.22484
3.20696
3.20867
3.21945
3.24805
3.30796
3.40266
3.51495
3.63083
3.73468
3.8148
3.86614
3.89222
3.89572
3.89389
3.88804
3.87547
3.85637
3.83458
3.8111
3.78582
3.75863
3.72955
3.69884
3.66674
3.63353
3.59943
3.56465
3.52934
3.49358
3.45751
3.42115
3.38463
3.34797
3.31131
3.27466
3.23817
3.20187
3.16591
3.13038
3.09544
3.06127
3.02811
2.99626
2.96619
2.9384
2.91387
2.89334
2.87825
2.86434
2.85912
6.3433
6.3183
6.22406
6.02603
5.97
6.0175
6.18325
6.56857
7.33275
7.95048
8.18254
8.15989
8.06075
7.84293
7.57868
7.352
7.17403
7.03144
6.90729
6.7881
6.66619
6.53778
6.40239
6.26057
6.1136
5.96264
5.80905
5.65397
5.49858
5.34398
5.19104
5.04072
4.89353
4.75025
4.61113
4.47673
4.34719
4.22285
4.10376
3.99016
3.88207
3.77972
3.68317
3.59273
3.50868
3.43159
3.36195
3.30121
3.24959
3.21149
3.17717
3.15192
3.13904
3.14274
3.15781
3.19342
3.26558
3.36345
3.47714
3.58942
3.68458
3.75332
3.79312
3.80753
3.80648
3.80211
3.79205
3.77269
3.75088
3.72676
3.70104
3.6738
3.64513
3.61502
3.58362
3.55117
3.51785
3.48392
3.44945
3.41466
3.37955
3.3443
3.3089
3.27353
3.2382
3.20306
3.16819
3.13374
3.09988
3.06679
3.03476
3.00414
2.97542
2.94932
2.92663
2.90909
2.89597
2.88672
2.88293
2.88484
6.15293
6.29982
6.2901
6.28121
6.3341
6.52511
6.9654
7.80454
8.43855
8.63492
8.59702
8.45964
8.17362
7.87602
7.62999
7.44032
7.29057
7.16205
7.04099
6.91913
6.79267
6.6602
6.52199
6.37865
6.23116
6.08042
5.92739
5.773
5.61815
5.46382
5.31077
5.15987
5.01162
4.86677
4.72558
4.58867
4.45609
4.32836
4.20533
4.08747
3.97454
3.86696
3.76445
3.66749
3.57594
3.49032
3.41073
3.33789
3.27252
3.21535
3.16925
3.1311
3.09865
3.07417
3.07135
3.07684
3.09545
3.13687
3.21941
3.32108
3.43375
3.53998
3.62528
3.68109
3.71144
3.71301
3.71066
3.70327
3.68752
3.66496
3.63991
3.61384
3.58688
3.55878
3.52949
3.49908
3.46764
3.4354
3.40249
3.36915
3.33548
3.30165
3.26773
3.23384
3.20008
3.16656
3.13343
3.10087
3.06911
3.03847
3.00934
2.98234
2.95819
2.93794
2.92371
2.91346
2.90895
2.91072
2.91767
2.9361
5.67237
6.2404
6.41028
6.58111
6.91657
7.55963
8.40693
9.00419
9.13628
9.07641
8.89158
8.52432
8.19329
7.92565
7.72198
7.5631
7.42817
7.30225
7.1769
7.04836
6.91546
6.77814
6.63662
6.49143
6.34307
6.19219
6.03936
5.88537
5.7309
5.57676
5.4237
5.27239
5.12344
4.97736
4.83464
4.69569
4.56079
4.43024
4.30414
4.18271
4.06599
3.95403
3.84689
3.74463
3.64741
3.55525
3.46829
3.38679
3.31129
3.24221
3.18074
3.12746
3.08564
3.0457
3.01597
2.99591
2.99735
3.00632
3.03061
3.08205
3.16972
3.27497
3.38528
3.48309
3.55686
3.60058
3.61615
3.61499
3.60998
3.59829
3.57601
3.55161
3.52556
3.49871
3.47117
3.44282
3.41356
3.38338
3.35244
3.32092
3.289
3.25687
3.22467
3.19255
3.16064
3.12909
3.09811
3.06796
3.03899
3.01171
2.98665
2.96514
2.9476
2.93777
2.93034
2.9311
2.93594
2.94963
2.97876
3.04015
4.57078
6.03224
6.64168
7.20878
8.10536
9.15149
9.73295
9.72532
9.61456
9.33207
8.90426
8.53343
8.23991
8.02172
7.85323
7.71067
7.57777
7.44595
7.3118
7.17459
7.03446
6.8919
6.74671
6.59929
6.44964
6.2981
6.14503
5.99109
5.83675
5.68267
5.52955
5.37807
5.22863
5.0817
4.93781
4.79734
4.66061
4.52782
4.3992
4.27491
4.1551
4.03958
3.92857
3.82203
3.72008
3.62262
3.52999
3.44208
3.35919
3.28157
3.20967
3.14432
3.0859
3.03724
2.9944
2.95692
2.92907
2.91827
2.92136
2.93407
2.96476
3.02781
3.11957
3.22641
3.33171
3.4204
3.47925
3.51066
3.51443
3.51193
3.50398
3.48696
3.46273