/*--------------------------------*- C++ -*----------------------------------*\
  =========                 |
  \\      /  F ield         | OpenFOAM: The Open Source CFD Toolbox
   \\    /   O peration     | Website:  https://openfoam.org
    \\  /    A nd           | Version:  10
     \\/     M anipulation  |
\*---------------------------------------------------------------------------*/
FoamFile
{
    format      ascii;
    class       volScalarField;
    location    "3";
    object      p;
}
// * * * * * * * * * * * * * * * * * * * * * * * * * * * * * * * * * * * * * //

dimensions      [1 -1 -2 0 0 0 0];

internalField   nonuniform List<scalar> 
5250
(
1.00001
1.00003
1.00009
1.0002
1.00056
1.00126
1.00341
1.00768
1.02078
1.04775
1.12632
1.31508
1.86419
3.44877
8.07853
11.6437
11.264
11.0295
11.1119
11.3368
11.5601
11.6945
11.7941
11.8722
11.9292
1.00001
1.00003
1.00008
1.0002
1.00054
1.00126
1.0033
1.0078
1.01979
1.04837
1.12214
1.31224
1.84667
3.40553
7.96318
11.6572
11.2638
11.0199
11.1032
11.3291
11.5523
11.6871
11.7882
11.8676
11.926
1.00001
1.00003
1.00008
1.0002
1.00051
1.00124
1.00318
1.00744
1.01948
1.04581
1.11925
1.29953
1.81548
3.30888
7.70511
11.6845
11.2598
10.99
11.0718
11.2955
11.5166
11.6497
11.7506
11.8301
11.8898
1.00001
1.00002
1.00008
1.00019
1.0005
1.00116
1.00303
1.00714
1.01811
1.04429
1.11151
1.28421
1.76608
3.1658
7.30606
11.7255
11.2546
10.9405
11.0177
11.235
11.4532
11.5831
11.6814
11.7599
11.8222
1
1.00002
1.00007
1.00019
1.00043
1.00115
1.00267
1.00688
1.01652
1.04145
1.10294
1.26371
1.70316
2.98271
6.77914
11.766
11.2485
10.8743
10.9436
11.1494
11.364
11.4892
11.5833
11.6599
11.7258
1
1.00002
1.00007
1.00016
1.00043
1.00098
1.0026
1.00599
1.01563
1.03699
1.09491
1.23713
1.63482
2.76994
6.14726
11.7597
11.2322
10.793
10.85
11.0366
11.2448
11.3616
11.4469
11.5175
11.5868
1
1.00002
1.00006
1.00014
1.00039
1.00088
1.00236
1.00534
1.01434
1.03278
1.08671
1.21094
1.56643
2.56136
5.5157
11.6297
11.1669
10.6909
10.7343
10.8933
11.0887
11.1912
11.2603
11.3161
11.3834
1
1.00002
1.00005
1.00014
1.00032
1.00088
1.00196
1.0053
1.01196
1.03192
1.07495
1.19599
1.50527
2.40542
5.06146
11.2097
10.9814
10.5736
10.5974
10.7145
10.8867
10.9662
11.0063
11.0284
11.0738
1
1.00002
1.00005
1.00012
1.00031
1.00074
1.00191
1.00444
1.01168
1.02707
1.07083
1.17272
1.45772
2.25445
4.61616
10.5062
10.6864
10.4978
10.4498
10.5095
10.6355
10.6773
10.667
10.616
10.5713
1
1.00001
1.00004
1.0001
1.00029
1.00065
1.00174
1.00394
1.01047
1.02432
1.06304
1.15425
1.40643
2.10553
4.17059
9.62641
10.5238
10.397
10.2699
10.2905
10.3421
10.3252
10.2355
10.0157
9.68319
1
1.00001
1.00004
1.00009
1.00025
1.00056
1.00153
1.00344
1.00927
1.02114
1.05585
1.13427
1.3548
1.9541
3.72122
8.58803
10.4113
10.2986
10.0842
10.0509
10.0255
9.93109
9.67394
9.07466
7.52315
1
1.00001
1.00003
1.00008
1.00021
1.00049
1.0013
1.003
1.00777
1.01857
1.0468
1.11596
1.29882
1.80078
3.25934
7.39184
10.3276
10.2008
9.91809
9.80414
9.71432
9.51916
9.10424
8.27592
6.6331
1
1.00001
1.00003
1.00007
1.00016
1.00044
1.001
1.00269
1.00606
1.01619
1.0374
1.09779
1.24116
1.64861
2.79414
6.08821
10.2208
10.0959
9.77724
9.56377
9.40692
9.12892
8.61286
7.75444
6.41534
1
1.00001
1.00002
1.00005
1.00015
1.00033
1.00089
1.00199
1.00531
1.01213
1.03167
1.07525
1.19413
1.49899
2.36468
4.79824
9.9115
9.89655
9.66591
9.34361
9.1135
8.78838
8.25458
7.45824
6.38582
1
1.00001
1.00002
1.00005
1.00011
1.00029
1.00068
1.0017
1.00419
1.01006
1.02558
1.06149
1.15698
1.40197
2.09409
4.07064
9.02451
9.62198
9.4683
9.14045
8.85243
8.50375
7.9916
7.27831
6.38357
1
1
1.00001
1.00004
1.00009
1.00022
1.00056
1.00137
1.00331
1.00838
1.01988
1.0509
1.12403
1.3218
1.8601
3.40659
7.54773
9.34448
9.2512
8.98551
8.63632
8.26911
7.78701
7.15006
6.37916
1
1
1.00001
1.00003
1.00007
1.00018
1.00044
1.00106
1.00267
1.0063
1.01628
1.03827
1.09887
1.24518
1.65472
2.79957
5.98759
9.15413
9.10757
8.88257
8.47058
8.07852
7.62111
7.04821
6.37173
1
1
1.00001
1.00002
1.00005
1.00014
1.00032
1.00082
1.00199
1.0048
1.01209
1.02872
1.07312
1.17927
1.46707
2.24729
4.3743
8.73758
8.97049
8.78683
8.37322
7.93281
7.48589
6.96432
6.36278
1
1
1.00001
1.00002
1.00004
1.00011
1.00025
1.00062
1.00152
1.00364
1.00924
1.02176
1.05581
1.13521
1.35117
1.93253
3.57069
7.66862
8.719
8.59967
8.27686
7.81375
7.37289
6.89248
6.35223
1
1
1
1.00001
1.00003
1.00008
1.00018
1.00048
1.00109
1.00285
1.00663
1.01687
1.04072
1.10222
1.25724
1.68117
2.85951
6.02618
8.44837
8.40668
8.19024
7.73851
7.28479
6.83113
6.34053
1
1
1
1.00001
1.00002
1.00006
1.00013
1.00035
1.00078
1.00206
1.00472
1.01217
1.02871
1.07251
1.17806
1.46161
2.21816
4.2245
7.99069
8.27088
8.11078
7.71911
7.23038
6.78467
6.33138
1
1
1
1.00001
1.00002
1.00004
1.00009
1.00025
1.00056
1.0015
1.00334
1.00896
1.02013
1.05326
1.12547
1.32863
1.85523
3.31811
6.89341
8.04278
7.95243
7.67769
7.20436
6.75602
6.32737
1
1
1
1
1.00001
1.00003
1.00007
1.00018
1.0004
1.00107
1.00237
1.00636
1.01431
1.03774
1.08849
1.22972
1.5885
2.58741
5.19951
7.70624
7.73886
7.59073
7.21842
6.75721
6.33016
1
1
1
1
1.00001
1.00002
1.00005
1.00012
1.00028
1.0007
1.00171
1.00411
1.01029
1.02432
1.06148
1.14918
1.3822
1.99279
3.58273
6.99458
7.60267
7.50134
7.21703
6.77248
6.3421
1
1
1
1
1.00001
1.00001
1.00003
1.00008
1.00019
1.0005
1.00113
1.00292
1.00678
1.01712
1.04115
1.1025
1.25591
1.66686
2.7642
5.53394
7.34974
7.33877
7.19308
6.83076
6.3731
1
1
1
1
1
1.00001
1.00002
1.00006
1.00013
1.00033
1.00074
1.00196
1.00435
1.01154
1.02597
1.06791
1.16036
1.41624
2.06291
3.69823
6.81421
7.23771
7.14046
6.87939
6.4354
1
1
1
1
1
1.00001
1.00002
1.00003
1.00009
1.0002
1.00053
1.0012
1.00311
1.00719
1.01815
1.04341
1.1082
1.26895
1.69818
2.82283
5.58816
7.01616
7.00807
6.86992
6.54182
1
1
1
1
1
1
1.00001
1.00002
1.00006
1.00014
1.00033
1.00083
1.00189
1.00491
1.01106
1.02908
1.06666
1.1721
1.42577
2.10341
3.77878
6.50772
6.89832
6.82014
6.59569
1
1
1
1
1
1
1.00001
1.00001
1.00004
1.00009
1.00021
1.00053
1.00121
1.00316
1.0071
1.01864
1.04229
1.11015
1.26407
1.69099
2.76575
5.35156
6.66627
6.68748
6.57937
1
1
1
1
1
1
1
1.00001
1.00002
1.00006
1.00013
1.00033
1.00078
1.00191
1.00465
1.011
1.02754
1.06531
1.16344
1.40738
2.03601
3.57032
6.13515
6.57552
6.5231
1
1
1
1
1
1
1
1.00001
1.00001
1.00004
1.00008
1.00021
1.00047
1.00123
1.00278
1.00715
1.01659
1.04133
1.09993
1.24953
1.63137
2.61086
4.94264
6.32326
6.40437
1
1
1
1
1
1
1
1
1.00001
1.00002
1.00005
1.00012
1.0003
1.00073
1.00169
1.00432
1.00972
1.02527
1.05745
1.14741
1.35594
1.89845
3.17222
5.74019
6.28509
1
1
1
1
1
1
1
1
1.00001
1.00001
1.00003
1.00007
1.00019
1.00042
1.0011
1.00247
1.00636
1.01463
1.0366
1.08769
1.21839
1.5475
2.38891
4.42506
5.97253
1
1
1
1
1
1
1
1
1
1.00001
1.00002
1.00005
1.00011
1.00026
1.00064
1.00148
1.00376
1.00848
1.02195
1.04982
1.12769
1.30611
1.77171
2.87787
5.23796
1
1
1
1
1
1
1
1
1
1
1.00001
1.00003
1.00006
1.00016
1.00036
1.00093
1.00209
1.00536
1.01223
1.0308
1.07265
1.18096
1.44624
2.1176
3.71469
1
1
1
1
1
1
1
1
1
1
1.00001
1.00002
1.00004
1.00009
1.00022
1.00051
1.00127
1.00302
1.00718
1.01768
1.04157
1.10321
1.25003
1.62371
2.52721
1
1
1
1
1
1
1
1
1
1
1
1.00001
1.00002
1.00005
1.00012
1.0003
1.00072
1.00167
1.00417
1.00944
1.02415
1.05472
1.13877
1.32981
1.81064
1
1
1
1
1
1
1
1
1
1
1
1.00001
1.00001
1.00003
1.00007
1.00017
1.00041
1.00096
1.00238
1.00543
1.01385
1.03111
1.08011
1.1861
1.47242
1
1
1
1
1
1
1
1
1
1
1
1
1.00001
1.00002
1.00004
1.00009
1.00023
1.00055
1.00127
1.0032
1.0072
1.01844
1.04163
1.10579
1.25012
1
1
1
1
1
1
1
1
1
1
1
1
1
1.00001
1.00002
1.00005
1.00012
1.0003
1.00071
1.00168
1.00411
1.00942
1.02363
1.05395
1.13483
1
1
1
1
1
1
1
1
1
1
1
1
1
1.00001
1.00001
1.00003
1.00007
1.00017
1.00038
1.00097
1.00214
1.00554
1.01227
1.0315
1.07154
1
1
1
1
1
1
1
1
1
1
1
1
1
1
1.00001
1.00002
1.00004
1.00009
1.0002
1.00053
1.00116
1.00299
1.00662
1.01694
1.03816
1
1
1
1
1
1
1
1
1
1
1
1
1
1
1
1.00001
1.00002
1.00005
1.00012
1.00026
1.00066
1.00148
1.00372
1.00846
1.02068
1
1
1
1
1
1
1
1
1
1
1
1
1
1
1
1
1.00001
1.00003
1.00006
1.00015
1.00033
1.00084
1.00187
1.00466
1.01076
1
1
1
1
1
1
1
1
1
1
1
1
1
1
1
1
1.00001
1.00001
1.00003
1.00008
1.00018
1.00043
1.001
1.00248
1.00556
1
1
1
1
1
1
1
1
1
1
1
1
1
1
1
1
1
1.00001
1.00002
1.00004
1.00009
1.00023
1.00054
1.00129
1.0031
1
1
1
1
1
1
1
1
1
1
1
1
1
1
1
1
1
1
1.00001
1.00002
1.00006
1.00013
1.00032
1.00071
1.0018
1
1
1
1
1
1
1
1
1
1
1
1
1
1
1
1
1
1
1.00001
1.00002
1.00004
1.00009
1.00021
1.00053
1.00119
1
1
1
1
1
1
1
1
1
1
1
1
1
1
1
1
1
1
1
1.00001
1.00003
1.00007
1.00017
1.00044
1.00101
1
1
1
1
1
1
1
1
1
1
1
1
1
1
1
1
1
1
1
1.00001
1.00003
1.00006
1.00017
1.00039
1.00103
3.03441
1.53811
1.04228
0.943428
0.969887
1.0522
1.22516
1.36211
1.40424
1.40234
1.39621
1.3927
1.39383
1.3976
1.40575
1.41454
1.41896
1.41958
1.41955
1.41973
1.42055
1.42295
1.42881
1.44223
1.47215
1.53831
1.68471
2.01183
2.72445
3.51852
3.58483
3.61213
3.57229
3.55635
3.55363
3.57679
3.62737
3.71006
3.82922
3.98009
4.13124
4.26541
4.37569
4.4625
4.53519
4.58742
4.61661
4.63175
4.63482
4.63116
4.61913
4.5958
4.56725
4.53585
4.50109
4.46433
4.42494
4.38409
4.34113
4.29701
4.25124
4.20457
4.15665
4.10803
4.0584
4.00822
3.95727
3.906
3.8543
3.80257
3.75077
3.69918
3.64774
3.59664
3.54579
3.49531
3.44514
3.39535
3.34593
3.29695
3.24842
3.2004
3.15293
3.10603
3.05979
3.01416
2.96925
2.92497
2.88141
2.83843
2.79623
2.75462
2.71381
2.6736
2.63449
2.59648
2.5602
2.52667
2.4978
2.481
3.73585
2.34446
1.74936
1.49755
1.3802
1.29612
1.27665
1.28473
1.30749
1.35437
1.40002
1.41817
1.41767
1.41572
1.41168
1.41188
1.41294
1.41543
1.41951
1.42236
1.42351
1.42558
1.43017
1.44072
1.46492
1.5198
1.64362
1.92117
2.54239
3.45808
3.62784
3.6077
3.56102
3.54443
3.55544
3.58508
3.62442
3.68431
3.79038
3.95006
4.10093
4.23809
4.35004
4.4405
4.51376
4.56684
4.59843
4.61559
4.61981
4.61774
4.60905
4.58904
4.55915
4.52793
4.49416
4.45818
4.41939
4.37882
4.33622
4.29231
4.24684
4.20034
4.15263
4.10411
4.05464
4.00457
3.95383
3.90273
3.85126
3.79971
3.74811
3.69665
3.64537
3.59435
3.54361
3.49317
3.4431
3.39334
3.34402
3.29506
3.24664
3.19864
3.15128
3.10439
3.05824
3.01261
2.96779
2.9235
2.88001
2.837
2.79492
2.75342
2.71274
2.67273
2.63357
2.59534
2.55876
2.52483
2.49503
2.47761
4.56041
3.26523
2.44873
1.93094
1.59612
1.38992
1.26863
1.25374
1.26118
1.28289
1.32818
1.37124
1.39966
1.41299
1.41398
1.41345
1.41221
1.41231
1.41286
1.41411
1.41634
1.41849
1.42245
1.43078
1.44897
1.48945
1.58096
1.78421
2.23447
3.18944
3.59662
3.60473
3.58457
3.57546
3.58401
3.60561
3.64171
3.71606
3.81609
3.94566
4.08243
4.21131
4.32202
4.41268
4.48361
4.53655
4.57035
4.58965
4.59615
4.59512
4.58976
4.57578
4.54763
4.51624
4.48289
4.44768
4.40982
4.36994
4.32796
4.2845
4.23949
4.19333
4.14595
4.09767
4.04849
3.99865
3.94822
3.89739
3.84628
3.795
3.74373
3.6925
3.64147
3.59059
3.54003
3.48969
3.43975
3.39008
3.34089
3.29203
3.24374
3.19586
3.14861
3.10188
3.05588
3.01033
2.96561
2.92145
2.87812
2.83537
2.79331
2.75177
2.71107
2.67099
2.63182
2.59353
2.55671
2.52233
2.49147
2.47258
5.01483
3.84164
2.97285
2.36734
1.96059
1.68704
1.51431
1.40533
1.34142
1.32408
1.32755
1.33927
1.3643
1.394
1.41474
1.42562
1.42548
1.42452
1.42224
1.41948
1.41963
1.42037
1.4227
1.42801
1.4401
1.46712
1.52779
1.66311
1.96755
2.63925
3.4607
3.61252
3.63669
3.64654
3.67195
3.72534
3.78492
3.83953
3.90136
3.98213
4.07562
4.17001
4.27131
4.36179
4.43532
4.49108
4.52833
4.55095
4.56083
4.56092
4.55846
4.55001
4.53049
4.49911
4.46553
4.43088
4.39414
4.35534
4.31437
4.2717
4.2274
4.18178
4.13494
4.0871
4.03841
3.989
3.93908
3.8887
3.83809
3.78725
3.73642
3.68554
3.63484
3.58422
3.53391
3.48377
3.43403
3.38453
3.33554
3.28688
3.23882
3.19114
3.14406
3.09752
3.05179
3.00656
2.96205
2.91797
2.87473
2.83201
2.7901
2.74866
2.70808
2.66804
2.62894
2.59058
2.55358
2.51869
2.48687
2.46611
5.28922
4.25932
3.42287
2.79038
2.32782
1.99112
1.74616
1.57037
1.44706
1.36972
1.32863
1.32873
1.33249
1.34314
1.3651
1.38656
1.40202
1.41148
1.41417
1.41397
1.41344
1.41362
1.41457
1.41754
1.42494
1.44212
1.48114
1.56952
1.76385
2.18596
3.08188
3.5642
3.69943
3.76516
3.85586
3.95998
4.02442
4.05535
4.07148
4.08043
4.09861
4.14038
4.20283
4.28507
4.36537
4.42942
4.47416
4.50276
4.51703
4.52088
4.51961
4.51479
4.50268
4.47773
4.44469
4.41017
4.37418
4.33642
4.29662
4.25499
4.21164
4.16681
4.12072
4.07352
4.02548
3.97668
3.9274
3.87764
3.82767
3.77739
3.72712
3.6767
3.62644
3.57616
3.52618
3.4763
3.42686
3.3776
3.32894
3.28055
3.23279
3.18542
3.13889
3.09262
3.0471
3.002
2.9577
2.91379
2.87074
2.82813
2.78639
2.74507
2.70463
2.66466
2.62561
2.58723
2.55009
2.51479
2.48224
2.4594
5.47355
4.58004
3.80326
3.17421
2.68288
2.30534
2.01723
1.79982
1.63699
1.51947
1.43489
1.38076
1.35205
1.35161
1.35443
1.36264
1.3797
1.3981
1.41278
1.42203
1.42407
1.42376
1.42298
1.42344
1.42583
1.43368
1.45421
1.50393
1.61788
1.87163
2.41956
3.35055
3.70179
3.93304
4.1488
4.31705
4.37114
4.363
4.32542
4.23639
4.14931
4.13808
4.1526
4.19284
4.27016
4.34275
4.40049
4.44044
4.46347
4.47375
4.47352
4.47122
4.4643
4.44866
4.41873
4.38481
4.34932
4.31238
4.27372
4.23328
4.1911
4.14731
4.1022
4.0559
4.00875
3.9608
3.91236
3.86338
3.81418
3.76461
3.71499
3.66513
3.61539
3.56553
3.51598
3.46643
3.41738
3.36844
3.32019
3.27225
3.22507
3.17812
3.13194
3.08599
3.04078
2.99589
2.95184
2.90815
2.86531
2.82287
2.7813
2.74015
2.69986
2.66002
2.62108
2.58274
2.54556
2.50997
2.47698
2.45233
5.60231
4.82435
4.11431
3.50771
3.00905
2.60802
2.28884
2.03665
1.83764
1.68244
1.5619
1.47389
1.40926
1.37118
1.3533
1.35371
1.35659
1.36384
1.37844
1.3918
1.402
1.40812
1.41097
1.41214
1.41453
1.41994
1.43258
1.46199
1.53026
1.68464
2.03353
2.79759
3.61104
4.12969
4.5812
4.79791
4.79488
4.75179
4.62762
4.40228
4.23567
4.15207
4.13932
4.14698
4.17517
4.23501
4.30124
4.35681
4.39434
4.41557
4.42212
4.42125
4.41744
4.40768
4.38696
4.3551
4.32019
4.28389
4.24624
4.20702
4.16622
4.12378
4.08
4.03491
3.98893
3.94203
3.89464
3.84662
3.79836
3.74961
3.70077
3.65156
3.60243
3.55308
3.50405
3.45493
3.40643
3.35819
3.31058
3.26316
3.21644
3.16988
3.12404
3.07841
3.03353
2.98893
2.94515
2.90172
2.85913
2.81693
2.77558
2.73465
2.69456
2.65491
2.61612
2.5779
2.54075
2.50498
2.47177
2.44571
5.69427
5.01011
4.36448
3.79031
3.29895
2.88859
2.55054
2.2745
2.04996
1.86869
1.72285
1.60765
1.51791
1.45143
1.40331
1.37547
1.36187
1.36229
1.3649
1.37133
1.38427
1.39675
1.40693
1.41379
1.41591
1.41913
1.42637
1.44347
1.48376
1.57762
1.79134
2.26261
3.26497
4.25725
5.16738
5.36086
5.31772
5.17774
4.88596
4.58474
4.36091
4.2185
4.14455
4.12457
4.12737
4.14436
4.18442
4.2454
4.2986
4.33617
4.35678
4.3628
4.36151
4.35649
4.34432
4.31939
4.28642
4.251
4.21427
4.1762
4.13683
4.09596
4.05382
4.01029
3.96577
3.92019
3.87404
3.82713
3.77992
3.7321
3.68412
3.63564
3.58718
3.53842
3.48999
3.4417
3.39394
3.34633
3.29932
3.25239
3.20609
3.15994
3.11448
3.06922
3.02471
2.98048
2.93704
2.89394
2.85166
2.80976
2.76868
2.72801
2.68816
2.64874
2.61015
2.57208
2.53506
2.49922
2.46593
2.43889
5.7613
5.15306
4.56602
4.02809
3.55287
3.14354
2.79642
2.50521
2.26218
2.0605
1.89347
1.75611
1.6439
1.55368
1.48304
1.42989
1.39232
1.37136
1.36222
1.36267
1.36489
1.37014
1.38028
1.38889
1.39681
1.40347
1.41011
1.42366
1.45265
1.51703
1.66168
1.98731
2.7057
4.19597
5.80602
5.92002
5.81719
5.54782
5.1261
4.7739
4.50879
4.31948
4.19379
4.12197
4.09555
4.09037
4.09916
4.12499
4.17721
4.22695
4.26475
4.28727
4.29436
4.29304
4.28758
4.27433
4.24748
4.21437
4.17876
4.14164
4.10353
4.06423
4.02391
3.98222
3.93947
3.89547
3.85078
3.80517
3.75915
3.71237
3.66531
3.61764
3.56995
3.52204
3.47453
3.42707
3.38008
3.33312
3.28668
3.24029
3.19448
3.14881
3.10379
3.05898
3.01489
2.97108
2.92803
2.88531
2.84339
2.80183
2.76107
2.7207
2.68112
2.64196
2.60362
2.56575
2.5289
2.49308
2.45983
2.43208
5.81117
5.26492
4.72954
4.2279
3.77356
3.37216
3.02338
2.72392
2.46852
2.25193
2.06868
1.9143
1.78468
1.67669
1.58777
1.51572
1.45981
1.41714
1.38687
1.37008
1.36288
1.36334
1.36545
1.37041
1.38035
1.39078
1.40193
1.41452
1.44017
1.49472
1.61517
1.8862
2.50769
3.91105
6.29914
6.39539
6.24388
5.87686
5.38862
4.9926
4.68717
4.4553
4.28448
4.165
4.09251
4.0615
4.04506
4.04884
4.06471
4.09967
4.14449
4.18274
4.20778
4.21721
4.21626
4.21139
4.19892
4.17322
4.14053
4.10452
4.06725
4.02913
3.99048
3.9507
3.90991
3.86779
3.8248
3.78069
3.73598
3.6903
3.64419
3.59744
3.55079
3.50395
3.45743
3.41079
3.36453
3.31822
3.27238
3.22658
3.18133
3.1362
3.09169
3.04738
3.00376
2.96041
2.9178
2.87549
2.83396
2.79278
2.75238
2.71235
2.6731
2.63424
2.59618
2.55856
2.52194
2.48621
2.45309
2.42483
5.85091
5.35484
4.86403
4.39672
3.96517
3.57602
3.23084
2.92852
2.66575
2.43876
2.24327
2.07546
1.93169
1.80896
1.70474
1.61686
1.54398
1.48441
1.43816
1.40271
1.37826
1.36435
1.36013
1.36085
1.36354
1.36967
1.38196
1.3996
1.42778
1.48515
1.60539
1.86546
2.43373
3.65588
6.14665
6.62509
6.5101
6.20437
5.72561
5.28039
4.91917
4.63614
4.41834
4.25528
4.13863
4.06202
4.02217
3.99644
3.99356
4.00019
4.01923
4.05788
4.09367
4.1196
4.13347
4.13308
4.12953
4.11919
4.09716
4.06512
4.02919
3.99198
3.95445
3.91614
3.87712
3.83691
3.79581
3.75341
3.71017
3.66569
3.62078
3.57531
3.52989
3.48415
3.43858
3.39281
3.34733
3.30176
3.25661
3.21147
3.16684
3.12232
3.07839
3.03464
2.99155
2.94871
2.90657
2.86473
2.82364
2.78287
2.74287
2.70321
2.66432
2.62579
2.58806
2.55072
2.51438
2.47879
2.44586
2.41722
5.88308
5.42843
4.97633
4.54082
4.13242
3.75785
3.41982
3.11852
2.85231
2.6185
2.41405
2.23572
2.08056
1.94578
1.82908
1.72836
1.64217
1.56896
1.50819
1.45831
1.42
1.39065
1.37128
1.36209
1.36286
1.36637
1.37533
1.39425
1.43221
1.50756
1.66076
1.97557
2.62423
3.58305
5.14911
6.26303
6.38437
6.28841
6.02928
5.60428
5.19798
4.86685
4.60083
4.39389
4.23442
4.1151
4.03128
3.97996
3.94825
3.9304
3.93268
3.94317
3.96671
4.00014
4.02644
4.04249
4.04561
4.04337
4.03571
4.0184
3.98807
3.95355
3.91702
3.87938
3.8414
3.80272
3.76341
3.72282
3.68119
3.63836
3.59507
3.55108
3.50693
3.46231
3.41775
3.37291
3.3283
3.28356
3.23919
3.1948
3.15088
3.10703
3.06375
3.02061
2.97811
2.93582
2.89422
2.85289
2.81227
2.77196
2.73238
2.69313
2.65464
2.61648
2.57911
2.54208
2.50607
2.47067
2.438
2.40906
5.91097
5.49084
5.07257
4.66607
4.28007
3.92082
3.5918
3.29406
3.02711
2.7893
2.57845
2.39214
2.22781
2.08326
1.95619
1.84492
1.74767
1.66325
1.59058
1.52862
1.4774
1.43491
1.40434
1.37956
1.37682
1.37951
1.38887
1.41248
1.46422
1.57355
1.79835
2.25635
2.98781
3.57413
4.23427
5.16598
5.91674
6.09782
6.04034
5.85685
5.49712
5.15817
4.84182
4.58487
4.38037
4.21868
4.09273
3.99979
3.93699
3.89793
3.86859
3.86105
3.86503
3.87754
3.90335
3.92825
3.94651
3.9544
3.95325
3.94829
3.93577
3.91051
3.87794
3.84131
3.80384
3.76596
3.72786
3.68874
3.64888
3.60805
3.56664
3.5243
3.48157
3.4382
3.39477
3.35096
3.30732
3.26351
3.22001
3.17647
3.13336
3.09028
3.04774
3.0053
2.96347
2.92181
2.8808
2.84001
2.79992
2.76009
2.72099
2.68218
2.64411
2.60635
2.56937
2.5327
2.49705
2.46189
2.42952
2.40035
5.94108
5.54865
5.15947
4.77827
4.41266
4.06831
3.74885
3.45612
3.19021
2.95049
2.73529
2.54307
2.37152
2.2191
2.08347
1.96346
1.85704
1.76337
1.68105
1.60921
1.54778
1.49457
1.45393
1.41798
1.41059
1.41403
1.42727
1.46188
1.54073
1.70835
2.05066
2.71118
3.24923
3.55629
3.8187
4.22827
4.85352
5.47475
5.77359
5.74965
5.64229
5.40122
5.11819
4.83269
4.58311
4.37576
4.20675
4.07167
3.9681
3.89321
3.84493
3.80851
3.78493
3.7857
3.79112
3.8037
3.8277
3.84649
3.85949
3.85988
3.85744
3.84935
3.83151
3.80024
3.76519
3.72798
3.69016
3.65184
3.61351
3.57452
3.535
3.49447
3.4534
3.41151
3.36939
3.32677
3.28423
3.24144
3.19894
3.15633
3.11415
3.07195
3.03024
2.98859
2.94751
2.90654
2.86618
2.826
2.78648
2.74718
2.70859
2.67026
2.63267
2.59535
2.55881
2.52254
2.48729
2.45242
2.4204
2.39106
5.97954
5.60717
5.24053
4.88083
4.53285
4.20218
3.89217
3.60509
3.3415
3.10142
2.88359
2.68726
2.51019
2.3516
2.20903
2.08183
1.96785
1.86645
1.7762
1.69621
1.6265
1.56475
1.51646
1.47273
1.46893
1.47478
1.49625
1.55356
1.68299
1.95572
2.51091
3.08161
3.39427
3.53207
3.62822
3.78076
4.0363
4.44284
4.98927
5.38636
5.47688
5.43957
5.31959
5.07687
4.83754
4.58816
4.37539
4.19811
4.05306
3.93812
3.85132
3.79131
3.74741
3.7154
3.70067
3.70247
3.70947
3.72468
3.74463
3.75905
3.76569
3.7645
3.75942
3.74698
3.72178
3.68838
3.65125
3.61332
3.57569
3.53786
3.49989
3.46113
3.42189
3.38174
3.34123
3.30004
3.25881
3.21722
3.17584
3.13431
3.09314
3.05192
3.01116
2.97039
2.93014
2.88994
2.85031
2.81081
2.77192
2.73322
2.6952
2.65741
2.62033
2.58349
2.54742
2.51159
2.47678
2.44223
2.41061
2.38117
6.0344
5.66873
5.31738
4.97424
4.64188
4.32349
4.0228
3.74181
3.4814
3.2423
3.02322
2.82426
2.64327
2.47984
2.33192
2.19868
2.07864
1.97065
1.87391
1.78722
1.71055
1.64333
1.58796
1.54848
1.55038
1.56338
1.60428
1.70543
1.92753
2.38887
2.99063
3.3371
3.47466
3.52112
3.53969
3.57093
3.64591
3.80019
4.06692
4.4896
4.92576
5.21293
5.20965
5.16269
5.04027
4.8064
4.59766
4.37866
4.19294
4.03912
3.91239
3.81342
3.73946
3.68842
3.64704
3.62035
3.61491
3.61755
3.6255
3.64195
3.65761
3.66859
3.66873
3.66641
3.65884
3.64193
3.61031
3.57426
3.5371
3.4996
3.46232
3.42477
3.38713
3.34878
3.31008
3.27063
3.231
3.19087
3.15082
3.11052
3.0705
3.03035
2.9906
2.95078
2.91142
2.87206
2.83321
2.79444
2.75624
2.71819
2.68077
2.64357
2.60704
2.57075
2.5352
2.49984
2.46553
2.43135
2.40017
2.37068
6.1074
5.73268
5.38952
5.05993
4.74033
4.43365
4.14169
3.86742
3.61083
3.37369
3.15472
2.95417
2.77078
2.60355
2.45165
2.31345
2.18847
2.07503
1.97283
1.88079
1.7985
1.72875
1.6687
1.65039
1.65733
1.68614
1.76542
1.94777
2.3329
2.96285
3.35528
3.50082
3.52413
3.51872
3.49795
3.46152
3.46674
3.50073
3.58957
3.76812
4.05296
4.46122
4.7945
4.98249
4.96875
4.90861
4.77217
4.57031
4.38273
4.19274
4.02772
3.89193
3.77962
3.69197
3.62879
3.58209
3.54705
3.52643
3.52704
3.53079
3.53933
3.55545
3.56719
3.57289
3.57178
3.56702
3.55515
3.53068
3.49788
3.46142
3.42442
3.38727
3.35043
3.31332
3.2762
3.23853
3.20069
3.16229
3.12382
3.08497
3.04624
3.00728
2.96861
2.9298
2.89137
2.85289
2.81487
2.77688
2.73941
2.70208
2.66533
2.62876
2.59284
2.55713
2.52214
2.4873
2.45352
2.41975
2.38906
2.35961
6.18022
5.79884
5.45809
5.13809
4.83032
4.53447
4.2509
3.98303
3.73128
3.49644
3.27878
3.07753
2.89273
2.72292
2.56777
2.42593
2.29662
2.17896
2.07219
1.97582
1.891
1.81873
1.7723
1.77539
1.7955
1.85839
2.01067
2.33354
2.97811
3.42467
3.5919
3.60068
3.5886
3.55092
3.47566
3.41305
3.37498
3.36637
3.37854
3.42616
3.53183
3.71499
3.99042
4.33855
4.60341
4.73763
4.72316
4.66623
4.53572
4.35555
4.18915
4.02428
3.87486
3.75294
3.65253
3.57463
3.52027
3.47762
3.44855
3.43675
3.43802
3.44266
3.4528
3.46595
3.47543
3.47539
3.47328
3.46614
3.45014
3.41983
3.38591
3.34974
3.31325
3.2766
3.2404
3.20411
3.16794
3.13133
3.09463
3.05744
3.02023
2.98264
2.94518
2.90748
2.87006
2.83251
2.79534
2.75817
2.72148
2.68488
2.64884
2.61296
2.57771
2.54262
2.50826
2.47399
2.44079
2.40747
2.37731
2.34795
6.30323
5.88725
5.53091
5.2136
4.91416
4.62728
4.35242
4.09074
3.84381
3.61214
3.39597
3.19526
3.00944
2.83822
2.68048
2.53584
2.40317
2.28196
2.17197
2.07257
1.98899
1.91883
1.91292
1.92631
1.97637
2.11078
2.40563
3.0098
3.52846
3.7316
3.73628
3.71913
3.66719
3.56283
3.46929
3.39924
3.34392
3.30543
3.27809
3.27852
3.2927
3.34253
3.44971
3.62148
3.867
4.16079
4.38158
4.49591
4.48288
4.43371
4.32203
4.1604
4.01143
3.86811
3.73105
3.61958
3.52984
3.46212
3.41475
3.37726
3.35303
3.3475
3.34917
3.35433
3.36513
3.37573
3.3806
3.37963
3.3754
3.36439
3.34183
3.31068
3.27601
3.24
3.20428
3.16875
3.13369
3.09851
3.06343
3.0279
2.99231
2.95622
2.92013
2.88366
2.84735
2.81081
2.77459
2.73829
2.70244
2.66664
2.63137
2.59622
2.56167
2.52726
2.49356
2.45989
2.42732
2.3945
2.3649
2.33571
6.3449
5.97891
5.61107
5.28958
4.99478
4.7151
4.44765
4.1925
3.94999
3.72158
3.50744
3.30756
3.12168
2.94935
2.7901
2.64308
2.50805
2.38422
2.27211
2.17418
2.09226
2.06173
2.07184
2.11499
2.23652
2.51154
3.08452
3.67531
3.91883
3.92232
3.90043
3.83453
3.70239
3.58151
3.48269
3.40208
3.33771
3.28912
3.24199
3.20652
3.17884
3.17941
3.19295
3.2384
3.3357
3.49369
3.70494
3.95836
4.14896
4.26312
4.25288
4.21382
4.12697
3.985
3.84846
3.71986
3.59491
3.49292
3.41332
3.35452
3.31031
3.27799
3.25927
3.2594
3.26134
3.26657
3.27726
3.28482
3.28455
3.28223
3.2756
3.26076
3.23321
3.20118
3.16732
3.13276
3.09849
3.0643
3.03046
2.99639
2.96237
2.92786
2.89328
2.85821
2.82317
2.78778
2.75259
2.71726
2.6823
2.64735
2.61289
2.57854
2.54474
2.51107
2.47806
2.44506
2.41314
2.38088
2.35189
2.32291
6.3227
6.10164
5.71357
5.37392
5.07541
4.79959
4.53791
4.28823
4.05101
3.82585
3.61393
3.41535
3.22977
3.05705
2.89661
2.74816
2.61138
2.48625
2.37553
2.28092
2.22878
2.2353
2.27095
2.37814
2.6332
3.17478
3.8551
4.14853
4.15258
4.1261
4.04616
3.88728
3.74374
3.62444
3.52401
3.43666
3.35958
3.29
3.23288
3.18252
3.13488
3.09763
3.06922
3.06649
3.07764
3.11646
3.20009
3.34344
3.52328
3.74497
3.91656
4.03925
4.03329
4.00755
3.9487
3.82757
3.69833
3.57743
3.46526
3.37279
3.30105
3.24813
3.20788
3.18114
3.1705
3.17113
3.17386
3.1801
3.18784
3.18996
3.18894
3.18506
3.17498
3.15472
3.12706
3.09546
3.06272
3.02954
2.99661
2.96361
2.93084
2.89775
2.86465
2.83103
2.79735
2.76323
2.72921
2.69495
2.66099
2.62699
2.59341
2.55992
2.52693
2.49404
2.46178
2.4295
2.39829
2.36663
2.33829
2.3096
6.25766
6.12409
5.83058
5.47134
5.16072
4.8837
4.62567
4.38054
4.14724
3.92587
3.71626
3.51924
3.33442
3.16168
3.0007
2.85146
2.71418
2.59055
2.48503
2.4114
2.41475
2.44407
2.54041
2.78329
3.30191
4.06571
4.4132
4.42056
4.38946
4.29463
4.11188
3.94583
3.80727
3.6892
3.5846
3.48934
3.40126
3.31971
3.24484
3.17819
3.12233
3.06757
3.01864
2.97967
2.95065
2.944
2.9529
2.98443
3.05325
3.18021
3.33447
3.52751
3.6909
3.81725
3.83369
3.81736
3.77327
3.6799
3.55546
3.44065
3.34124
3.25741
3.19088
3.14165
3.1067
3.08714
3.08312
3.08408
3.08706
3.09314
3.09856
3.09834
3.09643
3.09061
3.07794
3.05341
3.02509
2.99406
2.96228
2.93012
2.89825
2.86626
2.83442
2.80217
2.76989
2.73712
2.70439
2.67133
2.63849
2.60554
2.57295
2.54038
2.50827
2.47621
2.44476
2.41323
2.38278
2.35177
2.32412
2.29579
6.15691
6.09411
5.91934
5.57191
5.25072
4.96884
4.7117
4.46996
4.24037
4.02222
3.81565
3.62009
3.43609
3.26377
3.10276
2.95405
2.81805
2.70291
2.60858
2.60835
2.63177
2.71605
2.94162
3.42327
4.29112
4.70385
4.71664
4.68118
4.57292
4.36736
4.17957
4.02235
3.8875
3.76715
3.65646
3.55292
3.45542
3.36357
3.27735
3.19742
3.12345
3.05983
3.00145
2.94621
2.89668
2.85697
2.82752
2.8167
2.82337
2.84749
2.90199
3.00817
3.14546
3.31257
3.47464
3.59676
3.64777
3.63814
3.60533
3.53226
3.42364
3.31715
3.21917
3.13824
3.07709
3.03357
3.00697
2.99318
2.99368
2.99564
2.99976
3.00722
3.01049
3.00973
3.00646
2.99808
2.98085
2.95549
2.92685
2.89627
2.86534
2.83414
2.80319
2.77201
2.74093
2.70946
2.67804
2.64629
2.6147
2.58294
2.55145
2.51992
2.48878
2.45763
2.42705
2.39633
2.36669
2.33639
2.30946
2.28157
5.98377
5.99485
5.91164
5.70227
5.36163
5.06188
4.79902
4.55794
4.33117
4.11599
3.91165
3.71828
3.53561
3.36404
3.20428
3.05755
2.9306
2.82706
2.80931
2.83109
2.9128
3.13204
3.60508
4.53143
5.0041
5.03447
4.99557
4.87597
4.64784
4.43896
4.26368
4.11279
3.97745
3.85225
3.73445
3.62274
3.51666
3.41599
3.32081
3.2311
3.14717
3.0694
2.99854
2.93679
2.87666
2.82181
2.77253
2.73202
2.70215
2.68728
2.69204
2.70995
2.7527
2.83747
2.96084
3.10689
3.26552
3.38477
3.47076
3.46385
3.43929
3.39347
3.31066
3.21209
3.1194
3.04209
2.98286
2.94168
2.91826
2.90716
2.90775
2.91018
2.91518
2.92254
2.92288
2.92161
2.91708
2.90666
2.88589
2.86015
2.83163
2.80164
2.77151
2.74112
2.71092
2.6805
2.65026
2.6198
2.58952
2.55907
2.52882
2.49846
2.4684
2.43826
2.40863
2.3788
2.35003
2.3205
2.29434
2.26698
5.54656
5.88848
5.86108
5.7406
5.47911
5.16415
4.88986
4.64613
4.42077
4.2081
4.00616
3.81449
3.63322
3.46371
3.30684
3.1696
3.05607
3.02542
3.04593
3.12703
3.34863
3.83352
4.80768
5.33874
5.37985
5.33687
5.20286
4.95047
4.71987
4.52664
4.36033
4.21066
4.0716
3.94012
3.81489
3.69539
3.5815
3.47314
3.37031
3.27294
3.18105
3.09462
3.01402
2.93901
2.87173
2.81037
2.75088
2.69625
2.64784
2.6069
2.5776
2.55898
2.56211
2.5751
2.60743
2.67323
2.78123
2.91342
3.06238
3.18763
3.28899
3.30208
3.29008
3.25533
3.18198
3.09189
3.01137
2.94491
2.89375
2.85654
2.8352
2.82551
2.82615
2.82864
2.83331
2.83826
2.83778
2.83547
2.82914
2.81582
2.7938
2.76744
2.73921
2.7099
2.68046
2.65081
2.62149
2.59214
2.5631
2.53395
2.50501
2.47593
2.44708
2.41808
2.38951
2.36066
2.33285
2.30417
2.27884
2.25211
4.56565
5.64455
5.7695
5.71822
5.57339
5.27881
4.99031
4.73877
4.51173
4.29991
4.09959
3.90983
3.73109
3.56473
3.41787
3.29558
3.25412
3.27405
3.35622
3.58433
4.09002
5.11154
5.70756
5.75648
5.70746
5.55483
5.27537
5.02142
4.80961
4.6278
4.4641
4.31152
4.16666
4.02817
3.89557
3.76879
3.6478
3.5326
3.4231
3.31921
3.22078
3.12772
3.03996
2.95743
2.88052
2.80891
2.74479
2.68335
2.62569
2.572
2.52508
2.48382
2.45492
2.43318
2.43504
2.44414
2.46781
2.51821
2.61169
2.73324
2.86916
3.00487
3.11003
3.15595
3.14632
3.11707
3.0555
2.98054
2.91283
2.85556
2.80906
2.77582
2.75737
2.74879
2.74942
2.75161
2.75449
2.75626
2.7553
2.75182
2.74351
2.72654
2.70367
2.67705
2.64925
2.62071
2.5923
2.5639
2.53589
2.5079
2.48019
2.45238
2.42479
2.39702
2.36964
2.34191
2.31515
2.28745
2.26301
2.23705
2.89438
5.06827
5.63761
5.64544
5.57632
5.40537
5.11033
4.8425
4.60714
4.39273
4.19263
4.00485
3.82987
3.67432
3.5441
3.4951
3.51521
3.60035
3.83957
4.37118
5.44789
6.09475
6.15096
6.09638
5.92761
5.62132
5.34372
5.11298
4.91536
4.7374
4.57112
4.41278
4.2609
4.11509
3.97534
3.84171
3.71421
3.5928
3.47734
3.36769
3.26363
3.165
3.07159
2.98326
2.89992
2.82153
2.74827
2.68048
2.61892
2.55847
2.50247
2.45019
2.40466
2.36426
2.33527
2.31224
2.31141
2.31718
2.33504
2.37571
2.45444
2.56412
2.69113
2.83181
2.94435
3.01539
3.0081
2.9845
2.93846
2.87573
2.81789
2.76745
2.72662
2.69907
2.68351
2.67595
2.67588
2.67664
2.67787
2.67759
2.67557
2.67027
2.65892
2.63846
2.61494
2.58917
2.56256
2.53544
2.50848
2.48151
2.45484
2.42816
2.40177
2.37523
2.34908
2.32255
2.29696
2.27038
2.24691
2.22194
2.14929
3.77103
5.26671
5.5537
5.53764
5.44684
5.24143
4.95835
4.70761
4.4865
4.28581
4.1013
3.93781