/*--------------------------------*- C++ -*----------------------------------*\
  =========                 |
  \\      /  F ield         | OpenFOAM: The Open Source CFD Toolbox
   \\    /   O peration     | Website:  https://openfoam.org
    \\  /    A nd           | Version:  10
     \\/     M anipulation  |
\*---------------------------------------------------------------------------*/
FoamFile
{
    format      ascii;
    class       surfaceScalarField;
    location    "3";
    object      phi;
}
// * * * * * * * * * * * * * * * * * * * * * * * * * * * * * * * * * * * * * //

dimensions      [1 0 -1 0 0 0 0];

internalField   nonuniform List<scalar> 
10325
(
0.00840003
1.51855e-10
0.00840004
3.5924e-10
0.00839998
2.54049e-09
0.00840011
3.49071e-09
0.0083997
1.88465e-08
0.00840081
2.3742e-08
0.00839769
1.25835e-07
0.00840518
1.52361e-07
0.00838807
8.08318e-07
0.00841828
8.63987e-07
0.00836826
4.36516e-06
0.00841094
8.56488e-06
0.00833824
3.18394e-05
0.00825039
0.000113114
0.00767658
0.000579801
0.0070047
0.000669982
0.00636632
0.00063595
0.00570799
0.000656408
0.0050171
0.000688787
0.00428581
0.00072959
0.0035049
0.000779992
0.00267356
0.000828185
0.00180496
0.000866363
0.000909739
0.000894758
0.000908525
0.00840003
1.51174e-10
0.00840004
1.26288e-09
0.00839998
3.4983e-09
0.00840015
1.21632e-08
0.00839974
2.58053e-08
0.00840064
8.44574e-08
0.00839856
1.50414e-07
0.00840231
5.66393e-07
0.00839385
8.43351e-07
0.00840686
3.42969e-06
0.0083804
6.00495e-06
0.00840006
2.12499e-05
0.00834424
6.10704e-05
0.00824546
0.000229286
0.00768614
0.00114707
0.00699906
0.00135493
0.00636904
0.00126364
0.00572047
0.0013031
0.00503474
0.00137246
0.00429695
0.00146573
0.00350949
0.00156659
0.00267426
0.00166035
0.00180005
0.0017384
0.000899649
0.00179474
0.001807
0.00840003
2.94276e-10
0.00840003
1.49787e-09
0.00840002
5.92122e-09
0.00840002
1.43683e-08
0.00839996
4.44146e-08
0.00840014
9.0473e-08
0.00839907
2.9918e-07
0.00840157
5.28812e-07
0.00839421
1.92952e-06
0.00840591
3.35883e-06
0.00838525
1.16694e-05
0.00839306
2.76897e-05
0.00835054
9.3398e-05
0.0082583
0.00033242
0.00775968
0.00165391
0.00706204
0.00205109
0.00643017
0.00189302
0.00578711
0.00194433
0.00510693
0.00205078
0.00436905
0.00220191
0.00357745
0.00235732
0.00273363
0.00250074
0.00184607
0.00262355
0.000925254
0.00271534
0.00273134
0.00840003
3.34941e-10
0.00840004
1.94041e-09
0.00839998
7.15569e-09
0.00840014
1.9164e-08
0.00839976
5.22692e-08
0.0084006
1.33453e-07
0.00839872
3.14433e-07
0.0084021
8.84911e-07
0.00839457
1.83186e-06
0.00840655
5.67833e-06
0.00838243
1.2415e-05
0.00840316
3.83109e-05
0.0083552
0.000114669
0.008288
0.000416704
0.00791051
0.00203888
0.00720708
0.00275238
0.00656367
0.00253408
0.00592027
0.00258588
0.00524316
0.002726
0.00450683
0.00293643
0.00371079
0.00315275
0.00285806
0.0033508
0.00194689
0.0035335
0.000983107
0.0036796
0.00371429
0.00840003
3.42832e-10
0.00840002
2.42011e-09
0.00840008
7.41945e-09
0.00839992
2.35634e-08
0.00840028
5.60635e-08
0.00839948
1.48583e-07
0.00840109
3.78015e-07
0.00839764
8.748e-07
0.00840348
2.47022e-06
0.00839156
5.44422e-06
0.00840873
1.58619e-05
0.00837746
4.10828e-05
0.00838961
0.000130782
0.00833457
0.000461063
0.00817359
0.00221078
0.00746619
0.00345909
0.00678891
0.00320937
0.00613488
0.00323845
0.00545771
0.00340155
0.00472249
0.00367061
0.00392086
0.00395375
0.00304674
0.00422345
0.00209933
0.00448004
0.0010754
0.00470397
0.00478965
0.00840002
3.34488e-10
0.00840005
2.34877e-09
0.00839997
7.54341e-09
0.00840016
2.32805e-08
0.00839975
5.63546e-08
0.00840072
1.58952e-07
0.0083986
3.50116e-07
0.00840345
1.00579e-06
0.00839308
2.16924e-06
0.00841273
6.22417e-06
0.00838188
1.45969e-05
0.00842114
4.23591e-05
0.00839041
0.000125673
0.0084323
0.000440691
0.00863906
0.00200808
0.00791656
0.00418035
0.00714884
0.00397524
0.00646252
0.00392334
0.00577268
0.00408956
0.00503507
0.00440689
0.00422374
0.00476435
0.0033249
0.00512105
0.00232711
0.00547675
0.00121519
0.00581637
0.00600489
0.00840003
4.18017e-10
0.00840004
1.78479e-09
0.0084
8.50913e-09
0.0084001
1.72246e-08
0.00839982
6.22118e-08
0.00840061
1.18899e-07
0.00839859
3.82395e-07
0.00840393
7.66251e-07
0.00839236
2.24963e-06
0.00841744
4.98477e-06
0.0083791
1.36653e-05
0.00843565
3.49672e-05
0.00841231
0.000105507
0.00852804
0.000350667
0.0090139
0.00151848
0.00843162
0.00476571
0.0075626
0.00484402
0.00685532
0.0046296
0.00617024
0.00477397
0.00543407
0.00514081
0.00461346
0.00558515
0.00369142
0.00604153
0.00264435
0.00652139
0.00142815
0.00703347
0.00743374
0.00840003
2.50096e-10
0.00840001
2.30388e-09
0.00840008
5.90947e-09
0.00839992
2.24869e-08
0.00840034
4.4468e-08
0.00839938
1.452e-07
0.00840176
2.79884e-07
0.00839665
8.76817e-07
0.00840882
1.76839e-06
0.00838526
5.19752e-06
0.0084265
1.18173e-05
0.00837632
3.34583e-05
0.00843562
9.46859e-05
0.00844392
0.000315921
0.00864055
0.00133183
0.00836794
0.00504059
0.00768225
0.00553018
0.00712695
0.00518389
0.00650328
0.00539663
0.0058294
0.00581265
0.00504514
0.00636894
0.00413391
0.00695152
0.00306668
0.00758721
0.00175173
0.00834863
0.00918687
0.00840003
3.44078e-10
0.00840003
1.91839e-09
0.00840003
7.04798e-09
0.00840003
1.8794e-08
0.00839999
5.19882e-08
0.00840014
1.21574e-07
0.00839946
3.35328e-07
0.00840145
7.26925e-07
0.00839605
2.08738e-06
0.00840716
4.48814e-06
0.00838994
1.28548e-05
0.00841047
3.14702e-05
0.00839647
9.40529e-05
0.00841824
0.00030466
0.00851466
0.00123185
0.00822492
0.0053346
0.00795228
0.00580267
0.007361
0.00577438
0.00676434
0.00599187
0.00617911
0.00639547
0.00549187
0.00705527
0.00466966
0.00777272
0.00367033
0.00858526
0.00228213
0.00973679
0.0114708
0.00840003
3.20155e-10
0.00840004
2.02517e-09
0.00839999
6.93835e-09
0.00840012
1.98804e-08
0.00839982
5.11658e-08
0.00840054
1.32994e-07
0.00839892
3.20106e-07
0.00840276
8.24448e-07
0.00839432
1.95277e-06
0.00841105
5.05487e-06
0.00838244
1.23492e-05
0.00842081
3.3097e-05
0.00837775
9.33229e-05
0.00841408
0.000302973
0.00846103
0.00116889
0.00832575
0.00547713
0.007922
0.00620686
0.00749799
0.00619784
0.00705365
0.00643487
0.00654851
0.006898
0.00600716
0.00759566
0.0053709
0.00840831
0.00447559
0.00947979
0.00316406
0.0110476
0.0146365
0.00840003
3.34977e-10
0.00840004
2.00304e-09
0.0084
7.21906e-09
0.00840011
1.9267e-08
0.00839983
5.4086e-08
0.00840055
1.26865e-07
0.00839887
3.44108e-07
0.00840294
7.92774e-07
0.00839398
2.12155e-06
0.00841286
4.94267e-06
0.0083788
1.32339e-05
0.00842613
3.31817e-05
0.00837104
9.5559e-05
0.0084156
0.000301531
0.00843842
0.00112459
0.00850998
0.00541363
0.00809406
0.00662344
0.00767305
0.00661836
0.00733247
0.0067741
0.00696111
0.00726731
0.00659671
0.00795821
0.00616869
0.00883503
0.0057545
0.00989321
0.00571342
0.0110885
0.0114519
0.00889903
0.00840003
3.49899e-10
0.00840004
1.90676e-09
0.0084
7.46654e-09
0.00840009
1.88056e-08
0.0083999
5.44303e-08
0.00840035
1.29548e-07
0.0083994
3.36138e-07
0.00840143
8.25532e-07
0.00839716
2.03111e-06
0.00840518
5.24543e-06
0.00839067
1.27173e-05
0.00841336
3.42296e-05
0.00838416
9.33468e-05
0.0084212
0.000293485
0.00847488
0.00105714
0.00891307
0.00498077
0.00846189
0.00707542
0.00799509
0.00708519
0.00764654
0.00712175
0.0073612
0.00755096
0.00710169
0.00821597
0.00690402
0.00903117
0.00686805
0.00992797
0.0073112
0.0106444
0.0104369
0.00832711
0.00840003
2.68562e-10
0.00840002
2.04697e-09
0.00840005
6.07046e-09
0.00839998
2.0021e-08
0.00840017
4.61499e-08
0.00839972
1.31251e-07
0.00840091
2.99287e-07
0.00839831
7.97212e-07
0.00840489
1.89733e-06
0.00839151
4.82112e-06
0.00841909
1.21677e-05
0.00837949
3.11919e-05
0.0084389
8.56275e-05
0.00842686
0.000260034
0.00860266
0.000906497
0.00965043
0.00392959
0.00908024
0.00764572
0.00848703
0.00767786
0.00809798
0.00751023
0.0078317
0.00781625
0.00765676
0.00838943
0.00762488
0.00906139
0.00784578
0.00970598
0.00838618
0.0101026
0.00981193
0.00901096
0.00840003
2.6189e-10
0.00840004
1.55704e-09
0.00840001
5.66538e-09
0.00840008
1.52303e-08
0.00839993
4.19605e-08
0.00840035
1.01824e-07
0.00839952
2.58261e-07
0.00840175
6.42733e-07
0.0083976
1.52537e-06
0.00840836
4.00631e-06
0.00839183
9.2684e-06
0.00843053
2.49264e-05
0.00840943
6.3148e-05
0.00852543
0.000185873
0.00880293
0.000606224
0.0102758
0.0024632
0.00977733
0.00814371
0.00931206
0.00814341
0.00870726
0.00811447
0.0083861
0.00813639
0.00825847
0.00851618
0.00830452
0.00901398
0.00855423
0.00945528
0.00901808
0.00963746
0.00931129
0.00951775
0.00840003
2.27603e-10
0.00840003
1.33971e-09
0.00840004
4.77086e-09
0.00840001
1.30987e-08
0.0084001
3.52923e-08
0.00839994
8.50473e-08
0.00840027
2.2673e-07
0.00839994
5.05304e-07
0.00840024
1.41485e-06
0.00840126
3.01395e-06
0.00840097
8.62585e-06
0.00840696
1.92459e-05
0.00841896
5.43687e-05
0.00844975
0.000147062
0.00858293
0.000479215
0.00920094
0.00184316
0.00991695
0.00743046
0.00958929
0.00847113
0.00916567
0.00853772
0.00888829
0.00841268
0.00878917
0.00861414
0.00886039
0.00894126
0.00909381
0.00922069
0.00946733
0.0092628
0.00891136
0.00986669
0.00840003
1.79755e-10
0.00840003
1.21726e-09
0.00840002
4.04299e-09
0.00840005
1.18891e-08
0.0084
2.97906e-08
0.00840012
7.97501e-08
0.00839997
1.82964e-07
0.00840013
5.01459e-07
0.00840041
1.09895e-06
0.00839951
3.07991e-06
0.00840285
6.74932e-06
0.00840137
1.88965e-05
0.00841032
4.52594e-05
0.00843121
0.000131023
0.00850429
0.000401614
0.00887549
0.00147325
0.00989197
0.00641437
0.00976638
0.00859695
0.00953839
0.00876545
0.00930406
0.00864687
0.00922782
0.0086893
0.00930602
0.0088621
0.00951456
0.00901172
0.00981135
0.00896484
0.00860547
0.0101162
0.00840003
1.65735e-10
0.00840003
1.0236e-09
0.00840004
3.57632e-09
0.00840002
9.94318e-09
0.00840006
2.67699e-08
0.00840001
6.56814e-08
0.00840008
1.69344e-07
0.00840018
4.0652e-07
0.00839973
1.03462e-06
0.00840186
2.50819e-06
0.00839771
6.36027e-06
0.00840948
1.57849e-05
0.00840199
4.09271e-05
0.00843275
0.000110725
0.00849056
0.000336299
0.00879791
0.00117096
0.0103756
0.00483503
0.0102157
0.00875684
0.00997471
0.00900618
0.00970252
0.00891862
0.00962572
0.00876551
0.00968284
0.00880357
0.0098503
0.00884335
0.0100823
0.00873252
0.00837713
0.0103099
0.00840003
1.28172e-10
0.00840003
8.06658e-10
0.00840004
2.77962e-09
0.00840002
7.89491e-09
0.00840007
2.05515e-08
0.0084
5.20579e-08
0.00840019
1.2908e-07
0.00840005
3.17358e-07
0.00840042
7.84325e-07
0.00840114
1.90893e-06
0.00840132
4.75074e-06
0.00840803
1.16578e-05
0.00841643
2.96553e-05
0.00844977
7.72028e-05
0.00856796
0.000221424
0.00902304
0.000715112
0.0110778
0.00277873
0.0109202
0.00891484
0.0106714
0.00925484
0.010311
0.00927878
0.0100866
0.00898981
0.0100591
0.00883011
0.0101574
0.00874424
0.0103186
0.00857046
0.00821572
0.0104799
0.00840003
1.06033e-10
0.00840003
6.27959e-10
0.00840004
2.26599e-09
0.00840002
6.12835e-09
0.00840006
1.67453e-08
0.00840001
4.04153e-08
0.00840013
1.04842e-07
0.00840007
2.46773e-07
0.00840022
6.32974e-07
0.00840094
1.48947e-06
0.00840021
3.80622e-06
0.00840632
9.10738e-06
0.00840642
2.33357e-05
0.00843128
5.9216e-05
0.0084828
0.00016577
0.00868504
0.000516529
0.00952544
0.00193517
0.0109751
0.0074628
0.0109173
0.00931271
0.0107073
0.00948882
0.0104712
0.00922594
0.0103976
0.00890324
0.0104379
0.0087031
0.0105342
0.00847346
0.00811339
0.0106359
0.00840003
8.13731e-11
0.00840003
5.15821e-10
0.00840004
1.76112e-09
0.00840002
5.04198e-09
0.00840006
1.30782e-08
0.00839999
3.33248e-08
0.0084002
8.28389e-08
0.00839983
2.0381e-07
0.0084009
5.06571e-07
0.00839915
1.23484e-06
0.00840399
3.0947e-06
0.00839713
7.56363e-06
0.00841641
1.92335e-05
0.00840211
4.87914e-05
0.00846729
0.000133301
0.00855117
0.000401655
0.00908538
0.00141803
0.0110161
0.00552522
0.0111596
0.00917004
0.0110726
0.00957666
0.0108455
0.00945364
0.0107153
0.00903382
0.0106995
0.00871823
0.0107412
0.00843076
0.00806184
0.010792
0.00840003
6.22896e-11
0.00840003
3.86467e-10
0.00840003
1.33943e-09
0.00840002
3.78104e-09
0.00840005
9.8921e-09
0.0084
2.48283e-08
0.00840017
6.22365e-08
0.0083999
1.50636e-07
0.00840077
3.78933e-07
0.0083995
8.98123e-07
0.0084039
2.28984e-06
0.00839825
5.39755e-06
0.00841892
1.39113e-05
0.00840736
3.38875e-05
0.00848752
9.03567e-05
0.00859482
0.000254561
0.00921085
0.00082627
0.0116437
0.00308204
0.0117339
0.00908039
0.01164
0.00967181
0.011382
0.00971254
0.0110962
0.00931947
0.0109845
0.00882999
0.0109644
0.00845032
0.00805958
0.0109656
0.00840003
4.52106e-11
0.00840003
2.9225e-10
0.00840003
9.89882e-10
0.00840003
2.85824e-09
0.00840004
7.33134e-09
0.00840002
1.87982e-08
0.0084001
4.56759e-08
0.00839994
1.14669e-07
0.00840062
2.75841e-07
0.00839935
6.86457e-07
0.00840376
1.65651e-06
0.00839658
4.11208e-06
0.0084194
1.00372e-05
0.00839275
2.52482e-05
0.00847192
6.43359e-05
0.00848604
0.000177041
0.00882041
0.000546795
0.00987487
0.00199512
0.0117368
0.00722443
0.0118507
0.0095593
0.0117039
0.00986033
0.0114159
0.00960828
0.0112805
0.00896475
0.0111988
0.00853162
0.0080994
0.0111581
0.00840003
3.24912e-11
0.00840003
2.25961e-10
0.00840003
7.25721e-10
0.00840003
2.19858e-09
0.00840004
5.40443e-09
0.00840002
1.443e-08
0.00840009
3.38752e-08
0.00839996
8.81789e-08
0.00840046
2.05174e-07
0.00839955
5.31861e-07
0.00840262
1.236e-06
0.00839766
3.20594e-06
0.00841351
7.55832e-06
0.00839303
1.95476e-05
0.00845197
4.83994e-05
0.00844102
0.000131194
0.0086569
0.00038483
0.00929343
0.00132503
0.0117164
0.00480714
0.0120079
0.00926766
0.012078
0.00979032
0.011928
0.00975832
0.0115897
0.00930283
0.0114524
0.00866822
0.00818937
0.0113619
0.00840003
2.60692e-11
0.00840003
1.54042e-10
0.00840003
5.55268e-10
0.00840003
1.50595e-09
0.00840004
4.07016e-09
0.00840003
9.91749e-09
0.00840007
2.5312e-08
0.00840003
6.03466e-08
0.00840019
1.52472e-07
0.0084002
3.60513e-07
0.00840059
9.09086e-07
0.00840173
2.15436e-06
0.00840282
5.43251e-06
0.00841101
1.30679e-05
0.00842438
3.3196e-05
0.00846987
8.45583e-05
0.00862248
0.000236475
0.00920459
0.000740084
0.0113659
0.00264336
0.0124186
0.00821452
0.0124132
0.00979495
0.0122311
0.00993958
0.0118906
0.00964286
0.0117292
0.00882909
0.00833465
0.0115825
0.00840003
1.76318e-11
0.00840003
1.13973e-10
0.00840003
3.8297e-10
0.00840003
1.11175e-09
0.00840004
2.84661e-09
0.00840003
7.24716e-09
0.00840007
1.7879e-08
0.0084
4.37617e-08
0.00840024
1.08501e-07
0.00839993
2.60453e-07
0.00840112
6.53005e-07
0.00839973
1.54852e-06
0.00840529
3.93714e-06
0.00840075
9.33319e-06
0.0084248
2.40401e-05
0.00842528
5.94374e-05
0.00853295
0.000161954
0.00875883
0.000481697
0.00972374
0.00169603
0.0121804
0.00574775
0.0125172
0.00945702
0.0125935
0.00986227
0.0124546
0.00978145
0.0120546
0.00922872
0.0085579
0.0118313
0.00840003
1.12724e-11
0.00840003
8.01387e-11
0.00840003
2.54049e-10
0.00840003
7.81717e-10
0.00840003
1.88617e-09
0.00840003
5.11031e-09
0.00840005
1.17288e-08
0.00840003
3.08347e-08
0.00840016
7.0514e-08
0.00839997
1.81985e-07
0.00840094
4.23684e-07
0.00839955
1.06602e-06
0.00840563
2.54394e-06
0.00839825
6.28857e-06
0.00842932
1.54555e-05
0.00841021
3.83135e-05
0.00852929
9.92794e-05
0.00867439
0.000276845
0.00952556
0.000880714
0.0122416
0.00301593
0.0129591
0.00873659
0.0129648
0.00985628
0.0127428
0.0100035
0.0124015
0.00956972
0.00881517
0.0121441
0.00840003
8.87872e-12
0.00840003
5.13996e-11
0.00840003
1.88263e-10
0.00840003
5.0261e-10
0.00840003
1.38076e-09
0.00840004
3.29901e-09
0.00840003
8.55719e-09
0.00840007
1.9997e-08
0.00840001
5.10471e-08
0.00840027
1.19519e-07
0.00839996
3.00912e-07
0.0084013
7.14968e-07
0.00840001
1.76916e-06
0.00840631
4.28675e-06
0.00840201
1.0512e-05
0.00843173
2.61893e-05
0.00843468
6.59529e-05
0.00857627
0.000177291
0.00888151
0.000532263
0.0100666
0.00185686
0.0126817
0.00610883
0.0129909
0.00954659
0.0131749
0.00981922
0.0129067
0.00983813
0.00919191
0.0125298
0.00840003
5.57579e-12
0.00840003
3.54818e-11
0.00840003
1.22301e-10
0.00840003
3.46469e-10
0.00840003
9.00678e-10
0.00840003
2.27006e-09
0.00840003
5.56738e-09
0.00840005
1.37246e-08
0.00840005
3.3153e-08
0.00840009
8.14909e-08
0.00840024
1.96009e-07
0.0084002
4.82214e-07
0.00840164
1.15634e-06
0.00840051
2.85982e-06
0.00841086
6.84846e-06
0.00840446
1.71658e-05
0.00845505
4.21142e-05
0.00848748
0.00010989
0.0087465
0.00030619
0.00959837
0.000983141
0.012416
0.00328771
0.0133036
0.0086579
0.0133681
0.00975496
0.0132367
0.00997005
0.00957176
0.0128584
0.00840003
3.71998e-12
0.00840003
2.34138e-11
0.00840003
8.21594e-11
0.00840003
2.28085e-10
0.00840003
6.05388e-10
0.00840003
1.49878e-09
0.00840003
3.71615e-09
0.00840004
9.1491e-09
0.00840005
2.18736e-08
0.00840006
5.48387e-08
0.00840019
1.28266e-07
0.00840009
3.26371e-07
0.00840124
7.54122e-07
0.00839999
1.93299e-06
0.00840807
4.47728e-06
0.00840031
1.15124e-05
0.00844331
2.72624e-05
0.00843414
7.12842e-05
0.0086166
0.000186168
0.00897208
0.000563333
0.0103823
0.00191472
0.0130055
0.00602129
0.013348
0.0094116
0.0135786
0.00974016
0.00977225
0.0133791
0.00840003
2.45834e-12
0.00840003
1.54412e-11
0.00840003
5.30853e-11
0.00840003
1.50616e-10
0.00840003
3.89992e-10
0.00840003
9.78418e-10
0.00840004
2.41883e-09
0.00840003
5.86472e-09
0.00840006
1.44678e-08
0.00840003
3.449e-08
0.00840017
8.54303e-08
0.00840012
2.02295e-07
0.00840062
5.03782e-07
0.00840104
1.18516e-06
0.00840247
2.97239e-06
0.0084073
6.99975e-06
0.00841564
1.76519e-05
0.00844358
4.29435e-05
0.00852346
0.000111626
0.00876763
0.000308271
0.00970668
0.000983035
0.0125496
0.00316621
0.0136108
0.00834958
0.013675
0.0096767
0.00978164
0.0136662
0.00840003
1.48741e-12
0.00840003
1.02594e-11
0.00840003
3.3184e-11
0.00840003
9.99231e-11
0.00840003
2.45313e-10
0.00840003
6.48527e-10
0.00840003
1.5204e-09
0.00840003
3.87603e-09
0.00840005
9.09952e-09
0.00840003
2.27371e-08
0.00840014
5.40707e-08
0.00840002
1.32389e-07
0.00840066
3.21719e-07
0.0084001
7.7196e-07
0.00840331
1.90634e-06
0.00840138
4.53045e-06
0.00841573
1.14012e-05
0.00841662
2.72052e-05
0.00848204
7.04937e-05
0.00857053
0.0001827
0.00904383
0.000546675
0.0103619
0.00182269
0.0131861
0.00552674
0.0137052
0.00915735
0.00961041
0.013877
0.00840003
9.82264e-13
0.00840003
6.20449e-12
0.00840003
2.15715e-11
0.00840003
6.05714e-11
0.00840003
1.58379e-10
0.00840003
3.96614e-10
0.00840003
9.66807e-10
0.00840003
2.39524e-09
0.00840003
5.67395e-09
0.00840005
1.41551e-08
0.00840005
3.30617e-08
0.00840012
8.31371e-08
0.00840026
1.92396e-07
0.00840035
4.85307e-07
0.00840181
1.12564e-06
0.00840126
2.82451e-06
0.00841197
6.61994e-06
0.00840859
1.65852e-05
0.0084651
4.01129e-05
0.00850628
0.000103401
0.00881418
0.000279898
0.00973437
0.000872349
0.0125492
0.0027209
0.0139031
0.00779619
0.0095513
0.0139618
0.00840003
6.46908e-13
0.00840003
3.78109e-12
0.00840003
1.38801e-11
0.00840003
3.69254e-11
0.00840003
1.01361e-10
0.00840003
2.41214e-10
0.00840003
6.22508e-10
0.00840003
1.44869e-09
0.00840003
3.66103e-09
0.00840005
8.55248e-09
0.00840003
2.13023e-08
0.00840014
5.04731e-08
0.00840003
1.23197e-07
0.00840063
2.97909e-07
0.00840017
7.13751e-07
0.00840324
1.75377e-06
0.0084015
4.15503e-06
0.00841582
1.0397e-05
0.00841597
2.47021e-05
0.00848115
6.35038e-05
0.00856031
0.000162225
0.00899649
0.000475038
0.0101355
0.00155512
0.0132131
0.00471835
0.00874913
0.0140138
0.00840003
3.74271e-13
0.00840003
2.43801e-12
0.00840003
8.16477e-12
0.00840003
2.37341e-11
0.00840003
6.01978e-11
0.00840003
1.52725e-10
0.00840003
3.72361e-10
0.00840003
9.05278e-10
0.00840003
2.21647e-09
0.00840003
5.25443e-09
0.00840005
1.30222e-08
0.00840005
3.0455e-08
0.00840012
7.61836e-08
0.00840023
1.76529e-07
0.00840038
4.43605e-07
0.0084016
1.02931e-06
0.00840134
2.57369e-06
0.0084107
6.03692e-06
0.00840819
1.50678e-05
0.00845874
3.63038e-05
0.00849282
9.28974e-05
0.00875954
0.000246784
0.00953585
0.00074949
0.0119082
0.00235527
0.00670056
0.0139479
0.00840003
2.2278e-13
0.00840003
1.49123e-12
0.00840003
4.96432e-12
0.00840003
1.45548e-11
0.00840003
3.63854e-11
0.00840003
9.47272e-11
0.00840003
2.21809e-10
0.00840003
5.66317e-10
0.00840003
1.30428e-09
0.00840003
3.30894e-09
0.00840004
7.62513e-09
0.00840003
1.91489e-08
0.00840012
4.46981e-08
0.00840005
1.10314e-07
0.00840057
2.61996e-07
0.0084002
6.35142e-07
0.00840301
1.53954e-06
0.00840158
3.66199e-06
0.00841558
9.07374e-06
0.00841418
2.15285e-05
0.0084807
5.47807e-05
0.00854551
0.000137859
0.0089508
0.000390644
0.0100337
0.00123919
0.00370838
0.0130249
0.00840003
1.47146e-13
0.00840003
8.54693e-13
0.00840003
3.1456e-12
0.00840003
8.34974e-12
0.00840003
2.29686e-11
0.00840003
5.43399e-11
0.00840003
1.4013e-10
0.00840003
3.24525e-10
0.00840003
8.19899e-10
0.00840003
1.91007e-09
0.00840003
4.73435e-09
0.00840005
1.11957e-08
0.00840004
2.72772e-08
0.00840015
6.5705e-08
0.00840012
1.56668e-07
0.00840061
3.85337e-07
0.00840087
9.02825e-07
0.00840251
2.25761e-06
0.00840635
5.23368e-06
0.00841319
1.32824e-05
0.0084383
3.12074e-05
0.00849526
8.07689e-05
0.00867499
0.000207587
0.00929769
0.000615729
0.00193373
0.0110751
0.00840003
8.09507e-14
0.00840003
5.25424e-13
0.00840003
1.77538e-12
0.00840003
5.11893e-12
0.00840003
1.30152e-11
0.00840003
3.30262e-11
0.00840003
7.97217e-11
0.00840003
1.95445e-10
0.00840003
4.68466e-10
0.00840003
1.13319e-09
0.00840004
2.72586e-09
0.00840003
6.53395e-09
0.00840006
1.57705e-08
0.00840006
3.76379e-08
0.00840017
9.12683e-08
0.00840028
2.16367e-07
0.00840062
5.26115e-07
0.00840193
1.24644e-06
0.0084027
3.03426e-06
0.00841294
7.2011e-06
0.00841549
1.76552e-05
0.00847394
4.27695e-05
0.00854355
0.000108559
0.00889922
0.000291318
0.000886581
0.00992373
0.00840003
4.58165e-14
0.00840003
3.14036e-13
0.00840003
1.02489e-12
0.00840003
3.05507e-12
0.00840003
7.52141e-12
0.00840003
1.97033e-11
0.00840003
4.58847e-11
0.00840003
1.16563e-10
0.00840003
2.68949e-10
0.00840003
6.73342e-10
0.00840003
1.56783e-09
0.00840003
3.85065e-09
0.00840005
9.14189e-09
0.00840004
2.1962e-08
0.00840012
5.31863e-08
0.00840015
1.25038e-07
0.00840042
3.09512e-07
0.00840098
7.13318e-07
0.00840161
1.79052e-06
0.00840685
4.10256e-06
0.00840742
1.03781e-05
0.00844176
2.40529e-05
0.00845872
6.18272e-05
0.00863877
0.000153864
0.000441301
0.00903366
0.00840003
2.92295e-14
0.00840003
1.71598e-13
0.00840003
6.28036e-13
0.00840003
1.67151e-12
0.00840003
4.57612e-12
0.00840003
1.08188e-11
0.00840003
2.78115e-11
0.00840003
6.42915e-11
0.00840003
1.61547e-10
0.00840003
3.74599e-10
0.00840003
9.26624e-10
0.00840003
2.18057e-09
0.00840003
5.28933e-09
0.00840005
1.26581e-08
0.00840006
3.01607e-08
0.00840013
7.35725e-08
0.00840025
1.71924e-07
0.00840047
4.26049e-07
0.00840157
9.8386e-07
0.00840198
2.46567e-06
0.00841014
5.67235e-06
0.00841089
1.43201e-05
0.00845659
3.35776e-05
0.00849711
8.63283e-05
0.000221437
0.00874632
0.00840003
1.5172e-14
0.00840003
1.03635e-13
0.00840003
3.38383e-13
0.00840003
1.00704e-12
0.00840003
2.47831e-12
0.00840003
6.45925e-12
0.00840003
1.50882e-11
0.00840003
3.79951e-11
0.00840003
8.82284e-11
0.00840003
2.18171e-10
0.00840003
5.11252e-10
0.00840003
1.24396e-09
0.00840004
2.95318e-09
0.00840003
7.06794e-09
0.00840006
1.70478e-08
0.00840007
4.01009e-08
0.0084002
9.80437e-08
0.0084003
2.279e-07
0.00840079
5.62199e-07
0.00840202
1.29636e-06
0.00840358
3.21679e-06
0.00841313
7.43445e-06
0.00842072
1.84975e-05
0.0084766
4.38644e-05
0.000112131
0.00856604
0.00840003
9.29373e-15
0.00840003
5.60372e-14
0.00840003
1.99422e-13
0.00840003
5.45471e-13
0.00840003
1.4514e-12
0.00840003
3.52603e-12
0.00840003
8.77379e-12
0.00840003
2.08349e-11
0.00840003
5.07645e-11
0.00840003
1.20584e-10
0.00840003
2.90518e-10
0.00840003
6.9242e-10
0.00840003
1.65592e-09
0.00840004
3.97614e-09
0.00840004
9.41496e-09
0.00840005
2.27813e-08
0.00840013
5.36469e-08
0.00840012
1.30016e-07
0.00840068
3.06235e-07
0.00840042
7.40681e-07
0.00840394
1.75004e-06
0.00840244
4.2241e-06
0.00842203
1.00747e-05
0.00841779
2.43977e-05
5.98591e-05
0.008514
0.00840003
4.87972e-15
0.00840003
3.169e-14
0.00840003
1.09703e-13
0.00840003
3.07465e-13
0.00840003
8.01746e-13
0.00840003
1.98072e-12
0.00840003
4.83876e-12
0.00840003
1.17043e-11
0.00840003
2.78905e-11
0.00840003
6.79061e-11
0.00840003
1.58626e-10
0.00840003
3.90954e-10
0.00840003
9.01706e-10
0.00840003
2.23991e-09
0.00840004
5.1371e-09
0.00840004
1.27768e-08
0.00840009
2.93538e-08
0.00840008
7.26774e-08
0.0084004
1.68152e-07
0.00840026
4.12292e-07
0.00840219
9.65645e-07
0.0084015
2.34119e-06
0.00841203
5.57218e-06
0.00840987
1.33915e-05
3.26649e-05
0.00846324
0.00840003
2.86538e-15
0.00840003
1.76545e-14
0.00840003
6.02005e-14
0.00840003
1.71345e-13
0.00840003
4.38315e-13
0.00840003
1.09464e-12
0.00840003
2.66535e-12
0.00840003
6.38877e-12
0.00840003
1.55469e-11
0.00840003
3.63445e-11
0.00840003
8.95001e-11
0.00840003
2.06175e-10
0.00840003
5.12163e-10
0.00840003
1.17024e-09
0.00840003
2.91204e-09
0.00840005
6.67292e-09
0.00840004
1.64877e-08
0.00840012
3.80645e-08
0.00840009
9.3163e-08
0.00840052
2.17781e-07
0.00840047
5.24507e-07
0.00840262
1.24502e-06
0.00840314
2.95996e-06
0.00841309
7.14554e-06
1.68327e-05
0.00842164
0.00840003
1.46167e-15
0.00840003
9.52022e-15
0.00840003
3.32578e-14
0.00840003
9.28778e-14
0.00840003
2.40773e-13
0.00840003
5.98519e-13
0.00840003
1.44463e-12
0.00840003
3.52259e-12
0.00840003
8.28769e-12
0.00840003
2.03001e-11
0.00840003
4.69788e-11
0.00840003
1.15886e-10
0.00840003
2.66123e-10
0.00840003
6.58287e-10
0.00840003
1.51119e-09
0.00840003
3.71422e-09
0.00840005
8.61279e-09
0.00840004
2.09156e-08
0.00840014
4.9025e-08
0.00840012
1.17465e-07
0.00840064
2.797e-07
0.00840066
6.59008e-07
0.00840316
1.58977e-06
0.00840443
3.7086e-06
9.07942e-06
0.00841549
0.00840003
9.13522e-16
0.00840003
5.05352e-15
0.00840003
1.78364e-14
0.00840003
4.9353e-14
0.00840003
1.30952e-13
0.00840003
3.15589e-13
0.00840003
7.9074e-13
0.00840003
1.83727e-12
0.00840003
4.56679e-12
0.00840003
1.04626e-11
0.00840003
2.59736e-11
0.00840003
5.94119e-11
0.00840003
1.467e-10
0.00840003
3.37393e-10
0.00840003
8.25012e-10
0.00840003
1.92197e-09
0.00840003
4.62261e-09
0.00840005
1.09328e-08
0.00840006
2.58851e-08
0.00840013
6.22424e-08
0.00840026
1.4479e-07
0.00840049
3.53171e-07
0.00840155
8.12684e-07
0.00840217
2.00056e-06
4.58093e-06
0.00840962
0.00840003
3.70662e-16
0.00840003
2.66039e-15
0.00840003
9.33989e-15
0.00840003
2.63671e-14
0.00840003
6.76704e-14
0.00840003
1.68223e-13
0.00840003
4.04058e-13
0.00840003
9.84367e-13
0.00840003
2.30451e-12
0.00840003
5.62382e-12
0.00840003
1.29791e-11
0.00840003
3.18467e-11
0.00840003
7.29547e-11
0.00840003
1.79591e-10
0.00840003
4.10458e-10
0.00840003
1.00744e-09
0.00840004
2.31412e-09
0.00840004
5.63257e-09
0.00840006
1.30614e-08
0.00840007
3.13648e-08
0.00840019
7.37166e-08
0.00840028
1.74378e-07
0.00840076
4.16026e-07
0.00840172
9.67718e-07
2.34593e-06
0.00840351
0.00840003
1.4466e-16
0.00840003
1.34709e-15
0.00840003
4.60781e-15
0.00840003
1.33172e-14
0.00840003
3.32041e-14
0.00840003
8.56974e-14
0.00840003
1.98823e-13
0.00840003
4.92695e-13
0.00840003
1.13778e-12
0.00840003
2.75929e-12
0.00840003
6.42977e-12
0.00840003
1.52726e-11
0.00840003
3.61602e-11
0.00840003
8.40478e-11
0.00840003
2.02251e-10
0.00840003
4.61776e-10
0.00840003
1.12508e-09
0.00840004
2.53034e-09
0.00840004
6.21777e-09
0.00840007
1.38643e-08
0.00840006
3.40712e-08
0.00840027
7.58475e-08
0.00840025
1.84855e-07
0.00840133
4.14993e-07
9.91384e-07
0.00840156
0.00840003
1.87106e-16
0.00840003
5.94658e-16
0.00840003
2.26211e-15
0.00840003
6.15743e-15
0.00840003
1.60326e-14
0.00840003
3.89438e-14
0.00840003
9.65195e-14
0.00840003
2.24181e-13
0.00840003
5.45411e-13
0.00840003
1.24567e-12
0.00840003
3.02169e-12
0.00840003
6.84031e-12
0.00840003
1.66169e-11
0.00840003
3.72898e-11
0.00840003
9.05327e-11
0.00840003
2.03192e-10
0.00840003
4.87497e-10
0.00840003
1.10441e-09
0.00840004
2.58732e-09
0.00840004
5.98886e-09
0.00840007
1.35671e-08
0.00840007
3.21509e-08
0.00840031
7.06191e-08
0.00840014
1.69593e-07
3.6341e-07
0.00840183
0.00840003
-2.87585e-17
0.00840003
2.28523e-16
0.00840003
9.58652e-16
0.00840003
2.30125e-15
0.00840003
6.78453e-15
0.00840003
1.47307e-14
0.00840003
4.00724e-14
0.00840003
8.32671e-14
0.00840003
2.19585e-13
0.00840003
4.61961e-13
0.00840003
1.1704e-12
0.00840003
2.58277e-12
0.00840003
6.13106e-12
0.00840003
1.44489e-11
0.00840003
3.15079e-11
0.00840003
8.01976e-11
0.00840003
1.60994e-10
0.00840003
4.38943e-10
0.00840004
8.17272e-10
0.00840003
2.34866e-09
0.00840006
4.16903e-09
0.00840001
1.22216e-08
0.00840022
2.11022e-08
0.00839995
6.15846e-08
1.08562e-07
0.00840101
0.00840003
0.00840003
0.00840003
0.00840003
0.00840003
0.00840003
0.00840003
0.00840003
0.00840003
0.00840003
0.00840003
0.00840003
0.00840003
0.00840003
0.00840003
0.00840003
0.00840003
0.00840003
0.00840003
0.00840003
0.00840003
0.00840006
0.00839999
0.00840028
0.00839962
0.00484796
0.00405181
0.00322759
0.00162062
0.0025325
0.000695013
0.00225495
0.000277068
0.00223674
1.70906e-05
0.00242642
-0.000190424
0.0026452
-0.000219696
0.00276829
-0.000123882
0.00281047
-4.30501e-05
0.0028048
4.73881e-06
0.00278058
2.31801e-05
0.0027658
1.35819e-05
0.00276081
3.72221e-06
0.00276647
-7.04424e-06
0.00277514
-1.00967e-05
0.00278138
-7.90168e-06
0.00278325
-3.33148e-06
0.00278087
2.03345e-07
0.00277668
1.90179e-06
0.00277174
2.60586e-06
0.00276654
2.57149e-06
0.00276059
2.74807e-06
0.00275177
4.31136e-06
0.00273565
8.89316e-06
0.00270286
1.96164e-05
0.00263334
4.3637e-05
0.0024813
9.91399e-05
0.00212009
0.000244193
0.0012065
0.000661806
0.000145465
0.000946505
-0.000622883
0.000768318
-0.00123714
0.000643981
-0.00165441
0.00045986
-0.00196085
0.000321383
-0.00213804
0.000173889
-0.00216977
2.56703e-05
-0.00210465
-7.16971e-05
-0.00198152
-0.000129692
-0.00178004
-0.000209446
-0.00146945
-0.000321519
-0.00110504
-0.000375478
-0.000716483
-0.000398546
-0.000323415
-0.000401698
8.02766e-05
-0.000411628
0.0004459
-0.000372381
0.000775446
-0.000335494
0.00107712
-0.000307476
0.00135367
-0.000283093
0.00160584
-0.000259636
0.00183474
-0.000237009
0.00204766
-0.000222086
0.00225259
-0.000214255
0.00244531
-0.000201508
0.00262519
-0.000187615
0.00279414
-0.000175201
0.00295267
-0.000163413
0.0031021
-0.000153286
0.00324277
-0.000143591
0.00337588
-0.000135136
0.00350147
-0.000126883
0.00362059
-0.00011954
0.00373314
-0.000112319
0.00383971
-0.000105843
0.00394026
-9.9496e-05
0.00403519
-9.38098e-05
0.00412433
-8.82218e-05
0.00420816
-8.31575e-05
0.00428654
-7.81128e-05