/*--------------------------------*- C++ -*----------------------------------*\
  =========                 |
  \\      /  F ield         | OpenFOAM: The Open Source CFD Toolbox
   \\    /   O peration     | Website:  https://openfoam.org
    \\  /    A nd           | Version:  10
     \\/     M anipulation  |
\*---------------------------------------------------------------------------*/
FoamFile
{
    format      ascii;
    class       volScalarField;
    location    "0.06";
    object      Exp1;
}
// * * * * * * * * * * * * * * * * * * * * * * * * * * * * * * * * * * * * * //

dimensions      [0 0 0 0 0 0 0];

internalField   uniform 0;

boundaryField
{
    frontAndBack
    {
        type            empty;
    }
    inlet
    {
        type            calculated;
        value           uniform 0;
    }
    outlet
    {
        type            calculated;
        value           uniform 0;
    }
    substrate
    {
        type            calculated;
        value           nonuniform List<scalar> 
400
(
0.131784
0.122408
0.114172
0.106714
0.0998496
0.0934721
0.0875129
0.0819247
0.076673
0.071731
0.0670772
0.0626937
0.0585647
0.0546766
0.0510168
0.0475737
0.0443364
0.0412946
0.0384387
0.0357591
0.033247
0.0308937
0.0286907
0.0266302
0.0247042
0.0229054
0.0212265
0.0196608
0.0182015
0.0168423
0.0155773
0.0144006
0.0133067
0.0122904
0.0113467
0.010471
0.0096588
0.00890583
0.00820816
0.00756204
0.00696394
0.00641055
0.00589876
0.00542565
0.00498849
0.00458471
0.00421193
0.00386791
0.00355055
0.00325791
0.00298817
0.00273965
0.00251076
0.00230003
0.00210611
0.00192773
0.00176371
0.00161295
0.00147444
0.00134723
0.00123046
0.00112331
0.00102503
0.000934922
0.000852348
0.00077671
0.000707455
0.000644073
0.000586092
0.000533076
0.000484622
0.00044036
0.000399944
0.000363058
0.000329411
0.000298732
0.000270774
0.000245308
0.000222123
0.000201026
0.000181838
0.000164396
0.000148549
0.000134158
0.000121097
0.000109248
9.85061e-05
8.87719e-05
7.9956e-05
7.1976e-05
6.47567e-05
5.82291e-05
5.23303e-05
4.70026e-05
4.21936e-05
3.7855e-05
3.39433e-05
3.04183e-05
2.72436e-05
2.43862e-05
2.18158e-05
1.9505e-05
1.74287e-05
1.55643e-05
1.3891e-05
1.23904e-05
1.10452e-05
9.84019e-06
8.76138e-06
7.79614e-06
6.93304e-06
6.16175e-06
5.47293e-06
4.85814e-06
4.30977e-06
3.82094e-06
3.38546e-06
2.99776e-06
2.65281e-06
2.34608e-06
2.07353e-06
1.83149e-06
1.61669e-06
1.42618e-06
1.25732e-06
1.10775e-06
9.7536e-07
8.58242e-07
7.54705e-07
6.63234e-07
5.82476e-07
5.11222e-07
4.48396e-07
3.93036e-07
3.44289e-07
3.01392e-07
2.63668e-07
2.30516e-07
2.01401e-07
1.75848e-07
1.53437e-07
1.33794e-07
1.1659e-07
1.0153e-07
8.83581e-08
7.68439e-08
6.6786e-08
5.80061e-08
5.03471e-08
4.36703e-08
3.78538e-08
3.27901e-08
2.83849e-08
2.45551e-08
2.12278e-08
1.83391e-08
1.58329e-08
1.366e-08
1.17774e-08
1.01475e-08
8.73721e-09
7.51787e-09
6.46434e-09
5.5547e-09
4.76983e-09
4.0931e-09
3.51e-09
3.00794e-09
2.57594e-09
2.20449e-09
1.88532e-09
1.61126e-09
1.37611e-09
1.17448e-09
1.00171e-09
8.53768e-10
7.27183e-10
6.18944e-10
5.26456e-10
4.47484e-10
3.80098e-10
3.22639e-10
2.73679e-10
2.3199e-10
1.96516e-10
1.66353e-10
1.40724e-10
1.18961e-10
1.00495e-10
8.48376e-11
7.15704e-11
6.03365e-11
5.08311e-11
4.27938e-11
3.60026e-11
3.02684e-11
2.543e-11
2.13503e-11
1.79129e-11
1.50185e-11
1.25832e-11
1.05355e-11
8.81503e-12
7.37042e-12
6.15833e-12
5.14203e-12
4.2905e-12
3.57753e-12
2.98099e-12
2.48221e-12
2.06547e-12
1.71751e-12
1.4272e-12
1.18514e-12
9.83456e-13
8.15537e-13
6.75824e-13
5.59662e-13
4.63148e-13
3.83015e-13
3.16529e-13
2.61405e-13
2.15733e-13
1.77918e-13
1.46631e-13
1.20764e-13
9.9391e-14
8.1745e-14
6.71858e-14
5.51819e-14
4.52916e-14
3.71486e-14
3.04488e-14
2.49402e-14
2.04143e-14
1.66983e-14
1.36493e-14
1.11495e-14
9.10127e-15
7.42426e-15
6.05212e-15
4.93022e-15
4.01355e-15
3.26509e-15
2.6544e-15
2.15647e-15
1.75074e-15
1.42039e-15
1.15159e-15
9.33022e-16
7.55426e-16
6.11219e-16
4.94206e-16
3.99322e-16
3.22438e-16
2.6018e-16
2.09801e-16
1.69063e-16
1.36143e-16
1.09559e-16
8.81063e-17
7.08066e-17
5.68653e-17
4.56382e-17
3.6603e-17
2.93368e-17
2.34972e-17
1.88074e-17
1.50435e-17
1.20248e-17
9.60535e-18
7.66759e-18
6.11664e-18
4.87615e-18
3.88463e-18
3.09266e-18
2.4605e-18
1.95626e-18
1.55431e-18
1.23413e-18
9.79247e-19
7.7649e-19
6.15305e-19
4.87254e-19
3.85596e-19
3.04945e-19
2.41002e-19
1.90341e-19
1.5023e-19
1.18493e-19
9.33993e-20
7.35708e-20
5.79137e-20
4.55585e-20
3.58156e-20
2.81377e-20
2.20911e-20
1.73325e-20
1.359e-20
1.06486e-20
8.33839e-21
6.52507e-21
5.10275e-21
3.98785e-21
3.1145e-21
2.43083e-21
1.896e-21
1.47787e-21
1.15121e-21
8.96162e-22
6.97167e-22
5.42007e-22
4.21106e-22
3.2696e-22
2.53698e-22
1.96724e-22
1.52447e-22
1.18058e-22
9.13681e-23
7.06663e-23
5.46197e-23
4.21898e-23
3.25675e-23
2.51237e-23
1.93688e-23
1.49225e-23
1.14896e-23
8.84073e-24
6.79819e-24
5.22421e-24
4.01209e-24
3.07924e-24
2.36178e-24
1.81033e-24
1.38675e-24
1.06161e-24
8.12186e-25
6.20968e-25
4.7447e-25
3.62303e-25
2.76478e-25
2.1085e-25
1.60699e-25
1.224e-25
9.3169e-26
7.08744e-26
5.38809e-26
4.09361e-26
3.10818e-26
2.35848e-26
1.78849e-26
1.35541e-26
1.02655e-26
7.76999e-27
5.87745e-27
4.44311e-27
3.35671e-27
2.53438e-27
1.91231e-27
1.44203e-27
1.08674e-27
8.1847e-28
6.16045e-28
4.63398e-28
3.4836e-28
2.61718e-28
1.96504e-28
1.47449e-28
1.10572e-28
8.28668e-29
6.20655e-29
4.64573e-29
3.47529e-29
2.59814e-29
1.9412e-29
1.44948e-29
1.08165e-29
8.06677e-30
6.0124e-30
4.47849e-30
3.33391e-30
2.48035e-30
1.84421e-30
1.3704e-30
1.01773e-30
7.55379e-31
5.6035e-31
4.15465e-31
3.07912e-31
2.28141e-31
1.69039e-31
1.25315e-31
9.30397e-32
6.92997e-32
5.1945e-32
3.93979e-32
3.05137e-32
2.44793e-32
2.07407e-32
1.89539e-32
)
;
    }
    Wall
    {
        type            calculated;
        value           nonuniform List<scalar> 
400
(
0.131784
0.122408
0.114172
0.106714
0.0998495
0.093472
0.0875128
0.0819247
0.076673
0.0717311
0.0670773
0.0626938
0.0585649
0.0546769
0.0510171
0.047574
0.0443367
0.041295
0.038439
0.0357595
0.0332474
0.0308941
0.0286912
0.0266306
0.0247047
0.0229058
0.021227
0.0196612
0.0182019
0.0168428
0.0155777
0.014401
0.0133071
0.0122908
0.0113472
0.0104714
0.00965918
0.0089062
0.00820851
0.00756237
0.00696426
0.00641085
0.00589905
0.00542593
0.00498875
0.00458496
0.00421216
0.00386812
0.00355075
0.0032581
0.00298835
0.00273982
0.00251091
0.00230018
0.00210625
0.00192786
0.00176383
0.00161306
0.00147454
0.00134733
0.00123055
0.00112339
0.00102511
0.000934997
0.000852418
0.000776775
0.000707515
0.000644129
0.000586144
0.000533125
0.000484668
0.000440401
0.000399983
0.000363094
0.000329444
0.000298763
0.000270803
0.000245335
0.000222148
0.000201049
0.000181859
0.000164415
0.000148566
0.000134174
0.000121112
0.000109262
9.85189e-05
8.87837e-05
7.99668e-05
7.1986e-05
6.47658e-05
5.82375e-05
5.2338e-05
4.70097e-05
4.22e-05
3.78609e-05
3.39486e-05
3.04232e-05
2.72482e-05
2.43904e-05
2.18196e-05
1.95084e-05
1.74318e-05
1.55671e-05
1.38936e-05
1.23927e-05
1.10473e-05
9.84213e-06
8.76314e-06
7.79774e-06
6.93449e-06
6.16307e-06
5.47412e-06
4.85922e-06
4.31074e-06
3.82182e-06
3.38625e-06
2.99847e-06
2.65345e-06
2.34667e-06
2.07405e-06
1.83196e-06
1.61711e-06
1.42656e-06
1.25766e-06
1.10806e-06
9.75635e-07
8.58489e-07
7.54926e-07
6.63432e-07
5.82653e-07
5.1138e-07
4.48537e-07
3.93162e-07
3.44401e-07
3.01492e-07
2.63757e-07
2.30596e-07
2.01472e-07
1.75911e-07
1.53493e-07
1.33844e-07
1.16633e-07
1.01569e-07
8.83923e-08
7.68742e-08
6.68128e-08
5.80298e-08
5.03679e-08
4.36887e-08
3.787e-08
3.28044e-08
2.83975e-08
2.45662e-08
2.12375e-08
1.83477e-08
1.58404e-08
1.36666e-08
1.17832e-08
1.01525e-08
8.74162e-09
7.52173e-09
6.46771e-09
5.55764e-09
4.7724e-09
4.09534e-09
3.51196e-09
3.00963e-09
2.57741e-09
2.20577e-09
1.88643e-09
1.61223e-09
1.37695e-09
1.1752e-09
1.00234e-09
8.54313e-10
7.27654e-10
6.19351e-10
5.26808e-10
4.47787e-10
3.80359e-10
3.22864e-10
2.73873e-10
2.32157e-10
1.9666e-10
1.66477e-10
1.40829e-10
1.19052e-10
1.00573e-10
8.49042e-11
7.16274e-11
6.03853e-11
5.08728e-11
4.28294e-11
3.6033e-11
3.02943e-11
2.5452e-11
2.13691e-11
1.79288e-11
1.50321e-11
1.25947e-11
1.05453e-11
8.82334e-12
7.37747e-12
6.1643e-12
5.14708e-12
4.29478e-12
3.58114e-12
2.98404e-12
2.48478e-12
2.06764e-12
1.71934e-12
1.42874e-12
1.18643e-12
9.84546e-13
8.16452e-13
6.76593e-13
5.60307e-13
4.63689e-13
3.83468e-13
3.16909e-13
2.61722e-13
2.15998e-13
1.7814e-13
1.46816e-13
1.20918e-13
9.95196e-14
8.1852e-14
6.72749e-14
5.5256e-14
4.53532e-14
3.71998e-14
3.04912e-14
2.49754e-14
2.04435e-14
1.67224e-14
1.36693e-14
1.1166e-14
9.11493e-15
7.43553e-15
6.06143e-15
4.93789e-15
4.01987e-15
3.2703e-15
2.65869e-15
2.15999e-15
1.75364e-15
1.42276e-15
1.15354e-15
9.34619e-16
7.56734e-16
6.1229e-16
4.95081e-16
4.00038e-16
3.23022e-16
2.60657e-16
2.1019e-16
1.6938e-16
1.36401e-16
1.09769e-16
8.82775e-17
7.09457e-17
5.69783e-17
4.57299e-17
3.66774e-17
2.93971e-17
2.35461e-17
1.88469e-17
1.50754e-17
1.20506e-17
9.62621e-18
7.68443e-18
6.13022e-18
4.88709e-18
3.89344e-18
3.09975e-18
2.46621e-18
1.96084e-18
1.55799e-18
1.23708e-18
9.81617e-19
7.78389e-19
6.16826e-19
4.88472e-19
3.86569e-19
3.05723e-19
2.41624e-19
1.90837e-19
1.50626e-19
1.18809e-19
9.36503e-20
7.37707e-20
5.80726e-20
4.56848e-20
3.59159e-20
2.82173e-20
2.21543e-20
1.73826e-20
1.36297e-20
1.068e-20
8.36321e-21
6.54469e-21
5.11825e-21
4.00008e-21
3.12415e-21
2.43844e-21
1.90199e-21
1.48259e-21
1.15492e-21
8.99079e-22
6.99459e-22
5.43806e-22
4.22517e-22
3.28067e-22
2.54565e-22
1.97403e-22
1.52978e-22
1.18474e-22
9.16925e-23
7.09196e-23
5.48174e-23
4.23439e-23
3.26877e-23
2.52172e-23
1.94416e-23
1.49792e-23
1.15336e-23
8.87491e-24
6.82472e-24
5.24479e-24
4.02804e-24
3.09159e-24
2.37134e-24
1.81773e-24
1.39247e-24
1.06603e-24
8.15597e-25
6.23601e-25
4.76499e-25
3.63867e-25
2.77682e-25
2.11777e-25
1.61412e-25
1.22947e-25
9.35896e-26
7.11972e-26
5.41285e-26
4.11259e-26
3.12271e-26
2.36961e-26
1.797e-26
1.36191e-26
1.03152e-26
7.80795e-27
5.90642e-27
4.4652e-27
3.37355e-27
2.5472e-27
1.92207e-27
1.44946e-27
1.09238e-27
8.22755e-28
6.19298e-28
4.65866e-28
3.5023e-28
2.63135e-28
1.97577e-28
1.48261e-28
1.11186e-28
8.33309e-29
6.2416e-29
4.67219e-29
3.49525e-29
2.61319e-29
1.95253e-29
1.45801e-29
1.08807e-29
8.11504e-30
6.04867e-30
4.50574e-30
3.35435e-30
2.49568e-30
1.8557e-30
1.37901e-30
1.02417e-30
7.60202e-31
5.63956e-31
4.1816e-31
3.09925e-31
2.29644e-31
1.70161e-31
1.26153e-31
9.36658e-32
6.97689e-32
5.22988e-32
3.96677e-32
3.07235e-32
2.46468e-32
2.08777e-32
1.90744e-32
)
;
    }
}


// ************************************************************************* //
