/*--------------------------------*- C++ -*----------------------------------*\
  =========                 |
  \\      /  F ield         | OpenFOAM: The Open Source CFD Toolbox
   \\    /   O peration     | Website:  https://openfoam.org
    \\  /    A nd           | Version:  10
     \\/     M anipulation  |
\*---------------------------------------------------------------------------*/
FoamFile
{
    format      ascii;
    class       volScalarField;
    location    "0.68";
    object      Exp1;
}
// * * * * * * * * * * * * * * * * * * * * * * * * * * * * * * * * * * * * * //

dimensions      [0 0 0 0 0 0 0];

internalField   uniform 0;

boundaryField
{
    frontAndBack
    {
        type            empty;
    }
    inlet
    {
        type            calculated;
        value           uniform 0;
    }
    outlet
    {
        type            calculated;
        value           uniform 0;
    }
    substrate
    {
        type            calculated;
        value           nonuniform List<scalar> 
400
(
1.75697e-12
5.26165e-12
8.74476e-12
1.21968e-11
1.56094e-11
1.89756e-11
2.22889e-11
2.55438e-11
2.87355e-11
3.18598e-11
3.49132e-11
3.78927e-11
4.07958e-11
4.36207e-11
4.63659e-11
4.90304e-11
5.16135e-11
5.41149e-11
5.65348e-11
5.88733e-11
6.11313e-11
6.33093e-11
6.54085e-11
6.74301e-11
6.93753e-11
7.12456e-11
7.30426e-11
7.47678e-11
7.6423e-11
7.80099e-11
7.95302e-11
8.09857e-11
8.23782e-11
8.37095e-11
8.49814e-11
8.61957e-11
8.73539e-11
8.8458e-11
8.95095e-11
9.051e-11
9.14613e-11
9.23647e-11
9.32219e-11
9.40343e-11
9.48033e-11
9.55303e-11
9.62166e-11
9.68635e-11
9.74722e-11
9.80439e-11
9.85799e-11
9.90811e-11
9.95486e-11
9.99835e-11
1.00387e-10
1.00759e-10
1.01102e-10
1.01416e-10
1.01701e-10
1.0196e-10
1.02192e-10
1.02398e-10
1.02579e-10
1.02735e-10
1.02868e-10
1.02978e-10
1.03065e-10
1.0313e-10
1.03174e-10
1.03197e-10
1.032e-10
1.03183e-10
1.03147e-10
1.03092e-10
1.03018e-10
1.02927e-10
1.02818e-10
1.02692e-10
1.02549e-10
1.0239e-10
1.02215e-10
1.02025e-10
1.01819e-10
1.01598e-10
1.01363e-10
1.01113e-10
1.0085e-10
1.00573e-10
1.00283e-10
9.99796e-11
9.96636e-11
9.93353e-11
9.89948e-11
9.86425e-11
9.82786e-11
9.79034e-11
9.75171e-11
9.71201e-11
9.67125e-11
9.62946e-11
9.58667e-11
9.54289e-11
9.49816e-11
9.4525e-11
9.40593e-11
9.35848e-11
9.31016e-11
9.261e-11
9.21103e-11
9.16026e-11
9.10872e-11
9.05643e-11
9.00341e-11
8.94968e-11
8.89526e-11
8.84018e-11
8.78446e-11
8.72811e-11
8.67116e-11
8.61363e-11
8.55554e-11
8.49691e-11
8.43775e-11
8.37809e-11
8.31795e-11
8.25735e-11
8.1963e-11
8.13483e-11
8.07295e-11
8.01069e-11
7.94806e-11
7.88509e-11
7.82178e-11
7.75816e-11
7.69424e-11
7.63005e-11
7.5656e-11
7.50091e-11
7.43599e-11
7.37087e-11
7.30556e-11
7.24007e-11
7.17443e-11
7.10865e-11
7.04275e-11
6.97674e-11
6.91064e-11
6.84446e-11
6.77822e-11
6.71194e-11
6.64563e-11
6.5793e-11
6.51297e-11
6.44666e-11
6.38038e-11
6.31414e-11
6.24795e-11
6.18184e-11
6.11581e-11
6.04988e-11
5.98406e-11
5.91836e-11
5.85279e-11
5.78738e-11
5.72212e-11
5.65704e-11
5.59214e-11
5.52743e-11
5.46293e-11
5.39865e-11
5.3346e-11
5.27078e-11
5.20722e-11
5.14391e-11
5.08087e-11
5.01811e-11
4.95564e-11
4.89347e-11
4.8316e-11
4.77005e-11
4.70882e-11
4.64792e-11
4.58736e-11
4.52715e-11
4.46729e-11
4.4078e-11
4.34867e-11
4.28992e-11
4.23156e-11
4.17358e-11
4.116e-11
4.05882e-11
4.00205e-11
3.94569e-11
3.88975e-11
3.83423e-11
3.77914e-11
3.72448e-11
3.67027e-11
3.61649e-11
3.56316e-11
3.51028e-11
3.45785e-11
3.40588e-11
3.35437e-11
3.30332e-11
3.25274e-11
3.20263e-11
3.15299e-11
3.10382e-11
3.05513e-11
3.00692e-11
2.95918e-11
2.91193e-11
2.86516e-11
2.81888e-11
2.77307e-11
2.72776e-11
2.68293e-11
2.63859e-11
2.59474e-11
2.55137e-11
2.5085e-11
2.46611e-11
2.42421e-11
2.38279e-11
2.34187e-11
2.30143e-11
2.26148e-11
2.22201e-11
2.18302e-11
2.14452e-11
2.1065e-11
2.06897e-11
2.03191e-11
1.99532e-11
1.95922e-11
1.92358e-11
1.88842e-11
1.85373e-11
1.81951e-11
1.78575e-11
1.75246e-11
1.71963e-11
1.68725e-11
1.65533e-11
1.62387e-11
1.59285e-11
1.56229e-11
1.53217e-11
1.50249e-11
1.47324e-11
1.44444e-11
1.41607e-11
1.38812e-11
1.36061e-11
1.33351e-11
1.30684e-11
1.28058e-11
1.25473e-11
1.22929e-11
1.20426e-11
1.17963e-11
1.1554e-11
1.13156e-11
1.10811e-11
1.08505e-11
1.06238e-11
1.04008e-11
1.01816e-11
9.96605e-12
9.75422e-12
9.54603e-12
9.34143e-12
9.14039e-12
8.94288e-12
8.74884e-12
8.55824e-12
8.37104e-12
8.18721e-12
8.00669e-12
7.82945e-12
7.65545e-12
7.48466e-12
7.31702e-12
7.1525e-12
6.99106e-12
6.83266e-12
6.67727e-12
6.52483e-12
6.37531e-12
6.22868e-12
6.08489e-12
5.9439e-12
5.80567e-12
5.67017e-12
5.53736e-12
5.40719e-12
5.27964e-12
5.15465e-12
5.0322e-12
4.91224e-12
4.79475e-12
4.67967e-12
4.56698e-12
4.45664e-12
4.34861e-12
4.24285e-12
4.13934e-12
4.03803e-12
3.93889e-12
3.84188e-12
3.74698e-12
3.65414e-12
3.56333e-12
3.47452e-12
3.38768e-12
3.30277e-12
3.21976e-12
3.13861e-12
3.05931e-12
2.98181e-12
2.90608e-12
2.8321e-12
2.75983e-12
2.68925e-12
2.62032e-12
2.55301e-12
2.48731e-12
2.42316e-12
2.36056e-12
2.29948e-12
2.23988e-12
2.18173e-12
2.12502e-12
2.06972e-12
2.0158e-12
1.96323e-12
1.912e-12
1.86207e-12
1.81343e-12
1.76605e-12
1.71991e-12
1.67497e-12
1.63124e-12
1.58867e-12
1.54725e-12
1.50696e-12
1.46778e-12
1.42968e-12
1.39266e-12
1.35668e-12
1.32173e-12
1.28779e-12
1.25485e-12
1.22288e-12
1.19187e-12
1.1618e-12
1.13265e-12
1.10441e-12
1.07707e-12
1.0506e-12
1.02499e-12
1.00024e-12
9.76313e-13
9.5321e-13
9.30915e-13
9.09414e-13
8.88694e-13
8.68744e-13
8.49552e-13
8.31106e-13
8.13396e-13
7.96411e-13
7.80141e-13
7.64576e-13
7.49707e-13
7.35524e-13
7.2202e-13
7.09185e-13
6.97013e-13
6.85495e-13
6.74625e-13
6.64395e-13
6.548e-13
6.45833e-13
6.37489e-13
6.29763e-13
6.2265e-13
6.16145e-13
6.10244e-13
6.04944e-13
6.00241e-13
5.96132e-13
5.92616e-13
5.89688e-13
5.87349e-13
5.85596e-13
5.84427e-13
5.83843e-13
)
;
    }
    Wall
    {
        type            calculated;
        value           nonuniform List<scalar> 
400
(
1.75698e-12
5.26166e-12
8.74477e-12
1.21968e-11
1.56094e-11
1.89756e-11
2.22889e-11
2.55438e-11
2.87355e-11
3.18598e-11
3.49132e-11
3.78927e-11
4.07958e-11
4.36207e-11
4.63659e-11
4.90304e-11
5.16135e-11
5.41149e-11
5.65347e-11
5.88733e-11
6.11312e-11
6.33093e-11
6.54085e-11
6.74301e-11
6.93753e-11
7.12456e-11
7.30425e-11
7.47678e-11
7.64229e-11
7.80098e-11
7.95301e-11
8.09856e-11
8.23781e-11
8.37095e-11
8.49814e-11
8.61956e-11
8.73539e-11
8.84579e-11
8.95094e-11
9.05099e-11
9.14612e-11
9.23646e-11
9.32218e-11
9.40342e-11
9.48031e-11
9.55301e-11
9.62164e-11
9.68633e-11
9.7472e-11
9.80438e-11
9.85797e-11
9.90809e-11
9.95484e-11
9.99833e-11
1.00387e-10
1.00759e-10
1.01102e-10
1.01415e-10
1.01701e-10
1.01959e-10
1.02191e-10
1.02397e-10
1.02578e-10
1.02735e-10
1.02868e-10
1.02977e-10
1.03065e-10
1.0313e-10
1.03174e-10
1.03197e-10
1.032e-10
1.03183e-10
1.03147e-10
1.03091e-10
1.03018e-10
1.02927e-10
1.02818e-10
1.02692e-10
1.02549e-10
1.0239e-10
1.02215e-10
1.02024e-10
1.01818e-10
1.01598e-10
1.01363e-10
1.01113e-10
1.0085e-10
1.00573e-10
1.00282e-10
9.99792e-11
9.96633e-11
9.9335e-11
9.89945e-11
9.86422e-11
9.82783e-11
9.79031e-11
9.75168e-11
9.71198e-11
9.67122e-11
9.62943e-11
9.58663e-11
9.54286e-11
9.49813e-11
9.45247e-11
9.4059e-11
9.35845e-11
9.31013e-11
9.26097e-11
9.211e-11
9.16023e-11
9.10869e-11
9.0564e-11
9.00337e-11
8.94965e-11
8.89523e-11
8.84015e-11
8.78443e-11
8.72808e-11
8.67113e-11
8.6136e-11
8.55551e-11
8.49688e-11
8.43772e-11
8.37806e-11
8.31792e-11
8.25732e-11
8.19627e-11
8.1348e-11
8.07293e-11
8.01066e-11
7.94804e-11
7.88506e-11
7.82175e-11
7.75813e-11
7.69421e-11
7.63002e-11
7.56557e-11
7.50088e-11
7.43596e-11
7.37084e-11
7.30553e-11
7.24005e-11
7.17441e-11
7.10863e-11
7.04272e-11
6.97671e-11
6.91061e-11
6.84443e-11
6.7782e-11
6.71191e-11
6.6456e-11
6.57928e-11
6.51295e-11
6.44664e-11
6.38035e-11
6.31411e-11
6.24793e-11
6.18182e-11
6.11579e-11
6.04986e-11
5.98403e-11
5.91833e-11
5.85277e-11
5.78736e-11
5.7221e-11
5.65702e-11
5.59212e-11
5.52741e-11
5.46291e-11
5.39863e-11
5.33458e-11
5.27076e-11
5.2072e-11
5.14389e-11
5.08085e-11
5.01809e-11
4.95562e-11
4.89345e-11
4.83158e-11
4.77003e-11
4.7088e-11
4.6479e-11
4.58734e-11
4.52713e-11
4.46727e-11
4.40778e-11
4.34866e-11
4.28991e-11
4.23154e-11
4.17356e-11
4.11598e-11
4.0588e-11
4.00203e-11
3.94567e-11
3.88973e-11
3.83422e-11
3.77913e-11
3.72447e-11
3.67025e-11
3.61648e-11
3.56314e-11
3.51026e-11
3.45784e-11
3.40587e-11
3.35436e-11
3.30331e-11
3.25273e-11
3.20262e-11
3.15298e-11
3.10381e-11
3.05512e-11
3.00691e-11
2.95917e-11
2.91192e-11
2.86515e-11
2.81886e-11
2.77306e-11
2.72775e-11
2.68292e-11
2.63858e-11
2.59473e-11
2.55136e-11
2.50849e-11
2.4661e-11
2.4242e-11
2.38278e-11
2.34186e-11
2.30142e-11
2.26147e-11
2.222e-11
2.18302e-11
2.14451e-11
2.1065e-11
2.06896e-11
2.0319e-11
1.99532e-11
1.95921e-11
1.92358e-11
1.88842e-11
1.85373e-11
1.8195e-11
1.78575e-11
1.75245e-11
1.71962e-11
1.68725e-11
1.65533e-11
1.62386e-11
1.59285e-11
1.56228e-11
1.53216e-11
1.50248e-11
1.47324e-11
1.44443e-11
1.41606e-11
1.38812e-11
1.3606e-11
1.33351e-11
1.30683e-11
1.28057e-11
1.25473e-11
1.22929e-11
1.20426e-11
1.17963e-11
1.15539e-11
1.13156e-11
1.10811e-11
1.08505e-11
1.06237e-11
1.04007e-11
1.01815e-11
9.96601e-12
9.75418e-12
9.54599e-12
9.34139e-12
9.14036e-12
8.94284e-12
8.74881e-12
8.55821e-12
8.37101e-12
8.18718e-12
8.00666e-12
7.82942e-12
7.65542e-12
7.48463e-12
7.31699e-12
7.15247e-12
6.99104e-12
6.83264e-12
6.67724e-12
6.52481e-12
6.37529e-12
6.22866e-12
6.08486e-12
5.94388e-12
5.80565e-12
5.67015e-12
5.53734e-12
5.40717e-12
5.27962e-12
5.15463e-12
5.03218e-12
4.91222e-12
4.79473e-12
4.67965e-12
4.56696e-12
4.45662e-12
4.34859e-12
4.24284e-12
4.13932e-12
4.03801e-12
3.93887e-12
3.84187e-12
3.74696e-12
3.65412e-12
3.56332e-12
3.47451e-12
3.38766e-12
3.30275e-12
3.21974e-12
3.1386e-12
3.0593e-12
2.9818e-12
2.90607e-12
2.83209e-12
2.75982e-12
2.68924e-12
2.62031e-12
2.553e-12
2.4873e-12
2.42316e-12
2.36056e-12
2.29947e-12
2.23987e-12
2.18172e-12
2.12501e-12
2.06971e-12
2.01579e-12
1.96323e-12
1.91199e-12
1.86207e-12
1.81343e-12
1.76604e-12
1.7199e-12
1.67497e-12
1.63123e-12
1.58866e-12
1.54725e-12
1.50696e-12
1.46777e-12
1.42968e-12
1.39265e-12
1.35667e-12
1.32173e-12
1.28779e-12
1.25484e-12
1.22287e-12
1.19186e-12
1.16179e-12
1.13264e-12
1.10441e-12
1.07706e-12
1.05059e-12
1.02499e-12
1.00023e-12
9.7631e-13
9.53207e-13
9.30912e-13
9.09411e-13
8.88691e-13
8.68741e-13
8.49549e-13
8.31103e-13
8.13393e-13
7.96408e-13
7.80138e-13
7.64573e-13
7.49704e-13
7.35522e-13
7.22018e-13
7.09183e-13
6.97011e-13
6.85493e-13
6.74623e-13
6.64393e-13
6.54798e-13
6.45831e-13
6.37487e-13
6.29761e-13
6.22648e-13
6.16143e-13
6.10242e-13
6.04942e-13
6.00239e-13
5.9613e-13
5.92613e-13
5.89686e-13
5.87347e-13
5.85594e-13
5.84426e-13
5.83842e-13
)
;
    }
}


// ************************************************************************* //
