/*--------------------------------*- C++ -*----------------------------------*\
  =========                 |
  \\      /  F ield         | OpenFOAM: The Open Source CFD Toolbox
   \\    /   O peration     | Website:  https://openfoam.org
    \\  /    A nd           | Version:  10
     \\/     M anipulation  |
\*---------------------------------------------------------------------------*/
FoamFile
{
    format      ascii;
    class       volScalarField;
    location    "0.68";
    object      growth;
}
// * * * * * * * * * * * * * * * * * * * * * * * * * * * * * * * * * * * * * //

dimensions      [0 0 0 0 0 0 0];

internalField   uniform 0;

boundaryField
{
    frontAndBack
    {
        type            empty;
    }
    inlet
    {
        type            calculated;
        value           uniform 0;
    }
    outlet
    {
        type            calculated;
        value           uniform 0;
    }
    substrate
    {
        type            calculated;
        value           nonuniform List<scalar> 
400
(
0.734673
0.712425
0.691347
0.670899
0.650825
0.631001
0.611366
0.591896
0.572588
0.553452
0.534506
0.515774
0.497281
0.479053
0.461116
0.443497
0.426218
0.409302
0.392768
0.376634
0.360915
0.345622
0.330766
0.316355
0.302393
0.288885
0.27583
0.26323
0.251081
0.239379
0.22812
0.217296
0.206902
0.196927
0.187364
0.178202
0.16943
0.161039
0.153017
0.145352
0.138033
0.131048
0.124386
0.118035
0.111983
0.106218
0.100731
0.0955082
0.09054
0.0858157
0.0813246
0.0770567
0.0730021
0.0691513
0.065495
0.0620244
0.0587308
0.055606
0.0526418
0.0498307
0.0471653
0.0446385
0.0422434
0.0399737
0.0378231
0.0357856
0.0338556
0.0320277
0.0302966
0.0286574
0.0271054
0.0256362
0.0242455
0.0229291
0.0216833
0.0205043
0.0193887
0.0183331
0.0173344
0.0163895
0.0154957
0.0146502
0.0138504
0.013094
0.0123786
0.011702
0.0110621
0.010457
0.00988478
0.00934371
0.00883211
0.00834839
0.00789103
0.00745862
0.0070498
0.0066633
0.00629792
0.0059525
0.00562596
0.00531728
0.00502548
0.00474966
0.00448893
0.00424248
0.00400953
0.00378934
0.00358122
0.0033845
0.00319857
0.00302284
0.00285675
0.00269976
0.0025514
0.00241117
0.00227864
0.00215339
0.00203501
0.00192313
0.0018174
0.00171747
0.00162304
0.00153379
0.00144944
0.00136973
0.00129441
0.00122322
0.00115594
0.00109236
0.00103227
0.000975494
0.000921834
0.000871125
0.000823204
0.000777918
0.000735122
0.00069468
0.000656461
0.000620345
0.000586215
0.000553962
0.000523483
0.000494681
0.000467463
0.000441742
0.000417436
0.000394468
0.000372762
0.000352251
0.000332868
0.000314552
0.000297243
0.000280887
0.000265431
0.000250825
0.000237022
0.000223979
0.000211654
0.000200007
0.000189001
0.0001786
0.000168772
0.000159484
0.000150708
0.000142414
0.000134577
0.000127171
0.000120173
0.000113559
0.00010731
0.000101404
9.5824e-05
9.05506e-05
8.55674e-05
8.08584e-05
7.64086e-05
7.22036e-05
6.82301e-05
6.44752e-05
6.0927e-05
5.7574e-05
5.44055e-05
5.14114e-05
4.85821e-05
4.59085e-05
4.3382e-05
4.09945e-05
3.87385e-05
3.66066e-05
3.4592e-05
3.26883e-05
3.08893e-05
2.91894e-05
2.7583e-05
2.6065e-05
2.46305e-05
2.3275e-05
2.19941e-05
2.07837e-05
1.96399e-05
1.8559e-05
1.75377e-05
1.65725e-05
1.56604e-05
1.47986e-05
1.39842e-05
1.32146e-05
1.24873e-05
1.18001e-05
1.11507e-05
1.0537e-05
9.95711e-06
9.40913e-06
8.89131e-06
8.40199e-06
7.93959e-06
7.50264e-06
7.08974e-06
6.69956e-06
6.33086e-06
5.98244e-06
5.6532e-06
5.34208e-06
5.04808e-06
4.77027e-06
4.50774e-06
4.25966e-06
4.02523e-06
3.8037e-06
3.59437e-06
3.39655e-06
3.20963e-06
3.03299e-06
2.86607e-06
2.70833e-06
2.55928e-06
2.41843e-06
2.28533e-06
2.15956e-06
2.04071e-06
1.9284e-06
1.82227e-06
1.72198e-06
1.62721e-06
1.53766e-06
1.45303e-06
1.37307e-06
1.2975e-06
1.22609e-06
1.15861e-06
1.09485e-06
1.03459e-06
9.77652e-07
9.23847e-07
8.73002e-07
8.24956e-07
7.79554e-07
7.3665e-07
6.96108e-07
6.57797e-07
6.21594e-07
5.87384e-07
5.55057e-07
5.24508e-07
4.95641e-07
4.68363e-07
4.42586e-07
4.18227e-07
3.95209e-07
3.73458e-07
3.52904e-07
3.33481e-07
3.15128e-07
2.97784e-07
2.81394e-07
2.65907e-07
2.51272e-07
2.37443e-07
2.24374e-07
2.12025e-07
2.00356e-07
1.89328e-07
1.78908e-07
1.69061e-07
1.59756e-07
1.50963e-07
1.42654e-07
1.34803e-07
1.27383e-07
1.20372e-07
1.13747e-07
1.07486e-07
1.0157e-07
9.59797e-08
9.06969e-08
8.57049e-08
8.09876e-08
7.65299e-08
7.23176e-08
6.83372e-08
6.45758e-08
6.10214e-08
5.76627e-08
5.44888e-08
5.14896e-08
4.86555e-08
4.59774e-08
4.34467e-08
4.10553e-08
3.87955e-08
3.66601e-08
3.46422e-08
3.27354e-08
3.09336e-08
2.92309e-08
2.7622e-08
2.61016e-08
2.4665e-08
2.33074e-08
2.20245e-08
2.08123e-08
1.96668e-08
1.85844e-08
1.75616e-08
1.65951e-08
1.56818e-08
1.48188e-08
1.40033e-08
1.32327e-08
1.25046e-08
1.18166e-08
1.11664e-08
1.05521e-08
9.97163e-09
9.42313e-09
8.90486e-09
8.41515e-09
7.95243e-09
7.51522e-09
7.10212e-09
6.7118e-09
6.34301e-09
5.99457e-09
5.66536e-09
5.35432e-09
5.06046e-09
4.78284e-09
4.52056e-09
4.27279e-09
4.03873e-09
3.81763e-09
3.60877e-09
3.4115e-09
3.22517e-09
3.0492e-09
2.88301e-09
2.72607e-09
2.57789e-09
2.43798e-09
2.30589e-09
2.1812e-09
2.06352e-09
1.95246e-09
1.84767e-09
1.74881e-09
1.65557e-09
1.56764e-09
1.48475e-09
1.40663e-09
1.33302e-09
1.26369e-09
1.19843e-09
1.13701e-09
1.07925e-09
1.02495e-09
9.73943e-10
9.26068e-10
8.81168e-10
8.39101e-10
7.9973e-10
7.62929e-10
7.28581e-10
6.96575e-10
6.66809e-10
6.39186e-10
6.13619e-10
5.90025e-10
5.68328e-10
5.4846e-10
5.30355e-10
5.13957e-10
4.99212e-10
4.86073e-10
4.74498e-10
4.6445e-10
4.55897e-10
4.4881e-10
4.43168e-10
4.38953e-10
4.3615e-10
4.3475e-10
)
;
    }
    Wall
    {
        type            calculated;
        value           nonuniform List<scalar> 
400
(
0.734673
0.712424
0.691347
0.670899
0.650826
0.631001
0.611366
0.591895
0.572587
0.553451
0.534506
0.515774
0.497281
0.479053
0.461117
0.443498
0.42622
0.409304
0.392771
0.376637
0.360918
0.345625
0.33077
0.316359
0.302397
0.288889
0.275835
0.263234
0.251085
0.239384
0.228124
0.217301
0.206907
0.196932
0.187369
0.178207
0.169435
0.161044
0.153022
0.145357
0.138038
0.131053
0.124391
0.118039
0.111987
0.106223
0.100735
0.0955123
0.0905441
0.0858196
0.0813284
0.0770603
0.0730056
0.0691547
0.0654983
0.0620276
0.0587339
0.0556089
0.0526446
0.0498334
0.0471679
0.0446409
0.0422458
0.039976
0.0378252
0.0357877
0.0338576
0.0320295
0.0302983
0.0286591
0.027107
0.0256377
0.0242469
0.0229304
0.0216846
0.0205055
0.0193898
0.0183342
0.0173354
0.0163905
0.0154966
0.014651
0.0138512
0.0130947
0.0123793
0.0117026
0.0110627
0.0104576
0.00988533
0.00934423
0.0088326
0.00834884
0.00789145
0.00745901
0.00705017
0.00666365
0.00629824
0.0059528
0.00562624
0.00531754
0.00502573
0.00474989
0.00448914
0.00424268
0.00400971
0.00378951
0.00358138
0.00338465
0.00319871
0.00302297
0.00285686
0.00269987
0.0025515
0.00241126
0.00227873
0.00215347
0.00203508
0.0019232
0.00181746
0.00171753
0.00162309
0.00153384
0.00144949
0.00136978
0.00129444
0.00122325
0.00115597
0.00109239
0.0010323
0.00097552
0.000921858
0.000871147
0.000823224
0.000777936
0.000735139
0.000694695
0.000656476
0.000620358
0.000586227
0.000553973
0.000523494
0.00049469
0.000467472
0.00044175
0.000417443
0.000394474
0.000372768
0.000352257
0.000332873
0.000314556
0.000297247
0.000280891
0.000265434
0.000250828
0.000237025
0.000223982
0.000211656
0.000200009
0.000189002
0.000178602
0.000168773
0.000159485
0.000150709
0.000142415
0.000134578
0.000127172
0.000120173
0.00011356
0.000107311
0.000101405
9.58245e-05
9.05511e-05
8.55678e-05
8.08588e-05
7.6409e-05
7.2204e-05
6.82304e-05
6.44755e-05
6.09272e-05
5.75742e-05
5.44057e-05
5.14116e-05
4.85822e-05
4.59086e-05
4.33821e-05
4.09946e-05
3.87385e-05
3.66066e-05
3.4592e-05
3.26883e-05
3.08894e-05
2.91894e-05
2.7583e-05
2.6065e-05
2.46306e-05
2.3275e-05
2.19941e-05
2.07837e-05
1.96399e-05
1.8559e-05
1.75377e-05
1.65725e-05
1.56604e-05
1.47986e-05
1.39842e-05
1.32146e-05
1.24873e-05
1.18001e-05
1.11507e-05
1.0537e-05
9.95712e-06
9.40913e-06
8.89131e-06
8.40199e-06
7.93959e-06
7.50264e-06
7.08974e-06
6.69956e-06
6.33085e-06
5.98244e-06
5.6532e-06
5.34208e-06
5.04808e-06
4.77027e-06
4.50774e-06
4.25966e-06
4.02523e-06
3.8037e-06
3.59437e-06
3.39655e-06
3.20962e-06
3.03298e-06
2.86607e-06
2.70833e-06
2.55928e-06
2.41843e-06
2.28533e-06
2.15956e-06
2.04071e-06
1.9284e-06
1.82227e-06
1.72198e-06
1.62721e-06
1.53766e-06
1.45303e-06
1.37306e-06
1.2975e-06
1.22609e-06
1.15861e-06
1.09485e-06
1.03459e-06
9.77652e-07
9.23846e-07
8.73002e-07
8.24956e-07
7.79554e-07
7.3665e-07
6.96108e-07
6.57797e-07
6.21594e-07
5.87384e-07
5.55057e-07
5.24508e-07
4.95641e-07
4.68363e-07
4.42586e-07
4.18227e-07
3.95209e-07
3.73458e-07
3.52904e-07
3.33481e-07
3.15127e-07
2.97784e-07
2.81394e-07
2.65907e-07
2.51272e-07
2.37443e-07
2.24374e-07
2.12025e-07
2.00356e-07
1.89328e-07
1.78908e-07
1.69061e-07
1.59756e-07
1.50963e-07
1.42654e-07
1.34803e-07
1.27383e-07
1.20372e-07
1.13747e-07
1.07486e-07
1.0157e-07
9.59797e-08
9.06969e-08
8.57049e-08
8.09876e-08
7.65299e-08
7.23176e-08
6.83372e-08
6.45758e-08
6.10214e-08
5.76627e-08
5.44888e-08
5.14896e-08
4.86555e-08
4.59774e-08
4.34467e-08
4.10553e-08
3.87955e-08
3.66601e-08
3.46422e-08
3.27354e-08
3.09336e-08
2.92309e-08
2.7622e-08
2.61016e-08
2.4665e-08
2.33074e-08
2.20245e-08
2.08123e-08
1.96668e-08
1.85844e-08
1.75616e-08
1.65951e-08
1.56818e-08
1.48188e-08
1.40033e-08
1.32327e-08
1.25046e-08
1.18166e-08
1.11664e-08
1.05521e-08
9.97163e-09
9.42313e-09
8.90486e-09
8.41515e-09
7.95243e-09
7.51522e-09
7.10212e-09
6.7118e-09
6.34301e-09
5.99457e-09
5.66536e-09
5.35432e-09
5.06046e-09
4.78284e-09
4.52057e-09
4.27279e-09
4.03873e-09
3.81763e-09
3.60877e-09
3.4115e-09
3.22517e-09
3.0492e-09
2.88301e-09
2.72607e-09
2.57789e-09
2.43798e-09
2.30589e-09
2.1812e-09
2.06352e-09
1.95246e-09
1.84767e-09
1.74881e-09
1.65557e-09
1.56764e-09
1.48475e-09
1.40663e-09
1.33302e-09
1.26369e-09
1.19843e-09
1.13701e-09
1.07925e-09
1.02495e-09
9.73943e-10
9.26068e-10
8.81169e-10
8.39101e-10
7.9973e-10
7.62929e-10
7.28581e-10
6.96575e-10
6.66809e-10
6.39186e-10
6.13619e-10
5.90025e-10
5.68328e-10
5.4846e-10
5.30355e-10
5.13957e-10
4.99212e-10
4.86073e-10
4.74498e-10
4.6445e-10
4.55897e-10
4.4881e-10
4.43168e-10
4.38953e-10
4.3615e-10
4.3475e-10
)
;
    }
}


// ************************************************************************* //
