/*--------------------------------*- C++ -*----------------------------------*\
  =========                 |
  \\      /  F ield         | OpenFOAM: The Open Source CFD Toolbox
   \\    /   O peration     | Website:  https://openfoam.org
    \\  /    A nd           | Version:  10
     \\/     M anipulation  |
\*---------------------------------------------------------------------------*/
FoamFile
{
    format      ascii;
    class       volScalarField;
    location    "0.68";
    object      N1;
}
// * * * * * * * * * * * * * * * * * * * * * * * * * * * * * * * * * * * * * //

dimensions      [0 0 0 0 0 0 0];

internalField   nonuniform List<scalar> 
8000
(
1.33371e-11
3.99568e-11
6.64325e-11
9.26906e-11
1.18668e-10
1.4431e-10
1.69567e-10
1.94397e-10
2.18763e-10
2.42631e-10
2.65974e-10
2.88769e-10
3.10996e-10
3.32639e-10
3.53686e-10
3.74128e-10
3.9396e-10
4.13177e-10
4.31781e-10
4.49771e-10
4.67151e-10
4.83927e-10
5.00105e-10
5.15694e-10
5.30702e-10
5.4514e-10
5.5902e-10
5.72352e-10
5.85148e-10
5.97423e-10
6.09187e-10
6.20456e-10
6.31241e-10
6.41556e-10
6.51414e-10
6.60829e-10
6.69813e-10
6.7838e-10
6.86541e-10
6.9431e-10
7.01698e-10
7.08717e-10
7.15379e-10
7.21694e-10
7.27674e-10
7.33329e-10
7.38669e-10
7.43704e-10
7.48444e-10
7.52897e-10
7.57073e-10
7.60979e-10
7.64625e-10
7.68018e-10
7.71165e-10
7.74074e-10
7.76752e-10
7.79206e-10
7.81442e-10
7.83466e-10
7.85284e-10
7.86903e-10
7.88327e-10
7.89562e-10
7.90612e-10
7.91484e-10
7.92181e-10
7.92709e-10
7.93071e-10
7.93272e-10
7.93315e-10
7.93206e-10
7.92946e-10
7.92541e-10
7.91994e-10
7.91308e-10
7.90486e-10
7.89532e-10
7.88449e-10
7.87239e-10
7.85906e-10
7.84452e-10
7.82881e-10
7.81195e-10
7.79396e-10
7.77487e-10
7.7547e-10
7.73349e-10
7.71125e-10
7.68801e-10
7.66378e-10
7.6386e-10
7.61248e-10
7.58545e-10
7.55752e-10
7.52872e-10
7.49906e-10
7.46857e-10
7.43727e-10
7.40518e-10
7.3723e-10
7.33868e-10
7.30431e-10
7.26923e-10
7.23345e-10
7.19698e-10
7.15985e-10
7.12207e-10
7.08366e-10
7.04464e-10
7.00502e-10
6.96483e-10
6.92407e-10
6.88277e-10
6.84094e-10
6.79859e-10
6.75575e-10
6.71243e-10
6.66865e-10
6.62441e-10
6.57975e-10
6.53466e-10
6.48918e-10
6.44331e-10
6.39706e-10
6.35046e-10
6.30352e-10
6.25625e-10
6.20867e-10
6.1608e-10
6.11264e-10
6.06421e-10
6.01552e-10
5.9666e-10
5.91745e-10
5.86808e-10
5.81852e-10
5.76877e-10
5.71885e-10
5.66877e-10
5.61854e-10
5.56818e-10
5.5177e-10
5.46711e-10
5.41643e-10
5.36567e-10
5.31483e-10
5.26394e-10
5.213e-10
5.16202e-10
5.11102e-10
5.06001e-10
5.00901e-10
4.95801e-10
4.90703e-10
4.85609e-10
4.80519e-10
4.75434e-10
4.70356e-10
4.65285e-10
4.60223e-10
4.55171e-10
4.50128e-10
4.45097e-10
4.40079e-10
4.35073e-10
4.30082e-10
4.25106e-10
4.20145e-10
4.15201e-10
4.10275e-10
4.05367e-10
4.00479e-10
3.9561e-10
3.90762e-10
3.85935e-10
3.8113e-10
3.76349e-10
3.71591e-10
3.66857e-10
3.62148e-10
3.57464e-10
3.52807e-10
3.48176e-10
3.43572e-10
3.38997e-10
3.3445e-10
3.29931e-10
3.25442e-10
3.20984e-10
3.16555e-10
3.12158e-10
3.07791e-10
3.03457e-10
2.99154e-10
2.94885e-10
2.90648e-10
2.86444e-10
2.82274e-10
2.78139e-10
2.74037e-10
2.6997e-10
2.65938e-10
2.61941e-10
2.57979e-10
2.54053e-10
2.50163e-10
2.46309e-10
2.42491e-10
2.3871e-10
2.34965e-10
2.31257e-10
2.27586e-10
2.23952e-10
2.20355e-10
2.16795e-10
2.13273e-10
2.09788e-10
2.0634e-10
2.0293e-10
1.99557e-10
1.96222e-10
1.92925e-10
1.89665e-10
1.86442e-10
1.83257e-10
1.8011e-10
1.76999e-10
1.73927e-10
1.70891e-10
1.67893e-10
1.64932e-10
1.62008e-10
1.59121e-10
1.56271e-10
1.53457e-10
1.5068e-10
1.4794e-10
1.45236e-10
1.42568e-10
1.39936e-10
1.3734e-10
1.34779e-10
1.32254e-10
1.29764e-10
1.27309e-10
1.24889e-10
1.22504e-10
1.20153e-10
1.17837e-10
1.15554e-10
1.13305e-10
1.1109e-10
1.08908e-10
1.06758e-10
1.04642e-10
1.02558e-10
1.00507e-10
9.84873e-11
9.64995e-11
9.45431e-11
9.26179e-11
9.07237e-11
8.886e-11
8.70266e-11
8.52234e-11
8.34498e-11
8.17058e-11
7.99909e-11
7.83048e-11
7.66474e-11
7.50182e-11
7.3417e-11
7.18435e-11
7.02974e-11
6.87783e-11
6.7286e-11
6.58201e-11
6.43804e-11
6.29666e-11
6.15782e-11
6.02151e-11
5.88769e-11
5.75634e-11
5.62741e-11
5.50088e-11
5.37672e-11
5.2549e-11
5.13539e-11
5.01815e-11
4.90316e-11
4.79038e-11
4.67979e-11
4.57136e-11
4.46505e-11
4.36084e-11
4.2587e-11
4.15859e-11
4.06049e-11
3.96436e-11
3.87019e-11
3.77793e-11
3.68757e-11
3.59906e-11
3.5124e-11
3.42753e-11
3.34445e-11
3.26311e-11
3.1835e-11
3.10559e-11
3.02934e-11
2.95473e-11
2.88174e-11
2.81034e-11
2.7405e-11
2.6722e-11
2.60541e-11
2.54011e-11
2.47627e-11
2.41386e-11
2.35287e-11
2.29326e-11
2.23503e-11
2.17813e-11
2.12255e-11
2.06826e-11
2.01525e-11
1.96348e-11
1.91295e-11
1.86362e-11
1.81547e-11
1.76849e-11
1.72265e-11
1.67794e-11
1.63432e-11
1.59179e-11
1.55032e-11
1.50989e-11
1.47049e-11
1.43209e-11
1.39468e-11
1.35824e-11
1.32275e-11
1.2882e-11
1.25456e-11
1.22182e-11
1.18997e-11
1.15898e-11
1.12885e-11
1.09955e-11
1.07107e-11
1.0434e-11
1.01652e-11
9.90422e-12
9.65084e-12
9.40497e-12
9.16646e-12
8.93519e-12
8.71103e-12
8.49386e-12
8.28355e-12
8.07999e-12
7.88306e-12
7.69266e-12
7.50868e-12
7.331e-12
7.15953e-12
6.99416e-12
6.83481e-12
6.68138e-12
6.53377e-12
6.39191e-12
6.25571e-12
6.12508e-12
5.99995e-12
5.88024e-12
5.76588e-12
5.6568e-12
5.55294e-12
5.45424e-12
5.36062e-12
5.27204e-12
5.18844e-12
5.10976e-12
5.03597e-12
4.967e-12
4.90283e-12
4.84341e-12
4.7887e-12
4.73867e-12
4.69329e-12
4.65253e-12
4.61636e-12
4.58476e-12
4.55772e-12
4.5352e-12
4.51721e-12
4.50373e-12
4.49474e-12
4.49025e-12
1.34736e-11
4.03782e-11
6.7161e-11
9.37518e-11
1.20088e-10
1.46114e-10
1.71781e-10
1.97045e-10
2.21866e-10
2.46211e-10
2.7005e-10
2.93358e-10
3.16113e-10
3.38298e-10
3.59899e-10
3.80904e-10
4.01306e-10
4.211e-10
4.40282e-10
4.58853e-10
4.76814e-10
4.94168e-10
5.10922e-10
5.27082e-10
5.42655e-10
5.5765e-10
5.72078e-10
5.8595e-10
5.99275e-10
6.12067e-10
6.24337e-10
6.36099e-10
6.47364e-10
6.58146e-10
6.68457e-10
6.78311e-10
6.8772e-10
6.96696e-10
7.05254e-10
7.13404e-10
7.21159e-10
7.2853e-10
7.3553e-10
7.4217e-10
7.4846e-10
7.54412e-10
7.60035e-10
7.6534e-10
7.70336e-10
7.75034e-10
7.79441e-10
7.83567e-10
7.8742e-10
7.91009e-10
7.94341e-10
7.97424e-10
8.00265e-10
8.02871e-10
8.05249e-10
8.07405e-10
8.09346e-10
8.11078e-10
8.12606e-10
8.13937e-10
8.15075e-10
8.16025e-10
8.16793e-10
8.17384e-10
8.17801e-10
8.1805e-10
8.18135e-10
8.18059e-10
8.17827e-10
8.17443e-10
8.1691e-10
8.16232e-10
8.15413e-10
8.14456e-10
8.13364e-10
8.1214e-10
8.10787e-10
8.09309e-10
8.07708e-10
8.05987e-10
8.04149e-10
8.02196e-10
8.00132e-10
7.97958e-10
7.95677e-10
7.93292e-10
7.90805e-10
7.88219e-10
7.85535e-10
7.82756e-10
7.79884e-10
7.76921e-10
7.73869e-10
7.70731e-10
7.67509e-10
7.64204e-10
7.60819e-10
7.57355e-10
7.53815e-10
7.502e-10
7.46513e-10
7.42754e-10
7.38927e-10
7.35033e-10
7.31073e-10
7.2705e-10
7.22965e-10
7.1882e-10
7.14617e-10
7.10357e-10
7.06043e-10
7.01675e-10
6.97256e-10
6.92787e-10
6.88271e-10
6.83708e-10
6.791e-10
6.74448e-10
6.69756e-10
6.65023e-10
6.60251e-10
6.55443e-10
6.506e-10
6.45722e-10
6.40813e-10
6.35872e-10
6.30903e-10
6.25905e-10
6.20881e-10
6.15832e-10
6.1076e-10
6.05666e-10
6.00551e-10
5.95417e-10
5.90265e-10
5.85096e-10
5.79913e-10
5.74716e-10
5.69506e-10
5.64285e-10
5.59054e-10
5.53815e-10
5.48568e-10
5.43316e-10
5.38058e-10
5.32797e-10
5.27534e-10
5.22269e-10
5.17004e-10
5.11741e-10
5.06479e-10
5.01222e-10
4.95968e-10
4.9072e-10
4.85479e-10
4.80246e-10
4.75021e-10
4.69806e-10
4.64601e-10
4.59409e-10
4.54229e-10
4.49063e-10
4.43911e-10
4.38775e-10
4.33655e-10
4.28552e-10
4.23468e-10
4.18402e-10
4.13356e-10
4.08331e-10
4.03327e-10
3.98345e-10
3.93386e-10
3.88451e-10
3.8354e-10
3.78653e-10
3.73793e-10
3.68959e-10
3.64152e-10
3.59372e-10
3.54621e-10
3.49898e-10
3.45204e-10
3.40541e-10
3.35908e-10
3.31305e-10
3.26735e-10
3.22196e-10
3.17689e-10
3.13215e-10
3.08774e-10
3.04367e-10
2.99994e-10
2.95656e-10
2.91352e-10
2.87083e-10
2.82849e-10
2.78652e-10
2.7449e-10
2.70364e-10
2.66275e-10
2.62223e-10
2.58208e-10
2.5423e-10
2.50289e-10
2.46387e-10
2.42521e-10
2.38694e-10
2.34905e-10
2.31154e-10
2.27441e-10
2.23767e-10
2.20131e-10
2.16534e-10
2.12976e-10
2.09456e-10
2.05975e-10
2.02532e-10
1.99129e-10
1.95764e-10
1.92438e-10
1.8915e-10
1.85901e-10
1.82691e-10
1.7952e-10
1.76387e-10
1.73292e-10
1.70236e-10
1.67218e-10
1.64238e-10
1.61296e-10
1.58392e-10
1.55526e-10
1.52697e-10
1.49906e-10
1.47152e-10
1.44436e-10
1.41756e-10
1.39113e-10
1.36507e-10
1.33937e-10
1.31403e-10
1.28905e-10
1.26444e-10
1.24017e-10
1.21626e-10
1.1927e-10
1.16949e-10
1.14662e-10
1.1241e-10
1.10192e-10
1.08007e-10
1.05856e-10
1.03739e-10
1.01654e-10
9.96027e-11
9.75835e-11
9.55964e-11
9.36412e-11
9.17176e-11
8.98253e-11
8.7964e-11
8.61334e-11
8.43333e-11
8.25632e-11
8.0823e-11
7.91122e-11
7.74307e-11
7.5778e-11
7.41539e-11
7.2558e-11
7.09901e-11
6.94498e-11
6.79368e-11
6.64508e-11
6.49915e-11
6.35585e-11
6.21515e-11
6.07703e-11
5.94145e-11
5.80838e-11
5.67778e-11
5.54963e-11
5.42389e-11
5.30053e-11
5.17952e-11
5.06083e-11
4.94443e-11
4.83029e-11
4.71837e-11
4.60864e-11
4.50108e-11
4.39565e-11
4.29232e-11
4.19107e-11
4.09185e-11
3.99465e-11
3.89942e-11
3.80615e-11
3.7148e-11
3.62535e-11
3.53776e-11
3.452e-11
3.36805e-11
3.28588e-11
3.20546e-11
3.12676e-11
3.04975e-11
2.97441e-11
2.90072e-11
2.82863e-11
2.75813e-11
2.6892e-11
2.62179e-11
2.5559e-11
2.49149e-11
2.42853e-11
2.36701e-11
2.3069e-11
2.24817e-11
2.1908e-11
2.13477e-11
2.08005e-11
2.02663e-11
1.97447e-11
1.92355e-11
1.87386e-11
1.82536e-11
1.77805e-11
1.7319e-11
1.68688e-11
1.64298e-11
1.60018e-11
1.55845e-11
1.51778e-11
1.47815e-11
1.43953e-11
1.40192e-11
1.36529e-11
1.32962e-11
1.2949e-11
1.26111e-11
1.22824e-11
1.19625e-11
1.16515e-11
1.13491e-11
1.10552e-11
1.07696e-11
1.04921e-11
1.02227e-11
9.9612e-12
9.70742e-12
9.46124e-12
9.22253e-12
8.99116e-12
8.767e-12
8.54993e-12
8.33983e-12
8.13657e-12
7.94005e-12
7.75014e-12
7.56675e-12
7.38976e-12
7.21908e-12
7.05461e-12
6.89624e-12
6.74389e-12
6.59746e-12
6.45688e-12
6.32205e-12
6.19289e-12
6.06934e-12
5.9513e-12
5.83872e-12
5.73152e-12
5.62964e-12
5.53301e-12
5.44158e-12
5.35529e-12
5.27408e-12
5.19791e-12
5.12673e-12
5.0605e-12
4.99917e-12
4.9427e-12
4.89106e-12
4.84422e-12
4.80215e-12
4.76482e-12
4.7322e-12
4.70429e-12
4.68105e-12
4.66248e-12
4.64856e-12
4.63928e-12
4.63465e-12
1.36076e-11
4.07859e-11
6.78563e-11
9.47527e-11
1.21415e-10
1.47788e-10
1.73822e-10
1.99473e-10
2.24701e-10
2.49471e-10
2.73751e-10
2.97515e-10
3.20741e-10
3.43408e-10
3.655e-10
3.87006e-10
4.07915e-10
4.2822e-10
4.47917e-10
4.67005e-10
4.85483e-10
5.03354e-10
5.2062e-10
5.37289e-10
5.53365e-10
5.68858e-10
5.83776e-10
5.98128e-10
6.11926e-10
6.25181e-10
6.37904e-10
6.50106e-10
6.61801e-10
6.73001e-10
6.83718e-10
6.93965e-10
7.03754e-10
7.13099e-10
7.22011e-10
7.30504e-10
7.38588e-10
7.46276e-10
7.5358e-10
7.60511e-10
7.6708e-10
7.73299e-10
7.79177e-10
7.84724e-10
7.89952e-10
7.94869e-10
7.99485e-10
8.03808e-10
8.07849e-10
8.11614e-10
8.15112e-10
8.18351e-10
8.21339e-10
8.24083e-10
8.26589e-10
8.28865e-10
8.30917e-10
8.32751e-10
8.34374e-10
8.35791e-10
8.37007e-10
8.38029e-10
8.38861e-10
8.39509e-10
8.39976e-10
8.40269e-10
8.40391e-10
8.40346e-10
8.40139e-10
8.39774e-10
8.39255e-10
8.38585e-10
8.37769e-10
8.36809e-10
8.35709e-10
8.34472e-10
8.33102e-10
8.31602e-10
8.29975e-10
8.28224e-10
8.26351e-10
8.24359e-10
8.22252e-10
8.20031e-10
8.177e-10
8.15261e-10
8.12716e-10
8.10069e-10
8.0732e-10
8.04473e-10
8.0153e-10
7.98494e-10
7.95365e-10
7.92148e-10
7.88843e-10
7.85452e-10
7.81979e-10
7.78425e-10
7.74792e-10
7.71081e-10
7.67296e-10
7.63437e-10
7.59508e-10
7.55509e-10
7.51443e-10
7.47311e-10
7.43115e-10
7.38858e-10
7.34541e-10
7.30165e-10
7.25733e-10
7.21246e-10
7.16706e-10
7.12115e-10
7.07474e-10
7.02786e-10
6.98051e-10
6.93271e-10
6.88449e-10
6.83586e-10
6.78683e-10
6.73742e-10
6.68764e-10
6.63752e-10
6.58706e-10
6.53629e-10
6.48521e-10
6.43385e-10
6.38221e-10
6.33032e-10
6.27819e-10
6.22583e-10
6.17326e-10
6.12049e-10
6.06754e-10
6.01442e-10
5.96114e-10
5.90772e-10
5.85417e-10
5.80051e-10
5.74674e-10
5.69289e-10
5.63896e-10
5.58497e-10
5.53093e-10
5.47685e-10
5.42275e-10
5.36863e-10
5.31452e-10
5.26041e-10
5.20633e-10
5.15228e-10
5.09828e-10
5.04434e-10
4.99046e-10
4.93667e-10
4.88296e-10
4.82935e-10
4.77586e-10
4.72248e-10
4.66923e-10
4.61613e-10
4.56317e-10
4.51038e-10
4.45775e-10
4.4053e-10
4.35303e-10
4.30096e-10
4.24909e-10
4.19743e-10
4.146e-10
4.09479e-10
4.04381e-10
3.99308e-10
3.94259e-10
3.89237e-10
3.84241e-10
3.79271e-10
3.7433e-10
3.69417e-10
3.64532e-10
3.59678e-10
3.54853e-10
3.50059e-10
3.45296e-10
3.40566e-10
3.35867e-10
3.31201e-10
3.26569e-10
3.2197e-10
3.17405e-10
3.12875e-10
3.08379e-10
3.0392e-10
2.99495e-10
2.95107e-10
2.90755e-10
2.8644e-10
2.82162e-10
2.77921e-10
2.73718e-10
2.69553e-10
2.65425e-10
2.61336e-10
2.57285e-10
2.53273e-10
2.493e-10
2.45366e-10
2.41471e-10
2.37615e-10
2.33799e-10
2.30022e-10
2.26284e-10
2.22587e-10
2.18929e-10
2.1531e-10
2.11732e-10
2.08193e-10
2.04695e-10
2.01236e-10
1.97817e-10
1.94437e-10
1.91098e-10
1.87798e-10
1.84538e-10
1.81317e-10
1.78136e-10
1.74994e-10
1.71892e-10
1.68829e-10
1.65805e-10
1.62819e-10
1.59873e-10
1.56966e-10
1.54096e-10
1.51266e-10
1.48473e-10
1.45718e-10
1.43002e-10
1.40322e-10
1.37681e-10
1.35076e-10
1.32509e-10
1.29978e-10
1.27484e-10
1.25026e-10
1.22604e-10
1.20218e-10
1.17867e-10
1.15552e-10
1.13272e-10
1.11026e-10
1.08815e-10
1.06639e-10
1.04496e-10
1.02387e-10
1.00311e-10
9.82684e-11
9.62586e-11
9.42812e-11
9.2336e-11
9.04227e-11
8.8541e-11
8.66905e-11
8.4871e-11
8.30821e-11
8.13235e-11
7.9595e-11
7.78961e-11
7.62266e-11
7.45861e-11
7.29744e-11
7.1391e-11
6.98357e-11
6.83082e-11
6.68081e-11
6.5335e-11
6.38888e-11
6.24689e-11
6.10752e-11
5.97073e-11
5.83648e-11
5.70475e-11
5.57549e-11
5.44869e-11
5.3243e-11
5.20229e-11
5.08264e-11
4.9653e-11
4.85025e-11
4.73746e-11
4.62689e-11
4.51852e-11
4.4123e-11
4.30821e-11
4.20622e-11
4.1063e-11
4.00842e-11
3.91254e-11
3.81864e-11
3.72668e-11
3.63664e-11
3.54849e-11
3.46219e-11
3.37772e-11
3.29505e-11
3.21415e-11
3.135e-11
3.05755e-11
2.9818e-11
2.9077e-11
2.83523e-11
2.76436e-11
2.69508e-11
2.62734e-11
2.56113e-11
2.49641e-11
2.43317e-11
2.37138e-11
2.31101e-11
2.25204e-11
2.19444e-11
2.1382e-11
2.08327e-11
2.02965e-11
1.97732e-11
1.92623e-11
1.87639e-11
1.82775e-11
1.78031e-11
1.73403e-11
1.6889e-11
1.6449e-11
1.60201e-11
1.5602e-11
1.51946e-11
1.47977e-11
1.44111e-11
1.40345e-11
1.36679e-11
1.3311e-11
1.29636e-11
1.26257e-11
1.22969e-11
1.19772e-11
1.16663e-11
1.13642e-11
1.10706e-11
1.07854e-11
1.05085e-11
1.02396e-11
9.97875e-12
9.72569e-12
9.48031e-12
9.24248e-12
9.01205e-12
8.78892e-12
8.57294e-12
8.364e-12
8.16198e-12
7.96677e-12
7.77825e-12
7.59632e-12
7.42087e-12
7.25179e-12
7.089e-12
6.93239e-12
6.78187e-12
6.63736e-12
6.49876e-12
6.36599e-12
6.23898e-12
6.11765e-12
6.00192e-12
5.89172e-12
5.78699e-12
5.68766e-12
5.59368e-12
5.50497e-12
5.4215e-12
5.3432e-12
5.27003e-12
5.20195e-12
5.1389e-12
5.08085e-12
5.02777e-12
4.97962e-12
4.93637e-12
4.898e-12
4.86447e-12
4.83578e-12
4.81189e-12
4.7928e-12
4.77849e-12
4.76896e-12
4.76419e-12
1.37326e-11
4.11644e-11
6.84976e-11
9.56699e-11
1.22623e-10
1.49304e-10
1.75662e-10
2.01655e-10
2.2724e-10
2.52382e-10
2.77049e-10
3.01213e-10
3.2485e-10
3.47938e-10
3.70461e-10
3.92405e-10
4.13757e-10
4.34511e-10
4.5466e-10
4.742e-10
4.93131e-10
5.11453e-10
5.2917e-10
5.46284e-10
5.62803e-10
5.78732e-10
5.9408e-10
6.08856e-10
6.23069e-10
6.36731e-10
6.49851e-10
6.62442e-10
6.74515e-10
6.86082e-10
6.97157e-10
7.0775e-10
7.17875e-10
7.27545e-10
7.3677e-10
7.45564e-10
7.5394e-10
7.61907e-10
7.6948e-10
7.76668e-10
7.83484e-10
7.89938e-10
7.96041e-10
8.01803e-10
8.07235e-10
8.12347e-10
8.17147e-10
8.21646e-10
8.25852e-10
8.29773e-10
8.33419e-10
8.36797e-10
8.39914e-10
8.4278e-10
8.454e-10
8.47782e-10
8.49932e-10
8.51857e-10
8.53564e-10
8.55057e-10
8.56344e-10
8.57429e-10
8.58318e-10
8.59016e-10
8.59529e-10
8.5986e-10
8.60015e-10
8.59998e-10
8.59814e-10
8.59466e-10
8.58959e-10
8.58297e-10
8.57483e-10
8.56521e-10
8.55415e-10
8.54167e-10
8.52783e-10
8.51263e-10
8.49613e-10
8.47835e-10
8.45931e-10
8.43906e-10
8.41761e-10
8.39499e-10
8.37124e-10
8.34637e-10
8.32042e-10
8.2934e-10
8.26535e-10
8.23628e-10
8.20623e-10
8.17521e-10
8.14325e-10
8.11037e-10
8.07659e-10
8.04194e-10
8.00643e-10
7.97009e-10
7.93294e-10
7.89499e-10
7.85628e-10
7.81681e-10
7.77661e-10
7.7357e-10
7.6941e-10
7.65183e-10
7.6089e-10
7.56533e-10
7.52115e-10
7.47637e-10
7.43101e-10
7.38509e-10
7.33863e-10
7.29163e-10
7.24413e-10
7.19614e-10
7.14768e-10
7.09875e-10
7.04939e-10
6.9996e-10
6.94941e-10
6.89882e-10
6.84787e-10
6.79655e-10
6.7449e-10
6.69291e-10
6.64062e-10
6.58804e-10
6.53517e-10
6.48205e-10
6.42867e-10
6.37506e-10
6.32124e-10
6.26721e-10
6.21299e-10
6.1586e-10
6.10405e-10
6.04935e-10
5.99452e-10
5.93957e-10
5.88452e-10
5.82938e-10
5.77416e-10
5.71888e-10
5.66355e-10
5.60817e-10
5.55278e-10
5.49737e-10
5.44196e-10
5.38656e-10
5.33118e-10
5.27584e-10
5.22054e-10
5.16531e-10
5.11014e-10
5.05506e-10
5.00006e-10
4.94517e-10
4.89039e-10
4.83574e-10
4.78122e-10
4.72684e-10
4.67261e-10
4.61855e-10
4.56466e-10
4.51095e-10
4.45743e-10
4.40411e-10
4.351e-10
4.29811e-10
4.24543e-10
4.193e-10
4.1408e-10
4.08885e-10
4.03716e-10
3.98572e-10
3.93456e-10
3.88368e-10
3.83308e-10
3.78277e-10
3.73276e-10
3.68304e-10
3.63364e-10
3.58455e-10
3.53578e-10
3.48734e-10
3.43923e-10
3.39145e-10
3.34401e-10
3.29692e-10
3.25018e-10
3.20379e-10
3.15776e-10
3.11209e-10
3.06679e-10
3.02185e-10
2.97729e-10
2.93311e-10
2.8893e-10
2.84587e-10
2.80283e-10
2.76018e-10
2.71792e-10
2.67604e-10
2.63456e-10
2.59348e-10
2.5528e-10
2.51251e-10
2.47263e-10
2.43314e-10
2.39406e-10
2.35539e-10
2.31712e-10
2.27926e-10
2.2418e-10
2.20475e-10
2.16811e-10
2.13187e-10
2.09604e-10
2.06062e-10
2.02561e-10
1.99101e-10
1.95681e-10
1.92302e-10
1.88964e-10
1.85666e-10
1.82409e-10
1.79192e-10
1.76015e-10
1.72878e-10
1.69782e-10
1.66725e-10
1.63708e-10
1.6073e-10
1.57793e-10
1.54894e-10
1.52034e-10
1.49214e-10
1.46432e-10
1.43688e-10
1.40983e-10
1.38316e-10
1.35687e-10
1.33095e-10
1.30541e-10
1.28024e-10
1.25544e-10
1.23101e-10
1.20694e-10
1.18323e-10
1.15989e-10
1.13689e-10
1.11425e-10
1.09196e-10
1.07002e-10
1.04843e-10
1.02717e-10
1.00625e-10
9.85674e-11
9.65426e-11
9.45508e-11
9.25916e-11
9.06647e-11
8.87699e-11
8.69067e-11
8.50749e-11
8.32742e-11
8.15041e-11
7.97645e-11
7.8055e-11
7.63751e-11
7.47247e-11
7.31034e-11
7.15108e-11
6.99466e-11
6.84105e-11
6.69022e-11
6.54212e-11
6.39673e-11
6.25402e-11
6.11394e-11
5.97647e-11
5.84158e-11
5.70923e-11
5.57938e-11
5.45201e-11
5.32707e-11
5.20455e-11
5.0844e-11
4.96659e-11
4.85109e-11
4.73787e-11
4.6269e-11
4.51813e-11
4.41155e-11
4.30711e-11
4.2048e-11
4.10456e-11
4.00639e-11
3.91023e-11
3.81607e-11
3.72387e-11
3.6336e-11
3.54524e-11
3.45874e-11
3.37409e-11
3.29125e-11
3.21019e-11
3.13089e-11
3.05332e-11
2.97744e-11
2.90323e-11
2.83067e-11
2.75972e-11
2.69036e-11
2.62256e-11
2.55629e-11
2.49154e-11
2.42826e-11
2.36644e-11
2.30606e-11
2.24708e-11
2.18948e-11
2.13324e-11
2.07834e-11
2.02474e-11
1.97244e-11
1.92139e-11
1.87159e-11
1.82301e-11
1.77562e-11
1.72941e-11
1.68436e-11
1.64044e-11
1.59763e-11
1.55591e-11
1.51526e-11
1.47567e-11
1.43712e-11
1.39957e-11
1.36303e-11
1.32746e-11
1.29285e-11
1.25918e-11
1.22644e-11
1.19461e-11
1.16367e-11
1.13361e-11
1.10441e-11
1.07605e-11
1.04852e-11
1.02181e-11
9.95897e-12
9.70771e-12
9.46417e-12
9.22822e-12
8.99973e-12
8.77857e-12
8.56462e-12
8.35775e-12
8.15786e-12
7.96482e-12
7.77852e-12
7.59886e-12
7.42573e-12
7.25904e-12
7.09867e-12
6.94454e-12
6.79656e-12
6.65464e-12
6.51869e-12
6.38863e-12
6.26439e-12
6.14588e-12
6.03304e-12
5.9258e-12
5.82409e-12
5.72785e-12
5.63702e-12
5.55154e-12
5.47136e-12
5.39644e-12
5.32672e-12
5.26216e-12
5.20272e-12
5.14837e-12
5.09906e-12
5.05478e-12
5.01548e-12
4.98115e-12
4.95177e-12
4.92731e-12
4.90776e-12
4.89311e-12
4.88335e-12
4.87847e-12
1.38449e-11
4.15036e-11
6.907e-11
9.64851e-11
1.23693e-10
1.50641e-10
1.7728e-10
2.03566e-10
2.29459e-10
2.54921e-10
2.79921e-10
3.04428e-10
3.28417e-10
3.51867e-10
3.74759e-10
3.97078e-10
4.18811e-10
4.39949e-10
4.60485e-10
4.80414e-10
4.99733e-10
5.18444e-10
5.36546e-10
5.54044e-10
5.70943e-10
5.87247e-10
6.02965e-10
6.18105e-10
6.32675e-10
6.46687e-10
6.6015e-10
6.73075e-10
6.85474e-10
6.97358e-10
7.08741e-10
7.19633e-10
7.30048e-10
7.39997e-10
7.49493e-10
7.58548e-10
7.67174e-10
7.75383e-10
7.83188e-10
7.90599e-10
7.97627e-10
8.04285e-10
8.10583e-10
8.16531e-10
8.2214e-10
8.2742e-10
8.3238e-10
8.3703e-10
8.41379e-10
8.45436e-10
8.49209e-10
8.52707e-10
8.55937e-10
8.58908e-10
8.61627e-10
8.64101e-10
8.66336e-10
8.6834e-10
8.70119e-10
8.7168e-10
8.73027e-10
8.74167e-10
8.75106e-10
8.75848e-10
8.764e-10
8.76765e-10
8.76949e-10
8.76956e-10
8.76792e-10
8.76459e-10
8.75963e-10
8.75307e-10
8.74495e-10
8.73532e-10
8.7242e-10
8.71164e-10
8.69767e-10
8.68231e-10
8.66562e-10
8.6476e-10
8.62831e-10
8.60776e-10
8.58598e-10
8.56301e-10
8.53888e-10
8.5136e-10
8.48721e-10
8.45973e-10
8.43119e-10
8.40161e-10
8.37102e-10
8.33944e-10
8.3069e-10
8.27341e-10
8.23901e-10
8.2037e-10
8.16753e-10
8.1305e-10
8.09264e-10
8.05397e-10
8.01451e-10
7.97428e-10
7.9333e-10
7.8916e-10
7.84919e-10
7.80609e-10
7.76232e-10
7.7179e-10
7.67285e-10
7.62719e-10
7.58093e-10
7.5341e-10
7.48671e-10
7.43879e-10
7.39035e-10
7.3414e-10
7.29197e-10
7.24207e-10
7.19172e-10
7.14094e-10
7.08974e-10
7.03815e-10
6.98617e-10
6.93383e-10
6.88114e-10
6.82811e-10
6.77477e-10
6.72113e-10
6.6672e-10
6.61301e-10
6.55856e-10
6.50388e-10
6.44897e-10
6.39385e-10
6.33854e-10
6.28305e-10
6.2274e-10
6.17161e-10
6.11567e-10
6.05962e-10
6.00346e-10
5.9472e-10
5.89087e-10
5.83447e-10
5.77802e-10
5.72153e-10
5.66502e-10
5.60849e-10
5.55196e-10
5.49544e-10
5.43895e-10
5.38249e-10
5.32608e-10
5.26973e-10
5.21345e-10
5.15725e-10
5.10114e-10
5.04514e-10
4.98926e-10
4.9335e-10
4.87788e-10
4.8224e-10
4.76708e-10
4.71192e-10
4.65694e-10
4.60215e-10
4.54755e-10
4.49315e-10
4.43897e-10
4.385e-10
4.33127e-10
4.27777e-10
4.22452e-10
4.17152e-10
4.11878e-10
4.06631e-10
4.01411e-10
3.9622e-10
3.91058e-10
3.85925e-10
3.80823e-10
3.75751e-10
3.70711e-10
3.65703e-10
3.60727e-10
3.55785e-10
3.50877e-10
3.46002e-10
3.41163e-10
3.36358e-10
3.3159e-10
3.26857e-10
3.22161e-10
3.17501e-10
3.1288e-10
3.08295e-10
3.03749e-10
2.99241e-10
2.94772e-10
2.90341e-10
2.8595e-10
2.81599e-10
2.77287e-10
2.73015e-10
2.68783e-10
2.64592e-10
2.60441e-10
2.56331e-10
2.52262e-10
2.48234e-10
2.44247e-10
2.40301e-10
2.36397e-10
2.32534e-10
2.28713e-10
2.24933e-10
2.21194e-10
2.17498e-10
2.13842e-10
2.10229e-10
2.06657e-10
2.03127e-10
1.99638e-10
1.96191e-10
1.92785e-10
1.8942e-10
1.86097e-10
1.82815e-10
1.79574e-10
1.76374e-10
1.73214e-10
1.70096e-10
1.67018e-10
1.6398e-10
1.60983e-10
1.58026e-10
1.55108e-10
1.52231e-10
1.49392e-10
1.46593e-10
1.43834e-10
1.41113e-10
1.3843e-10
1.35787e-10
1.33181e-10
1.30613e-10
1.28083e-10
1.2559e-10
1.23135e-10
1.20716e-10
1.18334e-10
1.15988e-10
1.13678e-10
1.11404e-10
1.09166e-10
1.06962e-10
1.04794e-10
1.0266e-10
1.0056e-10
9.84946e-11
9.64625e-11
9.44637e-11
9.24979e-11
9.05647e-11
8.86639e-11
8.67951e-11
8.49579e-11
8.31521e-11
8.13773e-11
7.96332e-11
7.79194e-11
7.62356e-11
7.45815e-11
7.29567e-11
7.13609e-11
6.97937e-11
6.82549e-11
6.6744e-11
6.52607e-11
6.38047e-11
6.23756e-11
6.09731e-11
5.95969e-11
5.82466e-11
5.69219e-11
5.56224e-11
5.43478e-11
5.30978e-11
5.1872e-11
5.06701e-11
4.94918e-11
4.83367e-11
4.72045e-11
4.60949e-11
4.50075e-11
4.3942e-11
4.28981e-11
4.18756e-11
4.08739e-11
3.98929e-11
3.89323e-11
3.79916e-11
3.70707e-11
3.61692e-11
3.52867e-11
3.44231e-11
3.3578e-11
3.2751e-11
3.1942e-11
3.11505e-11
3.03764e-11
2.96193e-11
2.8879e-11
2.81552e-11
2.74476e-11
2.67558e-11
2.60798e-11
2.54191e-11
2.47736e-11
2.41429e-11
2.35268e-11
2.29251e-11
2.23375e-11
2.17638e-11
2.12036e-11
2.06568e-11
2.01232e-11
1.96024e-11
1.90943e-11
1.85987e-11
1.81152e-11
1.76438e-11
1.71841e-11
1.6736e-11
1.62993e-11
1.58737e-11
1.5459e-11
1.50551e-11
1.46617e-11
1.42787e-11
1.39059e-11
1.3543e-11
1.31899e-11
1.28464e-11
1.25124e-11
1.21877e-11
1.1872e-11
1.15653e-11
1.12674e-11
1.09781e-11
1.06972e-11
1.04247e-11
1.01603e-11
9.90399e-12
9.65553e-12
9.4148e-12
9.18169e-12
8.95606e-12
8.73779e-12
8.52674e-12
8.32281e-12
8.12586e-12
7.9358e-12
7.75251e-12
7.57588e-12
7.40581e-12
7.2422e-12
7.08496e-12
6.93398e-12
6.78919e-12
6.65049e-12
6.5178e-12
6.39105e-12
6.27015e-12
6.15502e-12
6.04561e-12
5.94185e-12
5.84366e-12
5.75099e-12
5.66379e-12
5.58199e-12
5.50555e-12
5.43442e-12
5.36856e-12
5.30792e-12
5.25247e-12
5.20216e-12
5.15698e-12
5.11689e-12
5.08187e-12
5.05189e-12
5.02693e-12
5.00699e-12
4.99204e-12
4.98208e-12
4.97711e-12
1.39417e-11
4.17957e-11
6.9562e-11
9.71838e-11
1.24607e-10
1.5178e-10
1.78656e-10
2.05189e-10
2.31339e-10
2.57068e-10
2.82345e-10
3.07138e-10
3.31422e-10
3.55173e-10
3.78373e-10
4.01005e-10
4.23055e-10
4.44514e-10
4.65372e-10
4.85625e-10
5.05269e-10
5.24303e-10
5.42728e-10
5.60546e-10
5.77761e-10
5.94379e-10
6.10406e-10
6.2585e-10
6.40719e-10
6.55024e-10
6.68773e-10
6.81978e-10
6.9465e-10
7.068e-10
7.1844e-10
7.29583e-10
7.4024e-10
7.50424e-10
7.60146e-10
7.6942e-10
7.78257e-10
7.86668e-10
7.94667e-10
8.02265e-10
8.09472e-10
8.16301e-10
8.22762e-10
8.28867e-10
8.34624e-10
8.40045e-10
8.45139e-10
8.49916e-10
8.54386e-10
8.58557e-10
8.62437e-10
8.66036e-10
8.69362e-10
8.72421e-10
8.75223e-10
8.77774e-10
8.80081e-10
8.82152e-10
8.83992e-10
8.85608e-10
8.87007e-10
8.88193e-10
8.89174e-10
8.89953e-10
8.90538e-10
8.90932e-10
8.9114e-10
8.91168e-10
8.9102e-10
8.907e-10
8.90213e-10
8.89563e-10
8.88754e-10
8.87789e-10
8.86674e-10
8.8541e-10
8.84002e-10
8.82453e-10
8.80767e-10
8.78946e-10
8.76995e-10
8.74916e-10
8.72711e-10
8.70385e-10
8.67939e-10
8.65377e-10
8.62702e-10
8.59915e-10
8.5702e-10
8.54019e-10
8.50915e-10
8.4771e-10
8.44407e-10
8.41008e-10
8.37514e-10
8.3393e-10
8.30256e-10
8.26496e-10
8.22651e-10
8.18723e-10
8.14714e-10
8.10628e-10
8.06465e-10
8.02228e-10
7.97919e-10
7.9354e-10
7.89092e-10
7.84579e-10
7.80001e-10
7.75361e-10
7.7066e-10
7.65901e-10
7.61085e-10
7.56215e-10
7.51291e-10
7.46317e-10
7.41292e-10
7.36221e-10
7.31103e-10
7.25942e-10
7.20738e-10
7.15494e-10
7.10211e-10
7.0489e-10
6.99534e-10
6.94145e-10
6.88723e-10
6.8327e-10
6.77788e-10
6.72279e-10
6.66745e-10
6.61186e-10
6.55604e-10
6.50001e-10
6.44379e-10
6.38738e-10
6.33081e-10
6.27409e-10
6.21723e-10
6.16025e-10
6.10316e-10
6.04597e-10
5.9887e-10
5.93137e-10
5.87399e-10
5.81656e-10
5.75911e-10
5.70164e-10
5.64417e-10
5.58672e-10
5.52929e-10
5.47189e-10
5.41455e-10
5.35726e-10
5.30005e-10
5.24291e-10
5.18588e-10
5.12895e-10
5.07214e-10
5.01545e-10
4.9589e-10
4.90251e-10
4.84627e-10
4.7902e-10
4.7343e-10
4.6786e-10
4.62309e-10
4.56779e-10
4.51271e-10
4.45785e-10
4.40322e-10
4.34883e-10
4.2947e-10
4.24082e-10
4.1872e-10
4.13386e-10
4.0808e-10
4.02802e-10
3.97554e-10
3.92336e-10
3.87149e-10
3.81993e-10
3.76869e-10
3.71778e-10
3.6672e-10
3.61696e-10
3.56706e-10
3.5175e-10
3.4683e-10
3.41946e-10
3.37098e-10
3.32287e-10
3.27513e-10
3.22776e-10
3.18078e-10
3.13417e-10
3.08795e-10
3.04213e-10
2.99669e-10
2.95165e-10
2.90701e-10
2.86277e-10
2.81894e-10
2.77551e-10
2.73249e-10
2.68988e-10
2.64768e-10
2.6059e-10
2.56453e-10
2.52358e-10
2.48305e-10
2.44294e-10
2.40324e-10
2.36397e-10
2.32512e-10
2.2867e-10
2.24869e-10
2.21111e-10
2.17395e-10
2.13722e-10
2.1009e-10
2.06501e-10
2.02955e-10
1.9945e-10
1.95987e-10
1.92567e-10
1.89189e-10
1.85852e-10
1.82557e-10
1.79304e-10
1.76092e-10
1.72922e-10
1.69793e-10
1.66705e-10
1.63657e-10
1.60651e-10
1.57685e-10
1.5476e-10
1.51874e-10
1.49029e-10
1.46223e-10
1.43457e-10
1.4073e-10
1.38042e-10
1.35393e-10
1.32783e-10
1.30211e-10
1.27677e-10
1.2518e-10
1.22721e-10
1.203e-10
1.17915e-10
1.15567e-10
1.13255e-10
1.10979e-10
1.08739e-10
1.06535e-10
1.04366e-10
1.02231e-10
1.00131e-10
9.80651e-11
9.60331e-11
9.40346e-11
9.20693e-11
9.01369e-11
8.8237e-11
8.63694e-11
8.45336e-11
8.27293e-11
8.09562e-11
7.92139e-11
7.75022e-11
7.58206e-11
7.41688e-11
7.25465e-11
7.09533e-11
6.93888e-11
6.78528e-11
6.63449e-11
6.48647e-11
6.34119e-11
6.19861e-11
6.0587e-11
5.92143e-11
5.78676e-11
5.65465e-11
5.52508e-11
5.398e-11
5.27338e-11
5.15119e-11
5.0314e-11
4.91397e-11
4.79887e-11
4.68607e-11
4.57552e-11
4.4672e-11
4.36108e-11
4.25713e-11
4.1553e-11
4.05557e-11
3.95791e-11
3.86228e-11
3.76866e-11
3.67701e-11
3.5873e-11
3.4995e-11
3.41358e-11
3.32951e-11
3.24726e-11
3.16681e-11
3.08811e-11
3.01114e-11
2.93588e-11
2.8623e-11
2.79036e-11
2.72004e-11
2.65131e-11
2.58414e-11
2.51852e-11
2.4544e-11
2.39177e-11
2.3306e-11
2.27086e-11
2.21253e-11
2.15559e-11
2.1e-11
2.04575e-11
1.99281e-11
1.94116e-11
1.89077e-11
1.84162e-11
1.79369e-11
1.74696e-11
1.70141e-11
1.65701e-11
1.61374e-11
1.57158e-11
1.53052e-11
1.49053e-11
1.45159e-11
1.41369e-11
1.3768e-11
1.3409e-11
1.30599e-11
1.27203e-11
1.23902e-11
1.20693e-11
1.17575e-11
1.14546e-11
1.11605e-11
1.0875e-11
1.05979e-11
1.03291e-11
1.00685e-11
9.81594e-12
9.57122e-12
9.33424e-12
9.10486e-12
8.88295e-12
8.6684e-12
8.46108e-12
8.26086e-12
8.06764e-12
7.8813e-12
7.70174e-12
7.52885e-12
7.36252e-12
7.20266e-12
7.04918e-12
6.90198e-12
6.76098e-12
6.62609e-12
6.49723e-12
6.37432e-12
6.25728e-12
6.14605e-12
6.04056e-12
5.94074e-12
5.84654e-12
5.75788e-12
5.67473e-12
5.59702e-12
5.52471e-12
5.45775e-12
5.3961e-12
5.33973e-12
5.28859e-12
5.24266e-12
5.2019e-12
5.16629e-12
5.13582e-12
5.11045e-12
5.09017e-12
5.07498e-12
5.06485e-12
5.05979e-12
1.40212e-11
4.20353e-11
6.99648e-11
9.77551e-11
1.25353e-10
1.52708e-10
1.79774e-10
2.06505e-10
2.32862e-10
2.58806e-10
2.84305e-10
3.09327e-10
3.33846e-10
3.57839e-10
3.81285e-10
4.04167e-10
4.26472e-10
4.48186e-10
4.69303e-10
4.89815e-10
5.09719e-10
5.29013e-10
5.47696e-10
5.6577e-10
5.8324e-10
6.00109e-10
6.16384e-10
6.32071e-10
6.4718e-10
6.61719e-10
6.75699e-10
6.89128e-10
7.02019e-10
7.14382e-10
7.2623e-10
7.37574e-10
7.48426e-10
7.58798e-10
7.68702e-10
7.78152e-10
7.87158e-10
7.95733e-10
8.03888e-10
8.11636e-10
8.18987e-10
8.25954e-10
8.32546e-10
8.38776e-10
8.44653e-10
8.50188e-10
8.5539e-10
8.6027e-10
8.64836e-10
8.69099e-10
8.73066e-10
8.76746e-10
8.80148e-10
8.83279e-10
8.86148e-10
8.88761e-10
8.91126e-10
8.9325e-10
8.9514e-10
8.96801e-10
8.98241e-10
8.99465e-10
9.00479e-10
9.01289e-10
9.019e-10
9.02317e-10