/*--------------------------------*- C++ -*----------------------------------*\
  =========                 |
  \\      /  F ield         | OpenFOAM: The Open Source CFD Toolbox
   \\    /   O peration     | Website:  https://openfoam.org
    \\  /    A nd           | Version:  10
     \\/     M anipulation  |
\*---------------------------------------------------------------------------*/
FoamFile
{
    format      ascii;
    class       surfaceScalarField;
    location    "8";
    object      phi;
}
// * * * * * * * * * * * * * * * * * * * * * * * * * * * * * * * * * * * * * //

dimensions      [1 0 -1 0 0 0 0];

internalField   nonuniform List<scalar> 
10325
(
0.00840002
1.68704e-10
0.00840005
1.08008e-10
0.00839996
3.26799e-09
0.0084002
6.64177e-10
0.00839965
2.247e-08
0.00840089
1.03853e-08
0.00839806
1.25783e-07
0.00840318
1.29568e-07
0.00839222
6.11189e-07
0.00840882
1.17687e-06
0.00837769
3.29659e-06
0.00840134
9.18334e-06
0.00834459
2.98591e-05
0.0082339
0.00011975
0.00762991
0.000588415
0.00700966
0.000621302
0.00640032
0.000610258
0.00576596
0.000634157
0.00509902
0.000666571
0.00438766
0.000710748
0.00362117
0.000765778
0.00279831
0.000822112
0.00192319
0.000874338
0.000993928
0.000928863
0.00099346
0.00840003
1.25362e-10
0.0084
1.16617e-09
0.00840009
2.93049e-09
0.00839986
1.15006e-08
0.00840042
2.33134e-08
0.00839886
7.15256e-08
0.00840264
1.62953e-07
0.00839369
4.13549e-07
0.00841171
1.07748e-06
0.00837825
2.37856e-06
0.00841737
7.00711e-06
0.00836403
1.84475e-05
0.00836367
6.18974e-05
0.00822209
0.00024091
0.00762039
0.00118116
0.00699475
0.00124877
0.00639371
0.00121229
0.00576589
0.00126173
0.00510218
0.0013299
0.00438457
0.00142777
0.00360997
0.00153968
0.00277919
0.00165215
0.00189292
0.00175983
0.00095931
0.00186207
0.00195229
0.00840003
1.6753e-10
0.00840002
1.81562e-09
0.00840002
4.35513e-09
0.00840002
1.77939e-08
0.00840002
3.23438e-08
0.00839972
1.2123e-07
0.00840046
1.83892e-07
0.00839736
7.97442e-07
0.00840289
1.09132e-06
0.00839123
4.74731e-06
0.0083997
8.57555e-06
0.00838039
3.02773e-05
0.00835716
9.0603e-05
0.00823029
0.000359689
0.00763941
0.00175988
0.00701103
0.00187876
0.00641639
0.00180796
0.00579653
0.00188134
0.00513868
0.00198735
0.00442271
0.00214317
0.00364712
0.00231464
0.0028103
0.0024883
0.00191455
0.0026548
0.000967169
0.00280902
0.00291898
0.00840003
2.52048e-10
0.00840001
2.35962e-09
0.00840009
5.81242e-09
0.0083999
2.28112e-08
0.00840029
4.42403e-08
0.0083994
1.41741e-07
0.00840084
3.05383e-07
0.00839767
8.17937e-07
0.00840217
2.02802e-06
0.0083915
4.97752e-06
0.00840332
1.35204e-05
0.00837283
3.75957e-05
0.00835817
0.000122268
0.00823894
0.000466182
0.00768064
0.00230797
0.00705645
0.00250543
0.0064686
0.00239687
0.00585967
0.00249002
0.00521151
0.00263523
0.00450385
0.00285015
0.00372999
0.00308757
0.00289077
0.00332649
0.00198011
0.00356458
0.00100779
0.00378093
0.00392626
0.00840003
4.88052e-10
0.00840004
2.15055e-09
0.00839998
9.80661e-09
0.00840013
2.08374e-08
0.00839967
7.19927e-08
0.00840087
1.47039e-07
0.00839762
4.35442e-07
0.0084052
9.70139e-07
0.00838825
2.56028e-06
0.00841611
6.359e-06
0.00837209
1.64391e-05
0.0084045
4.68992e-05
0.00834272
0.000149308
0.00826
0.000561725
0.00776038
0.00279084
0.00713187
0.00313626
0.00655188
0.00297796
0.00595525
0.00308639
0.00532054
0.00326942
0.00462758
0.00354277
0.00386275
0.00385218
0.00302028
0.00416885
0.00209285
0.00449151
0.00107584
0.00479777
0.00500167
0.00840003
4.62935e-10
0.00840001
3.03149e-09
0.00840009
9.8375e-09
0.00839989
2.89675e-08
0.00840033
7.44054e-08
0.00839934
1.83356e-07
0.00840127
4.95256e-07
0.00839698
1.09199e-06
0.00840396
3.19646e-06
0.00838945
6.84656e-06
0.00840718
2.03586e-05
0.00837141
5.31932e-05
0.00837048
0.000173754
0.00828033
0.000636197
0.00790646
0.0031524
0.0072663
0.00378023
0.00668397
0.00356179
0.00609718
0.00367296
0.00547845
0.00388789
0.00480198
0.00421876
0.00405035
0.004603
0.00320727
0.00501081
0.00225701
0.0054408
0.00118418
0.00586981
0.00618526
0.00840002
5.59084e-10
0.00840005
2.88026e-09
0.00839997
1.17555e-08
0.00840016
2.87579e-08
0.00839973
8.60822e-08
0.00840072
2.01212e-07
0.00839848
5.27466e-07
0.00840296
1.30553e-06
0.00839308
3.16998e-06
0.00840965
8.44643e-06
0.00837959
2.09646e-05
0.00840851
6.01619e-05
0.00836258
0.00018654
0.00833318
0.000677874
0.00816515
0.00330144
0.007507
0.00444192
0.00689359
0.0041769
0.00630534
0.0042611
0.00570174
0.00449124
0.00504316
0.00487689
0.00430682
0.00533872
0.00346996
0.00584708
0.00249962
0.00641069
0.0013535
0.00701607
0.00753852
0.00840003
5.33628e-10
0.00840001
3.30927e-09
0.0084001
1.11759e-08
0.00839988
3.21801e-08
0.00840041
8.37541e-08
0.00839918
2.08898e-07
0.0084021
5.51192e-07
0.00839568
1.2705e-06
0.00840927
3.51749e-06
0.00838371
7.98109e-06
0.00842104
2.25452e-05
0.00837426
5.95396e-05
0.008412
0.000187113
0.00840358
0.000662444
0.00859467
0.0030977
0.00790784
0.00513341
0.00722036
0.00486662
0.00661658
0.00486517
0.00602048
0.00508734
0.00537703
0.0055203
0.00465794
0.00605791
0.00383011
0.00667449
0.00285389
0.00738607
0.00163279
0.00823648
0.00917098
0.00840003
4.82169e-10
0.00840003
2.85407e-09
0.00840001
1.04142e-08
0.00840007
2.81728e-08
0.00839999
7.61837e-08
0.00840001
1.9094e-07
0.00840031
4.72004e-07
0.00839888
1.20775e-06
0.00840295
2.89757e-06
0.00839586
7.59982e-06
0.00840938
1.88911e-05
0.00840804
5.22096e-05
0.00844368
0.000154926
0.00856726
0.00053234
0.00932701
0.00232262
0.00859979
0.00586349
0.00771894
0.00574961
0.00709579
0.00548929
0.00645919
0.0057245
0.00583227
0.00614701
0.00512867
0.00676143
0.00435026
0.00745286
0.00341969
0.00831645
0.00212327
0.0095327
0.011294
0.00840003
3.20035e-10
0.00840002
2.99179e-09
0.00840004
7.77244e-09
0.0084
2.89559e-08
0.00840014
5.91981e-08
0.0083997
1.86622e-07
0.00840106
3.7964e-07
0.00839765
1.12723e-06
0.00840709
2.37578e-06
0.00838874
6.75666e-06
0.00842355
1.55451e-05
0.008394
4.37637e-05
0.00845653
0.000123583
0.00855393
0.00041329
0.00914432
0.00173115
0.00885246
0.00614985
0.00815111
0.00644992
0.00755398
0.00608707
0.00695097
0.00632743
0.00636831
0.00672962
0.00574795
0.00738163
0.00507287
0.00812781
0.00420915
0.00917993
0.00297058
0.010771
0.0142641
0.00840003
3.87363e-10
0.00840004
2.36261e-09
0.00839999
8.41883e-09
0.00840012
2.33063e-08
0.0083998
6.17442e-08
0.00840067
1.57911e-07
0.00839871
3.78781e-07
0.00840369
9.90956e-07
0.00839311
2.26837e-06
0.00841603
6.13359e-06
0.00837897
1.43801e-05
0.00843273
3.97148e-05
0.00839669
0.000111416
0.00846876
0.000366095
0.00872532
0.00146136
0.00870002
0.0061641
0.00843923
0.00670775
0.00786833
0.00665716
0.00739776
0.00679737
0.0069172
0.00720971
0.00647062
0.00782772
0.00596822
0.0086298
0.00550957
0.00963835
0.00543653
0.010844
0.0113571
0.00834383
0.00840003
4.35219e-10
0.00840003
2.06407e-09
0.00840004
8.86281e-09
0.00840001
2.02554e-08
0.00840003
6.52082e-08
0.00840005
1.35307e-07
0.00839976
4.11165e-07
0.00840079
8.33022e-07
0.00839755
2.5049e-06
0.00840462
5.22528e-06
0.00839318
1.52318e-05
0.00840879
3.62758e-05
0.00840156
0.000108079
0.00843522
0.000339958
0.00858556
0.00130074
0.00871932
0.00601782
0.00840045
0.00702551
0.00802727
0.00702982
0.00769749
0.00712648
0.0073487
0.00755789
0.00702651
0.00814951
0.00675634
0.00889963
0.00664618
0.00974791
0.00701456
0.010475
0.0104628
0.00790748
0.00840003
3.47217e-10
0.00840002
2.32592e-09
0.00840004
7.51673e-09
0.0084
2.26795e-08
0.00840012
5.63954e-08
0.00839974
1.48696e-07
0.00840081
3.60797e-07
0.00839797
9.11767e-07
0.00840519
2.24676e-06
0.00838962
5.59152e-06
0.0084189
1.42026e-05
0.00837704
3.66965e-05
0.00842607
0.000102802
0.00840449
0.000323812
0.00853375
0.00118626
0.00892218
0.00561124
0.00860586
0.00734201
0.00827361
0.00736212
0.00798614
0.00741354
0.00775247
0.00779082
0.00754543
0.00835598
0.00745414
0.00899045
0.00760454
0.00959767
0.00804664
0.0100324
0.0099354
0.0085736
0.00840003
2.91991e-10
0.00840003
2.28609e-09
0.00840002
6.75195e-09
0.00840005
2.23579e-08
0.00840001
5.05443e-08
0.00840003
1.48594e-07
0.00840011
3.19345e-07
0.00839951
9.23698e-07
0.00840142
1.98841e-06
0.00839667
5.68094e-06
0.00840651
1.28476e-05
0.00839536
3.6015e-05
0.00841329
9.47373e-05
0.0084296
0.00029759
0.0085686
0.00105033
0.0094604
0.00470205
0.0090716
0.00773232
0.00863407
0.0078006
0.00834804
0.00769985
0.0081647
0.00797361
0.00807038
0.00844981
0.00809996
0.00896083
0.00829623
0.00940093
0.00867413
0.00965416
0.00950076
0.00910801
0.00840003
2.91665e-10
0.00840003
1.77791e-09
0.00840002
6.31186e-09
0.00840005
1.73469e-08
0.00839998
4.6759e-08
0.00840022
1.15246e-07
0.00839961
2.92598e-07
0.00840158
7.17989e-07
0.00839718
1.78382e-06
0.00840976
4.42934e-06
0.00838811
1.10051e-05
0.00843446
2.82006e-05
0.00840516
7.50248e-05
0.00852361
0.000220863
0.00880513
0.000740648
0.0104371
0.00305859
0.00980596
0.00836474
0.00933997
0.00826802
0.00886969
0.00817094
0.00863506
0.00820826
0.00856164
0.00852289
0.00861873
0.00890349
0.00881725
0.00920272
0.00913807
0.00933281
0.00914716
0.00949081
0.00840003
2.37904e-10
0.00840003
1.47459e-09
0.00840003
5.15307e-09
0.00840004
1.43925e-08
0.00840002
3.83401e-08
0.00840012
9.49163e-08
0.00839984
2.41271e-07
0.00840093
5.80363e-07
0.00839844
1.4643e-06
0.00840671
3.52255e-06
0.00839202
8.95403e-06
0.00842711
2.21349e-05
0.00840572
5.86302e-05
0.00849453
0.000165397
0.00867679
0.00053455
0.00964271
0.00209424
0.0101215
0.00787858
0.00978807
0.00860054
0.00933123
0.00862719
0.00909203
0.00844761
0.00901925
0.00859539
0.00906783
0.00885492
0.0092317
0.00903893
0.00949448
0.00907055
0.00886546
0.00977587
0.00840003
2.12427e-10
0.00840003
1.21891e-09
0.00840003
4.55441e-09
0.00840004
1.19757e-08
0.00840001
3.3586e-08
0.00840013
8.00378e-08
0.00839982
2.08651e-07
0.00840088
4.96764e-07
0.00839835
1.25974e-06
0.00840578
3.06476e-06
0.00839165
7.654e-06
0.00842289
1.92262e-05
0.00839095
4.95927e-05
0.00846085
0.000138223
0.00852336
0.000434364
0.00902221
0.0016096
0.0100442
0.00683802
0.00992451
0.00871816
0.0097066
0.00884395
0.00946978
0.0086842
0.00939642
0.00866869
0.00944642
0.00880495
0.00957947
0.00890619
0.00977979
0.00887053
0.00864649
0.00999907
0.00840003
1.84813e-10
0.00840003
1.07035e-09
0.00840004
3.85432e-09
0.00840002
1.03883e-08
0.00840007
2.87201e-08
0.00839998
6.81355e-08
0.00840016
1.84811e-07
0.00840006
4.14802e-07
0.0084
1.14417e-06
0.00840135
2.52412e-06
0.00839893
7.04096e-06
0.00840718
1.60443e-05
0.00840612
4.45859e-05
0.00842962
0.000116537
0.00849859
0.000362856
0.00883197
0.00127483
0.0103409
0.00531188
0.0102833
0.00877636
0.0100597
0.00906807
0.00981428
0.00893034
0.00973208
0.00875128
0.00976679
0.00877006
0.00987352
0.00879965
0.010023
0.00872126
0.00848613
0.0101832
0.00840003
1.2428e-10
0.00840003
9.05213e-10
0.00840003
2.82216e-09
0.00840004
8.87403e-09
0.00840003
2.09108e-08
0.00840005
5.84601e-08
0.00840012
1.30967e-07
0.00839994
3.58042e-07
0.00840109
8.00802e-07
0.00839873
2.15283e-06
0.00840758
4.9188e-06
0.00839632
1.30112e-05
0.00843202
3.14526e-05
0.00843574
8.52957e-05
0.00857766
0.000242533
0.00903309
0.000801312
0.0111964
0.00313346
0.0109202
0.00905178
0.0107104
0.0092801
0.0103507
0.0092914
0.0101369
0.00896554
0.0100945
0.00881271
0.0101504
0.00874387
0.0102508
0.00862096
0.00837708
0.0103603
0.00840003
1.11826e-10
0.00840003
6.50549e-10
0.00840003
2.40378e-09
0.00840004
6.34982e-09
0.00840001
1.77057e-08
0.00840013
4.25571e-08
0.00839988
1.09031e-07
0.00840067
2.64628e-07
0.00839921
6.46644e-07
0.00840364
1.62669e-06
0.00839615
3.84817e-06
0.00841692
9.99158e-06
0.00839303
2.38178e-05
0.00845874
6.37801e-05
0.00847478
0.000174315
0.00876312
0.000553212
0.00978822
0.00207919
0.0110955
0.00774037
0.0109885
0.00938727
0.0107638
0.00951677
0.0105104
0.00921983
0.0104087
0.00891465
0.0104142
0.00873857
0.0104673
0.00856763
0.00831242
0.0105321
0.00840003
9.00876e-11
0.00840003
5.27873e-10
0.00840003
1.90045e-09
0.00840002
5.15359e-09
0.00840005
1.41203e-08
0.00840001
3.37326e-08
0.00840013
8.95589e-08
0.00840003
2.04256e-07
0.0084002
5.50082e-07
0.00840078
1.22963e-06
0.00839979
3.34018e-06
0.0084054
7.52755e-06
0.00840268
2.0503e-05
0.0084235
4.93714e-05
0.00845363
0.000139719
0.00859027
0.000417835
0.00916413
0.00149777
0.0110357
0.00585598
0.0111684
0.00925415
0.0110782
0.00960705
0.0108354
0.00946327
0.0107001
0.00905032
0.010662
0.00877636
0.0106774
0.00855218
0.00828325
0.010706
0.00840003
6.35274e-11
0.00840003
4.06371e-10
0.00840003
1.39541e-09
0.00840003
3.98306e-09
0.00840004
1.03347e-08
0.00840003
2.64327e-08
0.0084001
6.45121e-08
0.00839996
1.62317e-07
0.00840065
3.89716e-07
0.00839934
9.78804e-07
0.0084044
2.35605e-06
0.00839614
5.93133e-06
0.00842342
1.44427e-05
0.00839821
3.71411e-05
0.00848984
9.64521e-05
0.00857948
0.000279421
0.00918593
0.000916776
0.0115651
0.00345147
0.0116558
0.00916112
0.0115633
0.00970056
0.0113226
0.00970491
0.0110513
0.00932212
0.0109329
0.00889436
0.010897
0.00858696
0.00829079
0.010889
0.00840003
4.73148e-11
0.00840003
3.07662e-10
0.00840003
1.03865e-09
0.00840003
3.00027e-09
0.00840004
7.69384e-09
0.00840002
1.97199e-08
0.00840011
4.79352e-08
0.00839994
1.20535e-07
0.00840064
2.8927e-07
0.00839935
7.23924e-07
0.00840388
1.73073e-06
0.00839664
4.35873e-06
0.00842004
1.04976e-05
0.00839429
2.67921e-05
0.00847579
6.78444e-05
0.00850301
0.000188694
0.00888757
0.000585277
0.0101581
0.00214335
0.0117759
0.00754086
0.0118134
0.00966267
0.0116369
0.00988115
0.0113603
0.00959922
0.0112256
0.009028
0.0111369
0.00867471
0.00833864
0.011087
0.00840003
3.34406e-11
0.00840003
2.40915e-10
0.00840003
7.4734e-10
0.00840003
2.34855e-09
0.00840004
5.56688e-09
0.00840002
1.53731e-08
0.0084001
3.5149e-08
0.00839995
9.31741e-08
0.00840047
2.15376e-07
0.00839962
5.54834e-07
0.00840249
1.31797e-06
0.0083981
3.30124e-06
0.00841217
8.10362e-06
0.00839641
2.01558e-05
0.00844839
5.15552e-05
0.00845017
0.000137978
0.00866943
0.000411366
0.00934676
0.0014339
0.0117012
0.00517974
0.0119635
0.00939733
0.0120059
0.0098378
0.0118325
0.00977144
0.0115226
0.00933722
0.0113922
0.00880369
0.00842169
0.0113083
0.00840003
2.60563e-11
0.00840003
1.61154e-10
0.00840003
5.67018e-10
0.00840003
1.57287e-09
0.00840003
4.18219e-09
0.00840005
1.03563e-08
0.00840002
2.59725e-08
0.00840015
6.32698e-08
0.00839992
1.55668e-07
0.00840087
3.79356e-07
0.00839942
9.25464e-07
0.00840494
2.27229e-06
0.0083976
5.53124e-06
0.00842484
1.37228e-05
0.0084055
3.41044e-05
0.00850539
8.83786e-05
0.00861705
0.000246695
0.00929764
0.000783116
0.0116674
0.00279397
0.0124397
0.00861776
0.0123667
0.00990861
0.0121506
0.00998559
0.0118313
0.00965446
0.011666
0.00896715
0.00854625
0.0115398
0.00840003
1.90697e-11
0.00840003
1.13563e-10
0.00840003
4.11727e-10
0.00840003
1.10825e-09
0.00840003
3.04236e-09
0.00840004
7.30584e-09
0.00840003
1.88598e-08
0.0084001
4.46783e-08
0.00839998
1.12419e-07
0.00840057
2.7005e-07
0.00839957
6.65908e-07
0.00840341
1.62136e-06
0.00839775
3.96611e-06
0.00841793
9.84178e-06
0.00839659
2.41473e-05
0.008471
6.21254e-05
0.00849094
0.000166216
0.00882128
0.000504608
0.00978876
0.00179072
0.012204
0.00619242
0.0124701
0.00963915
0.0125257
0.00992699
0.0123173
0.00986067
0.0119775
0.0093065
0.00873314
0.011788
0.00840003
1.31861e-11
0.00840003
7.98461e-11
0.00840003
2.84082e-10
0.00840003
7.80143e-10
0.00840003
2.09273e-09
0.00840003
5.12207e-09
0.00840005
1.30367e-08
0.00840004
3.09968e-08
0.00840008
7.83243e-08
0.00840021
1.84657e-07
0.00840012
4.65628e-07
0.00840155
1.10223e-06
0.00839987
2.76382e-06
0.00841053
6.6184e-06
0.00840093
1.66381e-05
0.00845113
4.11717e-05
0.00847053
0.000107925
0.00870588
0.000304539
0.00947508
0.00099313
0.0121981
0.00345499
0.0128354
0.00899786
0.0128359
0.00992434
0.0126244
0.0100697
0.0123082
0.00962035
0.00896737
0.0120729
0.00840003
8.95005e-12
0.00840003
5.59315e-11
0.00840003
1.93171e-10
0.00840003
5.46864e-10
0.00840003
1.42376e-09
0.00840003
3.57327e-09
0.00840005
8.89667e-09
0.00840002
2.15177e-08
0.00840012
5.35564e-08
0.00840004
1.2748e-07
0.00840039
3.19363e-07
0.00840047
7.54395e-07
0.00840124
1.90087e-06
0.00840406
4.49027e-06
0.00840618
1.13671e-05
0.00842524
2.75403e-05
0.0084545
7.12431e-05
0.00857225
0.000190494
0.00897465
0.000583918
0.0103917
0.00203426
0.0126953
0.00668065
0.0128884
0.00972826
0.0130124
0.00994295
0.0127345
0.00989644
0.00929032
0.0124095
0.00840003
5.7145e-12
0.00840003
3.95668e-11
0.00840003
1.26603e-10
0.00840003
3.85541e-10
0.00840003
9.37798e-10
0.00840003
2.50437e-09
0.00840004
5.87813e-09
0.00840002
1.50098e-08
0.00840011
3.55693e-08
0.0084
8.83305e-08
0.00840046
2.13913e-07
0.00839994
5.17132e-07
0.00840227
1.28318e-06
0.00840007
3.04477e-06
0.00841064
7.72943e-06
0.00840661
1.8293e-05
0.00845191
4.7625e-05
0.00848737
0.00012103
0.00875407
0.000349963
0.00961169
0.00115069
0.0124071
0.00387144
0.0131548
0.00897474
0.013192
0.00990271
0.0130349
0.0100509
0.00959402
0.0127288
0.00840003
4.05117e-12
0.00840003
2.51644e-11
0.00840003
8.86503e-11
0.00840003
2.46222e-10
0.00840003
6.5087e-10
0.00840003
1.62784e-09
0.00840003
3.98991e-09
0.00840005
9.96206e-09
0.00840003
2.35665e-08
0.00840011
5.95822e-08
0.00840009
1.38699e-07
0.00840035
3.55003e-07
0.00840075
8.16355e-07
0.0084012
2.10284e-06
0.00840544
4.85523e-06
0.0084072
1.25344e-05
0.00843121
2.97209e-05
0.00846688
7.78402e-05
0.00861406
0.000206491
0.00912455
0.000633938
0.0108335
0.00215983
0.0130584
0.00673286
0.0132195
0.00973662
0.0133516
0.00991246
0.00977322
0.0131654
0.00840003
2.64365e-12
0.00840003
1.6873e-11
0.00840003
5.74714e-11
0.00840003
1.64641e-10
0.00840003
4.24899e-10
0.00840003
1.07083e-09
0.00840003
2.64514e-09
0.00840004
6.4229e-09
0.00840004
1.5876e-08
0.00840009
3.79216e-08
0.00840003
9.41391e-08
0.00840046
2.23589e-07
0.00839989
5.56709e-07
0.00840285
1.31971e-06
0.00839917
3.2963e-06
0.00841631
7.85403e-06
0.00840047
1.97809e-05
0.00847476
4.85829e-05
0.00848779
0.000127861
0.00882458
0.000361571
0.00974694
0.0011901
0.0126065
0.00386396
0.0134838
0.00885054
0.013362
0.0100252
0.00973629
0.0133867
0.00840003
1.84255e-12
0.00840003
1.0538e-11
0.00840003
3.92117e-11
0.00840003
1.03023e-10
0.00840003
2.87114e-10
0.00840003
6.75925e-10
0.00840003
1.76836e-09
0.00840004
4.08832e-09
0.00840003
1.04558e-08
0.00840008
2.44085e-08
0.00840002
6.10902e-08
0.00840033
1.45269e-07
0.00840001
3.56047e-07
0.00840168
8.66511e-07
0.0084002
2.07199e-06
0.00840894
5.17586e-06
0.00840333
1.22477e-05
0.00844506
3.1287e-05
0.00845647
7.7041e-05
0.00864991
0.000210335
0.00917448
0.000632929
0.0109115
0.00212531
0.0133168
0.00642623
0.0136148
0.00971106
0.00985531
0.0134774
0.00840003
1.06235e-12
0.00840003
7.02064e-12
0.00840003
2.34932e-11
0.00840003
6.8507e-11
0.00840003
1.73237e-10
0.00840003
4.46258e-10
0.00840003
1.0687e-09
0.00840003
2.678e-09
0.00840004
6.34637e-09
0.00840003
1.57693e-08
0.0084001
3.74466e-08
0.00840006
9.21948e-08
0.00840037
2.20749e-07
0.0084004
5.3759e-07
0.00840137
1.30416e-06
0.00840337
3.13817e-06
0.00840631
7.73136e-06
0.00842161
1.86573e-05
0.00844682
4.70898e-05
0.0085376
0.000120273
0.00882746
0.00034028
0.00984853
0.00109691
0.0127618
0.00349011
0.0138482
0.00860306
0.00978655
0.0138629
0.00840003
6.71835e-13
0.00840003
4.43254e-12
0.00840003
1.4647e-11
0.00840003
4.30285e-11
0.00840003
1.08245e-10
0.00840003
2.76498e-10
0.00840003
6.74851e-10
0.00840003
1.63791e-09
0.00840004
4.03428e-09
0.00840004
9.50524e-09
0.00840005
2.3945e-08
0.00840009
5.50482e-08
0.00840012
1.41036e-07
0.00840052
3.20586e-07
0.0084003
8.27494e-07
0.00840351
1.87689e-06
0.00840095
4.85926e-06
0.00842154
1.11695e-05
0.00841163
2.89688e-05
0.00850599
7.02315e-05
0.00859337
0.000192506
0.00917015
0.000570818
0.0106867
0.00192165
0.0135448
0.0057131
0.00917195
0.0141038
0.00840003
4.00439e-13
0.00840003
2.55154e-12
0.00840003
8.78734e-12
0.00840003
2.49618e-11
0.00840003
6.40925e-11
0.00840003
1.62549e-10
0.00840003
3.88442e-10
0.00840003
9.69886e-10
0.00840003
2.2686e-09
0.00840004
5.66767e-09
0.00840004
1.31073e-08
0.00840007
3.28879e-08
0.00840014
7.56492e-08
0.00840017
1.89493e-07
0.00840087
4.38913e-07
0.00840055
1.08548e-06
0.00840575
2.5526e-06
0.00840287
6.24619e-06
0.00843306
1.50512e-05
0.00843502
3.71228e-05
0.00857112
9.47746e-05
0.00882923
0.000264353
0.00991817
0.000845826
0.0128732
0.00270728
0.00753221
0.0144335
0.00840003
2.32375e-13
0.00840003
1.39761e-12
0.00840003
4.9816e-12
0.00840003
1.35523e-11
0.00840003
3.64485e-11
0.00840003
8.66887e-11
0.00840003
2.227e-10
0.00840003
5.08893e-10
0.00840003
1.29223e-09
0.00840004
2.92733e-09
0.00840003
7.40559e-09
0.00840008
1.67446e-08
0.00840003
4.2063e-08
0.00840029
9.59323e-08
0.00840016
2.3675e-07
0.00840107
5.51775e-07
0.00840185
1.32315e-06
0.00840384
3.18033e-06
0.00841325
7.46139e-06
0.00842484
1.862e-05
0.00847707
4.52698e-05
0.00860858
0.000122266
0.00907302
0.000366118
0.0104594
0.0012704
0.00403572
0.0137882
0.00840003
1.22149e-13
0.00840003
7.21834e-13
0.00840003
2.63125e-12
0.00840003
7.0376e-12
0.00840003
1.90218e-11
0.00840003
4.5297e-11
0.00840003
1.13672e-10
0.00840003
2.62172e-10
0.00840003
6.4878e-10
0.00840003
1.48956e-09
0.00840003
3.62507e-09
0.00840004
8.40161e-09
0.00840007
1.99838e-08
0.00840005
4.73836e-08
0.00840036
1.09529e-07
0.00839995
2.65093e-07
0.00840244
5.99154e-07
0.00839901
1.47247e-06
0.00841457
3.30358e-06
0.00839911
8.22604e-06
0.00846146
1.91597e-05
0.00847759
5.0092e-05
0.00873121
0.000139148
0.00947652
0.000457397
0.00170966
0.0116764
0.00840003
5.83455e-14
0.00840003
3.87207e-13
0.00840003
1.31255e-12
0.00840003
3.74526e-12
0.00840003
9.42081e-12
0.00840003
2.41101e-11
0.00840003
5.37036e-11
0.00840003
1.45205e-10
0.00840003
2.84482e-10
0.00840003
8.49202e-10
0.00840004
1.50101e-09
0.00840002
4.8314e-09
0.00840008
8.03587e-09
0.00839996
2.65924e-08
0.00840038
4.46094e-08
0.00839952
1.42327e-07
0.00840223
2.50629e-07
0.00839708
7.57766e-07
0.00841168
1.42274e-06
0.00838808
3.98722e-06
0.00843835
8.33995e-06
0.00840457
2.24181e-05
0.00851714
5.79166e-05
0.00872738
0.000179165
0.000691408
0.00961528
0.00840003
3.75515e-14
0.00840003
2.03014e-13
0.00840003
7.5074e-13
0.00840003
1.92419e-12
0.00840003
5.43931e-12
0.00840003
1.13632e-11
0.00840003
3.39432e-11
0.00840003
5.97657e-11
0.00840003
2.03395e-10
0.00840003
3.00977e-10
0.00840003
1.17083e-09
0.00840004
1.53327e-09
0.0084
6.56454e-09
0.00840012
8.24295e-09
0.00839982
3.5726e-08
0.00840069
4.73799e-08
0.00839855
1.88961e-07
0.00840416
2.86409e-07
0.00839211
9.75638e-07
0.00841725
1.76533e-06
0.00837672
4.97274e-06
0.00842962
1.13926e-05
0.00839284
3.22702e-05
0.00845961
9.7729e-05
0.00038275
0.00860334
0.00840003
1.48375e-14
0.00840003
1.46517e-13
0.00840003
3.4478e-13
0.00840003
1.44377e-12
0.00840003
2.34212e-12
0.00840003
9.48718e-12
0.00840003
1.27068e-11
0.00840003
5.60704e-11
0.00840003
6.55342e-11
0.00840003
3.16256e-10
0.00840004
3.46362e-10
0.00840001
1.71614e-09
0.00840007
2.01374e-09
0.00839992
8.99741e-09
0.0084003
1.27638e-08
0.00839941
4.67984e-08
0.00840149
8.37305e-08
0.00839672
2.22264e-07
0.00840667
5.61106e-07
0.0083859
1.11476e-06
0.00841685
3.37875e-06
0.00836923
6.87153e-06
0.00840246
2.20137e-05
0.00837056
6.76388e-05
0.000289248
0.00830275
0.00840003
1.9208e-14
0.00840003
6.65274e-14
0.00840003
3.44335e-13
0.00840003
6.42417e-13
0.00840003
2.50818e-12
0.00840003
3.78591e-12
0.00840003
1.59722e-11
0.00840003
1.86975e-11
0.00840003
9.69552e-11
0.00840003
8.51686e-11
0.00840002
5.59578e-10
0.00840005
4.2084e-10
0.00839999
3.09777e-09
0.00840011
2.50714e-09
0.00839985
1.66151e-08
0.00840035
1.63577e-08
0.00839923
8.08759e-08
0.00840074
1.20943e-07
0.00839691
3.97356e-07
0.00840183
8.36974e-07
0.00838762
2.12134e-06
0.00840038
5.50103e-06
0.00836846
1.53428e-05
0.00835288
5.19885e-05
0.000234854
0.00824558
0.00840003
8.0064e-15
0.00840003
7.95184e-14
0.00840003
1.95049e-13
0.00840003
7.19197e-13
0.00840003
1.40688e-12
0.00840003
4.40025e-12
0.00840003
8.21408e-12
0.00840003
2.5864e-11
0.00840003
4.58393e-11
0.00840003
1.38427e-10
0.00840003
2.61914e-10
0.00840002
7.4713e-10
0.00840005
1.46462e-09
0.00839995
3.97961e-09
0.0084002
8.09394e-09
0.00839944
2.09907e-08
0.00840128
4.80908e-08
0.00839644
1.11934e-07
0.00840712
2.75146e-07
0.00838345
6.01258e-07
0.00841711
1.63586e-06
0.00836649
3.80301e-06
0.00839284
1.17693e-05
0.00834054
3.95126e-05
0.000187829
0.00825278
0.00840003
1.51679e-14
0.00840003
2.53864e-14
0.00840003
2.77388e-13
0.00840003
2.32622e-13
0.00840003
1.91363e-12
0.00840003
1.49257e-12
0.00840003
1.06055e-11
0.00840003
1.04052e-11
0.00840003
5.34523e-11
0.00840003
7.94243e-11
0.00840003
2.38943e-10
0.00840003
5.21728e-10
0.00840004
1.03498e-09
0.00839997
3.47258e-09
0.00840013
4.67781e-09
0.00839954
2.13555e-08
0.00840102
2.02911e-08
0.00839664
1.32899e-07
0.00840648
7.74431e-08
0.00838353
7.95222e-07
0.00841747
6.50455e-07
0.0083655
3.8068e-06
0.0083959
7.0718e-06
0.0083397
2.97412e-05
0.000144021
0.00827384
0.00840003
-5.95959e-16
0.00840003
8.72565e-14
0.00840003
5.68229e-14
0.00840003
8.35988e-13
0.00840003
3.22244e-13
0.00840003
5.0742e-12
0.00840003
9.5151e-13
0.00840003
2.80318e-11
0.00840003
5.83053e-12
0.00840003
1.38838e-10
0.00840004
6.59974e-11
0.00840001
6.62543e-10
0.00840006
5.83618e-10
0.00839994
2.49382e-09
0.00840019
5.41499e-09
0.00839958
8.22992e-09
0.00840069
4.22142e-08
0.00839797
1.09046e-08
0.00840218
3.032e-07
0.00839167
-3.12333e-08
0.0084055
1.45601e-06
0.00837523
1.10268e-06
0.00839165
6.40361e-06
0.0083454
1.9086e-05
0.00010528
0.00829466
0.00840003
6.66305e-15
0.00840003
3.61863e-14
0.00840003
1.37225e-13
0.00840003
3.24984e-13
0.00840003
9.74287e-13
0.00840003
1.8656e-12
0.00840003
5.42917e-12
0.00840003
8.6671e-12
0.00840003
2.90795e-11
0.00840003
4.08554e-11
0.00840002
1.37184e-10
0.00840004
1.83541e-10
0.0084
6.61828e-10
0.00840005
6.95993e-10
0.00839996
2.9928e-09
0.0083999
3.88001e-09
0.0084001
1.13341e-08
0.00839849
1.82533e-08
0.00840136
4.97794e-08
0.0083933
1.15683e-07
0.00840105
2.98698e-07
0.00838811
8.65141e-07
0.00838526
2.85052e-06
0.00834346
1.23804e-05
7.16852e-05
0.00831286
0.00840003
1.31076e-14
0.00840003
6.17995e-17
0.00840003
2.21698e-13
0.00840003
5.7029e-16
0.00840003
1.45528e-12
0.00840003
-9.40525e-14
0.00840003
7.48947e-12
0.00840003
-1.99483e-12
0.00840003
3.39195e-11
0.00840003
-3.74761e-12
0.00840003
1.19671e-10
0.00840004
5.51622e-11
0.00840001
2.18923e-10
0.00840003
9.35414e-10
0.00839999
-2.05739e-09
0.00839984
1.06226e-08
0.00840019
-3.10177e-08
0.00839829
8.58363e-08
0.00840198
-2.14052e-07
0.00839201
4.7833e-07
0.00840402
-6.9441e-07
0.00838559
1.39546e-06
0.00839004
6.66041e-07
0.00833497
8.37622e-06
4.60255e-05
0.00832246
0.00840003
-2.16637e-15
0.00840003
4.77131e-14
0.00840003
3.77281e-15
0.00840003
4.5549e-13
0.00840003
4.7078e-15
0.00840003
2.83029e-12
0.00840003
-1.19599e-12
0.00840003
1.58906e-11
0.00840003
-1.39675e-11
0.00840003
8.28212e-11
0.00840004
-1.02388e-10
0.00840002
3.65431e-10
0.00840005
-6.69988e-10
0.00839997
1.58333e-09
0.00840007
-2.87373e-09
0.00839987
2.54279e-09
0.00839973
-6.00467e-09
0.00839995
-1.48905e-08
0.00839791
4.07339e-09
0.0083994
-1.16543e-07
0.00839637
1.24755e-07
0.00838993
-7.04086e-08
0.00839166
1.15359e-06
0.00832944
4.44961e-06
2.88818e-05
0.00832799
0.00840003
5.22927e-15
0.00840003
1.95371e-14
0.00840003
6.69719e-14
0.00840003
1.76613e-13
0.00840003
4.73278e-13
0.00840003
5.48965e-13
0.00840003
3.99533e-12
0.00840003
-1.65812e-12
0.00840003
2.88526e-11
0.00840003
-3.65798e-11
0.00840002
1.92897e-10
0.00840004
-3.93139e-10
0.00839998
1.22741e-09
0.00840012
-3.00666e-09
0.00839977
7.27732e-09
0.00840055
-1.91124e-08
0.00839862
4.059e-08
0.00840293
-1.0758e-07
0.00839271
1.97388e-07
0.00841155
-4.57011e-07
0.0083778
6.80699e-07
0.00841704
-1.01534e-06
0.00837375
1.61198e-06
0.00832731
2.61344e-06
1.58776e-05
0.00833389
0.00840003
-9.6559e-16
0.00840003
2.43948e-14
0.00840003
2.79901e-14
0.00840003
2.1709e-13
0.00840003
1.50954e-13
0.00840003
1.51537e-12
0.00840003
-5.94863e-13
0.00840003
1.13866e-11
0.00840003
-1.23602e-11
0.00840003
7.79088e-11
0.00840003
-1.18362e-10
0.00840002
4.72029e-10
0.00840004
-8.44117e-10
0.00839996
2.68893e-09
0.00840016
-5.33611e-09
0.0083995
1.25525e-08
0.00840109
-2.90829e-08
0.00839677
6.29398e-08
0.00840659
-1.51715e-07
0.00838507
2.64385e-07
0.00841852
-4.60515e-07
0.00837314
6.18721e-07
0.00841025
-5.02842e-07
0.00831263
1.81457e-06
6.91342e-06
0.00833794
0.00840003
0.00840003
0.00840003
0.00840003
0.00840003
0.00840003
0.00840003
0.00840003
0.00840003
0.00840003
0.00840002
0.00840004
0.00839998
0.00840012
0.00839978
0.00840052
0.00839873
0.00840275
0.00839323
0.00841104
0.0083792
0.00841796
0.00837701
0.00832065
0.00833795
0.00399945
0.00434398
0.0016648
0.00233108
-0.000589107
0.00224933
-0.00163655
0.00104565
-0.00229707
0.000656938
-0.00267194
0.000370175
-0.00279723
0.000120256
-0.00292554
0.000123884
-0.00309983
0.000170385
-0.00326351
0.000159935
-0.00338933
0.000122396
-0.00349155
9.9142e-05
-0.00358488
9.0393e-05
-0.00365606
6.86517e-05
-0.00370196
4.34341e-05
-0.00375887
5.23545e-05
-0.0038116
4.77099e-05
-0.00384549
2.86831e-05
-0.00385628
2.45068e-06
-0.003845
-2.28821e-05
-0.00380048
-5.79486e-05
-0.00371792
-9.72949e-05
-0.00359738
-0.000134956
-0.00344744
-0.000163631
-0.00327741
-0.000183352
-0.00309183
-0.000197165
-0.00289577
-0.000206915
-0.00269352
-0.000211891
-0.00248691
-0.000214475
-0.00227816
-0.000216078
-0.00206554
-0.000219161
-0.0018494
-0.00022241
-0.00162931
-0.000225756
-0.00140059
-0.000233642
-0.00116977
-0.000235225
-0.000939006
-0.00023535
-0.000709841
-0.000233844
-0.000480726
-0.000233629
-0.000251405
-0.000233851
-1.675e-05
-0.000238958
0.000217143
-0.000239197
0.000441339
-0.000229476
0.000655277
-0.000219309
0.000861622
-0.000211804
0.00106074
-0.000204649
0.00125145
-0.000196415
0.00143521
-0.000189592
0.00161514
-0.000185904
0.00179174
-0.000182812
0.00196205
-0.000176497
0.00212559
-0.000169715
0.00228275
-0.000163186
0.00243365
-0.000156909
0.00257837
-0.000150633
0.00271733
-0.000144506
0.00285057
-0.000138474
0.0029783
-0.000132496
0.00310102
-0.000126628
0.00321851
-0.000120906
0.00333118
-0.000115177
0.00343932
-0.000109719
0.0035426
-0.000104243
0.00364168
-9.9027e-05
0.00373628
-9.38698e-05
0.00382694
-8.89534e-05
0.00391322
-8.41373e-05
0.00399597