/*--------------------------------*- C++ -*----------------------------------*\
  =========                 |
  \\      /  F ield         | OpenFOAM: The Open Source CFD Toolbox
   \\    /   O peration     | Website:  https://openfoam.org
    \\  /    A nd           | Version:  10
     \\/     M anipulation  |
\*---------------------------------------------------------------------------*/
FoamFile
{
    format      ascii;
    class       volScalarField;
    location    "4";
    object      rho;
}
// * * * * * * * * * * * * * * * * * * * * * * * * * * * * * * * * * * * * * //

dimensions      [1 -3 0 0 0 0 0];

internalField   nonuniform List<scalar> 
5250
(
1.40001
1.40002
1.40006
1.40016
1.40036
1.40096
1.40223
1.40571
1.41362
1.43373
1.47917
1.58368
1.80153
2.28267
4.23218
5.92633
5.75962
5.64572
5.66501
5.74445
5.83501
5.88459
5.92584
5.96327
5.9826
1.40001
1.40002
1.40005
1.40016
1.40034
1.40098
1.40208
1.40589
1.41276
1.43437
1.47627
1.58283
1.79454
2.26926
4.17888
5.93383
5.76113
5.64306
5.66279
5.74285
5.83352
5.88333
5.92538
5.96354
5.9837
1.40001
1.40002
1.40005
1.40016
1.40033
1.40095
1.40202
1.40567
1.41238
1.43316
1.47392
1.57718
1.78313
2.23979
4.06025
5.95077
5.76429
5.63462
5.65337
5.73323
5.8224
5.87226
5.91382
5.95191
5.97192
1.40001
1.40002
1.40006
1.40013
1.40035
1.40081
1.40216
1.40483
1.41298
1.4292
1.4736
1.56506
1.76897
2.19509
3.87677
5.97728
5.77088
5.62106
5.63848
5.71358
5.8031
5.84919
5.89011
5.92772
5.95007
1.40001
1.40002
1.40005
1.40013
1.40033
1.40075
1.402
1.40451
1.41207
1.42719
1.46872
1.55442
1.74662
2.14166
3.63367
6.00804
5.78237
5.60503
5.6176
5.68877
5.77473
5.82008
5.85756
5.89268
5.91495
1.40001
1.40002
1.40005
1.40013
1.40028
1.40075
1.40169
1.40442
1.41041
1.42599
1.46144
1.54405
1.7189
2.08403
3.34204
6.0231
5.79659
5.58852
5.59508
5.6548
5.7383
5.77749
5.81174
5.84501
5.86898
1.40001
1.40002
1.40005
1.4001
1.40029
1.4006
1.40172
1.40364
1.41026
1.42207
1.45843
1.52829
1.69579
2.02643
3.06478
5.97354
5.78802
5.5651
5.56571
5.61295
5.68868
5.72325
5.7469
5.77447
5.80048
1.40001
1.40002
1.40004
1.40009
1.40026
1.40055
1.40157
1.4033
1.40936
1.42007
1.45345
1.51744
1.67262
1.97802
2.87049
5.77888
5.71329
5.5276
5.52425
5.5566
5.62124
5.6475
5.66091
5.67513
5.69746
1.40001
1.40002
1.40004
1.40009
1.40021
1.40056
1.40125
1.40343
1.40746
1.42031
1.44516
1.51155
1.64609
1.93535
2.69544
5.46973
5.5851
5.50309
5.47526
5.48616
5.53641
5.54627
5.54117
5.52844
5.52977
1.40001
1.40001
1.40004
1.40007
1.40021
1.40044
1.40126
1.40271
1.40749
1.41651
1.44347
1.49687
1.62711
1.88647
2.53522
5.07993
5.51738
5.46749
5.40837
5.40851
5.43012
5.42198
5.38996
5.31831
5.26018
1.40001
1.40001
1.40003
1.40007
1.40017
1.40042
1.40106
1.40246
1.40648
1.41478
1.43794
1.4867
1.60148
1.83762
2.38273
4.61463
5.47751
5.43625
5.33856
5.32181
5.31199
5.27831
5.18367
4.95827
4.29993
1.40001
1.40001
1.40002
1.40007
1.40014
1.40039
1.40082
1.40237
1.40494
1.41403
1.43017
1.47846
1.57161
1.78675
2.23509
4.06898
5.46117
5.41191
5.28279
5.23189
5.19775
5.12592
4.96939
4.64402
3.93157
1.40001
1.40001
1.40002
1.40005
1.40014
1.40028
1.40081
1.40167
1.40483
1.41014
1.42806
1.46124
1.55005
1.7245
2.0989
3.4596
5.45235
5.39922
5.24817
5.15095
5.08786
4.98026
4.77859
4.43415
3.85724
1.40001
1.40001
1.40002
1.40004
1.4001
1.40025
1.40062
1.40142
1.40379
1.40839
1.42241
1.45006
1.52215
1.66856
1.97517
2.84548
5.36048
5.35001
5.24174
5.08622
4.98789
4.85662
4.64212
4.31532
3.86186
1.40001
1.40001
1.40002
1.40004
1.40009
1.4002
1.40051
1.40115
1.40312
1.40679
1.41847
1.44078
1.50181
1.62365
1.89045
2.53425
4.95926
5.2511
5.1858
5.03022
4.8991
4.75632
4.54641
4.2484
3.87099
1.40001
1.40001
1.40001
1.40003
1.40007
1.40017
1.40038
1.40102
1.40224
1.40619
1.41338
1.43589
1.47945
1.58874
1.80657
2.29802
4.26766
5.14122
5.10589
4.98726
4.83006
4.6729
4.47564
4.20494
3.87731
1.40001
1.40001
1.40001
1.40002
1.40006
1.40012
1.40033
1.40075
1.40189
1.40457
1.41112
1.42724
1.46455
1.54963
1.73127
2.10262
3.52346
5.09185
5.06842
4.96968
4.78128
4.60866
4.41806
4.17443
3.88199
1.40001
1.40001
1.40001
1.40002
1.40005
1.4001
1.40026
1.40054
1.40152
1.4032
1.40901
1.41921
1.45112
1.51149
1.65944
1.93632
2.72151
4.95127
5.05163
4.96789
4.77421
4.57008
4.37527
4.15172
3.889
1.40001
1.40001
1.40001
1.40002
1.40003
1.40008
1.40018
1.40044
1.4011
1.40254
1.40669
1.41497
1.4389
1.4871
1.60379
1.83581
2.37904
4.44562
4.96203
4.91117
4.76272
4.54668
4.34554
4.13373
3.89635
1.40001
1.40001
1.40001
1.40001
1.40003
1.40006
1.40015
1.40031
1.40087
1.40182
1.4052
1.41095
1.42999
1.46535
1.55881
1.74104
2.12881
3.64123
4.86947
4.84757
4.75264
4.53919
4.33041
4.12337
3.90338
1.40001
1.40001
1.40001
1.40001
1.40002
1.40005
1.4001
1.40025
1.40057
1.40146
1.40344
1.40847
1.42048
1.44902
1.51389
1.65579
1.92723
2.71569
4.70116
4.82795
4.75437
4.56791
4.33321
4.1257
3.91544
1.40001
1.40001
1.40001
1.40001
1.40002
1.40003
1.40008
1.40018
1.40041
1.40107
1.40239
1.40646
1.41404
1.43718
1.48195
1.5937
1.80984
2.30709
4.16826
4.75213
4.71198
4.58509
4.35332
4.13668
3.93531
1.40001
1.40001
1.40001
1.40001
1.40001
1.40002
1.40006
1.40012
1.40032
1.40071
1.40182
1.40433
1.41055
1.42566
1.46073
1.54041
1.71041
2.04389
3.30278
4.63081
4.63841
4.57247
4.39325
4.16541
3.95885
1.40001
1.40001
1.40001
1.40001
1.40001
1.40002
1.40004
1.40009
1.4002
1.40054
1.40115
1.40319
1.40672
1.41858
1.43997
1.50024
1.61748
1.85446
2.44965
4.31941
4.61983
4.56841
4.42831
4.20497
3.98909
1.40001
1.40001
1.40001
1.40001
1.40001
1.40001
1.40003
1.40006
1.40015
1.40035
1.40083
1.40209
1.40481
1.41244
1.42807
1.46997
1.55533
1.74278
2.11373
3.56514
4.5353
4.51936
4.44936
4.26685
4.03331
1.40001
1.40001
1.40001
1.40001
1.40001
1.40001
1.40002
1.40004
1.40011
1.40022
1.4006
1.40129
1.40342
1.40767
1.41967
1.44472
1.50763
1.63501
1.87712
2.55921
4.30293
4.51285
4.46089
4.32977
4.09576
1.40001
1.40001
1.40001
1.40001
1.40001
1.40001
1.40002
1.40003
1.40007
1.40015
1.4004
1.40084
1.40233
1.40499
1.41343
1.42947
1.47444
1.56227
1.75634
2.14884
3.66061
4.43669
4.42389
4.35582
4.18545
1.40001
1.40001
1.40001
1.40001
1.40001
1.40001
1.40001
1.40002
1.40004
1.40011
1.40024
1.40059
1.40144
1.40334
1.40856
1.41933
1.4486
1.50851
1.64569
1.88844
2.65524
4.20576
4.40648
4.36437
4.25064
1.40001
1.40001
1.40001
1.40001
1.40001
1.40001
1.40001
1.40002
1.40003
1.40007
1.40017
1.40036
1.40098
1.40204
1.40575
1.41196
1.43264
1.46957
1.5686
1.74495
2.14522
3.59519
4.32449
4.32395
4.27067
1.40001
1.40001
1.40001
1.40001
1.40001
1.40001
1.40001
1.40001
1.40002
1.40004
1.4001
1.40024
1.40057
1.40142
1.40326
1.40837
1.41876
1.44717
1.50497
1.63692
1.86617
2.58124
4.07198
4.30443
4.27362
1.40001
1.40001
1.40001
1.40001
1.40001
1.40001
1.40001
1.40001
1.40002
1.40003
1.40007
1.40015
1.40038
1.40082
1.40223
1.40471
1.41293
1.42738
1.47103
1.5513
1.73156
2.08717
3.42573
4.20927
4.2414
1.40001
1.40001
1.40001
1.40001
1.40001
1.40001
1.40001
1.40001
1.40001
1.40002
1.40004
1.4001
1.40022
1.40052
1.40132
1.40291
1.40773
1.41656
1.44329
1.49325
1.61489
1.81398
2.36762
3.9238
4.22062
1.40001
1.40001
1.40001
1.40001
1.40001
1.40001
1.40001
1.40001
1.40001
1.40002
1.40003
1.40006
1.40013
1.40033
1.40078
1.40184
1.40461
1.41045
1.42654
1.45934
1.53997
1.69421
2.00812
3.17111
4.07753
1.40001
1.40001
1.40001
1.40001
1.40001
1.40001
1.40001
1.40001
1.40001
1.40001
1.40002
1.40004
1.40008
1.40021
1.40043
1.40119
1.40248
1.40683
1.4143
1.43822
1.48113
1.59105
1.77071
2.24074
3.69352
1.40001
1.40001
1.40001
1.40001
1.40001
1.40001
1.40001
1.40001
1.40001
1.40001
1.40001
1.40002
1.40005
1.40011
1.40029
1.40066
1.40157
1.40389
1.40888
1.42242
1.45014
1.51924
1.6521
1.90818
2.79003
1.40001
1.40001
1.40001
1.40001
1.40001
1.40001
1.40001
1.40001
1.40001
1.40001
1.40001
1.40002
1.40003
1.40007
1.40017
1.40038
1.40097
1.40211
1.40563
1.41196
1.43157
1.46804
1.56036
1.72025
2.09184
1.40001
1.40001
1.40001
1.40001
1.40001
1.40001
1.40001
1.40001
1.40001
1.40001
1.40001
1.40001
1.40002
1.40005
1.40009
1.40023
1.40052
1.40128
1.40302
1.4071
1.41737
1.43962
1.49333
1.60044
1.79076
1.40001
1.40001
1.40001
1.40001
1.40001
1.40001
1.40001
1.40001
1.40001
1.40001
1.40001
1.40001
1.40001
1.40003
1.40006
1.40013
1.40031
1.40073
1.4017
1.40425
1.40952
1.42419
1.45334
1.52672
1.66141
1.40001
1.40001
1.40001
1.40001
1.40001
1.40001
1.40001
1.40001
1.40001
1.40001
1.40001
1.40001
1.40001
1.40002
1.40003
1.40008
1.40017
1.40042
1.40096
1.40231
1.40558
1.41293
1.43135
1.47133
1.5605
1.40001
1.40001
1.40001
1.40001
1.40001
1.40001
1.40001
1.40001
1.40001
1.40001
1.40001
1.40001
1.40001
1.40001
1.40002
1.40004
1.4001
1.40022
1.40056
1.40123
1.40311
1.40706
1.41728
1.43949
1.49238
1.40001
1.40001
1.40001
1.40001
1.40001
1.40001
1.40001
1.40001
1.40001
1.40001
1.40001
1.40001
1.40001
1.40001
1.40001
1.40003
1.40006
1.40012
1.40032
1.40067
1.40177
1.40382
1.40984
1.42181
1.45366
1.40001
1.40001
1.40001
1.40001
1.40001
1.40001
1.40001
1.40001
1.40001
1.40001
1.40001
1.40001
1.40001
1.40001
1.40001
1.40002
1.40003
1.40007
1.40017
1.40038
1.40095
1.40208
1.40547
1.41155
1.43028
1.40001
1.40001
1.40001
1.40001
1.40001
1.40001
1.40001
1.40001
1.40001
1.40001
1.40001
1.40001
1.40001
1.40001
1.40001
1.40001
1.40002
1.40004
1.40009
1.40022
1.40047
1.40125
1.40261
1.40701
1.41461
1.40001
1.40001
1.40001
1.40001
1.40001
1.40001
1.40001
1.40001
1.40001
1.40001
1.40001
1.40001
1.40001
1.40001
1.40001
1.40001
1.40001
1.40002
1.40006
1.40012
1.40029
1.40064
1.40159
1.40371
1.40867
1.40001
1.40001
1.40001
1.40001
1.40001
1.40001
1.40001
1.40001
1.40001
1.40001
1.40001
1.40001
1.40001
1.40001
1.40001
1.40001
1.40001
1.40002
1.40003
1.40008
1.40017
1.40045
1.40093
1.40253
1.40531
1.40001
1.40001
1.40001
1.40001
1.40001
1.40001
1.40001
1.40001
1.40001
1.40001
1.40001
1.40001
1.40001
1.40001
1.40001
1.40001
1.40001
1.40001
1.40003
1.40006
1.40015
1.4003
1.40082
1.40174
1.40473
1.40001
1.40001
1.40001
1.40001
1.40001
1.40001
1.40001
1.40001
1.40001
1.40001
1.40001
1.40001
1.40001
1.40001
1.40001
1.40001
1.40001
1.40001
1.40002
1.40005
1.40012
1.40028
1.40071
1.40159
1.40429
1.40001
1.40001
1.40001
1.40001
1.40001
1.40001
1.40001
1.40001
1.40001
1.40001
1.40001
1.40001
1.40001
1.40001
1.40001
1.40001
1.40001
1.40001
1.40002
1.40005
1.40011
1.40028
1.40063
1.40163
1.40389
1.40001
1.40001
1.40001
1.40001
1.40001
1.40001
1.40001
1.40001
1.40001
1.40001
1.40001
1.40001
1.40001
1.40001
1.40001
1.40001
1.40001
1.40001
1.40002
1.40005
1.40011
1.40027
1.40062
1.40166
1.40368
1.40001
1.40001
1.40001
1.40001
1.40001
1.40001
1.40001
1.40001
1.40001
1.40001
1.40001
1.40001
1.40001
1.40001
1.40001
1.40001
1.40001
1.40001
1.40002
1.40005
1.4001
1.40028
1.40059
1.40168
1.40364
1.89666
1.03705
0.720384
0.64396
0.644144
0.677145
0.767115
0.8419
0.868179
0.868497
0.86889
0.871583
0.880714
0.903857
0.955928
1.06967
1.32909
1.58636
1.65076
1.67158
1.64784
1.61194
1.59081
1.58744
1.57725
1.56744
1.5578
1.54756
1.54683
1.54775
1.55252
1.56844
1.59994
1.64865
1.70677
1.76804
1.82722
1.88218
1.93384
1.97881
2.0181
2.05158
2.08
2.10489
2.12681
2.14077
2.15354
2.15988
2.16621
2.16743
2.16924
2.1636
2.16056
2.15165
2.14572
2.13441
2.12595
2.11291
2.1021
2.08749
2.07474
2.05882
2.04473
2.02775
2.01252
1.99469
1.97863
1.96014
1.94332
1.92431
1.90685
1.88751
1.86956
1.84996
1.83175
1.81193
1.79369
1.77374
1.75565
1.73569
1.71782
1.69802
1.68044
1.66087
1.64372
1.62438
1.60767
1.58868
1.57231
1.55379
1.53775
1.51972
1.50409
1.48663
1.47174
1.45513
1.44143
1.42651
1.4154
1.40585
2.34336
1.53663
1.17626
1.02593
0.963564
0.918626
0.910729
0.915193
0.926397
0.952946
0.979898
0.991588
1.00051
1.01963
1.06085
1.14287
1.34854
1.63119
1.70271
1.69732
1.66576
1.61609
1.57804
1.55571
1.53634
1.5178
1.49895
1.48436
1.48376
1.48442
1.49013
1.50637
1.53662
1.58607
1.65024
1.71825
1.79025
1.85432
1.92065
1.9781
2.03587
2.07827
2.12201
2.15502
2.18806
2.20898
2.22994
2.24257
2.255
2.26197
2.26932
2.26822
2.26793
2.26386
2.26045
2.2529
2.24574
2.2349
2.22496
2.21177
2.19977
2.18487
2.17129
2.15502
2.1402
2.12279
2.10696
2.08864
2.07198
2.05295
2.03566
2.01604
1.99832
1.97821
1.96026
1.93978
1.92174
1.90107
1.88305
1.86244
1.84451
1.8241
1.80641
1.78625
1.7689
1.74906
1.73202
1.71262
1.69585
1.67694
1.66053
1.64223
1.62629
1.60856
1.59315
1.57619
1.56183
1.54651
1.53453
1.52464
2.86462
2.13374
1.66168
1.36008
1.16502
1.04439
0.967096
0.95973
0.963715
0.975342
1.00301
1.03315
1.05757
1.07664
1.11425
1.17675
1.34686
1.67957
1.79122
1.77139
1.74143
1.70068
1.64649
1.60477
1.56441
1.5286
1.49803
1.47983
1.46981
1.46487
1.46641
1.47865
1.50606
1.56408
1.63869
1.71973
1.8058
1.88549
1.96086
2.02674
2.08455
2.1334
2.17693
2.21263
2.24455
2.26834
2.28891
2.30283
2.31492
2.32298
2.32999
2.3307
2.32908
2.32473
2.32025
2.31257
2.30481
2.29416
2.28377
2.27098
2.25849
2.24403
2.22992
2.21405
2.19867
2.18161
2.16516
2.14711
2.12974
2.1109
2.09279
2.07335
2.05474
2.03481
2.0159
1.99563
1.97654
1.95613
1.93694
1.91658
1.89746
1.87727
1.85839
1.83846
1.81989
1.80036
1.78205
1.76302
1.74511
1.72662
1.70908
1.691
1.67392
1.65639
1.63993
1.62323
1.60786
1.59282
1.57981
1.57009
3.1633
2.52045
2.02667
1.67382
1.43346
1.26918
1.16559
1.1007
1.06051
1.05298
1.05548
1.06274
1.07995
1.10922
1.14107
1.19951
1.32303
1.57519
1.85927
1.9005
1.864
1.79998
1.74178
1.7057
1.65967
1.61208
1.57444
1.54163
1.51698
1.5023
1.49906
1.51468
1.5538
1.61499
1.69461
1.77936
1.86605
1.94644
2.02334
2.08872
2.1483
2.19791
2.24358
2.28077
2.31451
2.33997
2.3621
2.37757
2.38988
2.39882
2.40736
2.41032
2.40883
2.40455
2.4003
2.39348
2.3861
2.37609
2.36572
2.35316
2.34047
2.32601
2.31159
2.2956
2.27978
2.26246
2.24545
2.22701
2.20907
2.18979
2.17115
2.15116
2.13199
2.11137
2.09185
2.07079
2.05109
2.0299
2.01013
1.98902
1.96928
1.94833
1.92872
1.90793
1.88866
1.86842
1.8496
1.82982
1.81131
1.79197
1.7738
1.75485
1.73708
1.71859
1.70142
1.6836
1.66749
1.65113
1.63727
1.62596
3.33951
2.79497
2.33041
1.96739
1.69568
1.49477
1.34651
1.23968
1.16381
1.1152
1.09122
1.09194
1.0963
1.10772
1.13153
1.17788
1.25686
1.43996
1.82854
1.97143
1.94821
1.90976
1.8745
1.81562
1.75338
1.71585
1.68096
1.64452
1.6214
1.60995
1.60662
1.63175
1.66994
1.72544
1.79211
1.8668
1.93919
2.01283
2.08424
2.15026
2.20946
2.26082
2.3056
2.34289
2.37527
2.40071
2.42212
2.43741
2.44911
2.45711
2.46445
2.46745
2.46577
2.45994
2.45387
2.44589
2.43724
2.42615
2.41449
2.40064
2.38678
2.37124
2.35586
2.33926
2.32259
2.30487
2.28695
2.26799
2.24914
2.22923
2.20996
2.18955
2.17003
2.14932
2.12939
2.10838
2.08804
2.06685
2.04648
2.02538
2.00537
1.98453
1.96495
1.94454
1.92509
1.90483
1.88538
1.86552
1.84627
1.82692
1.80817
1.78932
1.77113
1.75271
1.73504
1.71722
1.70037
1.68393
1.66915
1.65745
3.45282
2.99677
2.57841
2.22545
1.94126
1.71887
1.54493
1.41302
1.3121
1.23967
1.18815
1.15182
1.143
1.14504
1.15409
1.17834
1.23043
1.34331
1.57141
1.94378
2.03674
1.99855
1.96094
1.92447
1.87496
1.82484
1.78685
1.76702
1.74515
1.73942
1.75618
1.78978
1.82277
1.8628
1.91035
1.96334
2.01886
2.0705
2.13699
2.20353
2.2665
2.32001
2.36643
2.40362
2.4358
2.46126
2.48323
2.49903
2.51133
2.51882
2.52574
2.52896
2.5293
2.52309
2.51619
2.50719
2.49824
2.48705
2.47543
2.46165
2.44737
2.43132
2.41498
2.39736
2.37988
2.36147
2.34321
2.324
2.30458
2.28422
2.2637
2.24253
2.22172
2.2005
2.17991
2.1588
2.13818
2.11674
2.0957
2.07381
2.05263
2.03095
2.01021
1.98921
1.96918
1.94875
1.92925
1.90898
1.88967
1.86941
1.85025
1.83037
1.81165
1.79253
1.77461
1.7563
1.73945
1.72224
1.70728
1.69416
3.52824
3.14503
2.77159
2.44177
2.15891
1.92648
1.73731
1.58458
1.46332
1.36658
1.29197
1.23648
1.19667
1.1782
1.17961
1.18853
1.21559
1.27592
1.41836
1.72382
2.00295
2.07248
2.05532
2.01244
1.96945
1.93341
1.90712
1.88552
1.87432
1.89843
1.94459
1.9829
2.00685
2.03032
2.05599
2.0789
2.10399
2.13811
2.18023
2.23876
2.30298
2.3623
2.41129
2.45048
2.48244
2.50777
2.52822
2.54277
2.5537
2.55917
2.56457
2.56681
2.56766
2.56161
2.55346
2.54304
2.53283
2.52074
2.50848
2.49376
2.47877
2.4616
2.4445
2.42594
2.40765
2.38841
2.36948
2.34981
2.33026
2.30996
2.2896
2.26851
2.24746
2.22578
2.20448
2.18267
2.16144
2.13987
2.11889
2.09765
2.07684
2.05558
2.03495
2.01368
1.99342
1.97257
1.95279
1.9327
1.91329
1.89382
1.87459
1.85536
1.83639
1.81726
1.79886
1.78025
1.76285
1.74568
1.73013
1.71733
3.58369
3.25303
2.92496
2.61693
2.34767
2.11222
1.91673
1.75135
1.61564
1.50459
1.41282
1.34162
1.28432
1.24387
1.22072
1.2219
1.2312
1.26114
1.32312
1.4867
1.85579
2.05368
2.10113
2.0948
2.06146
2.02912
2.01036
2.00812
2.0199
2.09178
2.16767
2.19917
2.21404
2.22363
2.21709
2.19343
2.18833
2.2069
2.2303
2.26357
2.31435
2.37442
2.42859
2.4725
2.5065
2.53275
2.55306
2.56776
2.57941
2.58523
2.58962
2.5915
2.59275
2.58938
2.58223
2.57187
2.56165
2.54935
2.53718
2.52257
2.50783
2.4908
2.47374
2.45531
2.43711
2.41826
2.3996
2.38024
2.36101
2.34066
2.32054
2.29915
2.27808
2.25613
2.23463
2.2127
2.19154
2.17008
2.1495
2.12813
2.10776
2.08627
2.06574
2.04432
2.02367
2.00266
1.98223
1.96179
1.94196
1.92198
1.90287
1.88315
1.86455
1.84509
1.82681
1.80789
1.79013
1.77243
1.7563
1.74257
3.62604
3.33713
3.043
2.76384
2.50502
2.2782
2.07802
1.90855
1.76228
1.64028
1.53735
1.45075
1.3814
1.32343
1.28061
1.25603
1.25732
1.2675
1.30039
1.36407
1.54553
1.95182
2.09946
2.13098
2.13297
2.12111
2.10787
2.12825
2.19633
2.33064
2.42033
2.43042
2.43634
2.42626
2.37201
2.31371
2.27843
2.27013
2.28315
2.30096
2.32596
2.36856
2.41977
2.46862
2.50845
2.53956
2.56344
2.58064
2.59339
2.6003
2.60411
2.60564
2.60702
2.60554
2.60043
2.59098
2.58079
2.56906
2.55697
2.54307
2.5286
2.51193
2.49516
2.47636
2.4583
2.43866
2.42011
2.40014
2.38097
2.36039
2.34035
2.31902
2.29826
2.27639
2.25532
2.23357
2.21274
2.19136
2.17073
2.14967
2.12905
2.10808
2.08742
2.06632
2.04577
2.0246
2.00439
1.98343
1.96375
1.94338
1.92422
1.90463
1.88591
1.86699
1.84864
1.83022
1.81245
1.79482
1.77859
1.76436
3.66155
3.40174
3.13908
2.88154
2.6418
2.42034
2.22563
2.05171
1.90206
1.77178
1.65987
1.5652
1.48282
1.41616
1.35917
1.31536
1.29216
1.29369
1.30513
1.34095
1.41249
1.61314
2.01343
2.14261
2.1631
2.18517
2.21042
2.26692
2.42833
2.60017
2.67228
2.67359
2.66235
2.6139
2.51517
2.43206
2.3739
2.34184
2.3312
2.33919
2.35049
2.36843
2.40186
2.44442
2.48997
2.52626
2.55652
2.57913
2.5951
2.60526
2.61093
2.61248
2.61397
2.61341
2.61191
2.60462
2.59617
2.58511
2.57381
2.56032
2.54648
2.53054
2.51437
2.49638
2.47875
2.45971
2.4416
2.42213
2.40357
2.38346
2.36396
2.34294
2.32237
2.3008
2.27979
2.25816
2.23703
2.21549
2.19452
2.17313
2.15253
2.13128
2.11105
2.08988
2.06987
2.04885
2.02887
2.00814
1.98821
1.96791
1.94825
1.92848
1.90942
1.89018
1.87189
1.85318
1.83574
1.81793
1.80189
1.78743
3.69315
3.45796
3.21745
2.98143
2.75609
2.54669
2.35514
2.18436
2.0313
1.897
1.77975
1.67614
1.58843
1.50985
1.44586
1.38971
1.34604
1.32519
1.32708
1.34007
1.3795
1.4668
1.68703
2.06581
2.18807
2.23409
2.29856
2.43745
2.70859
2.88965
2.91207
2.9071
2.87432
2.76775
2.64524
2.547
2.47441
2.4223
2.39004
2.37422
2.37659
2.38245
2.3948
2.41953
2.45751
2.50008
2.53531
2.56753
2.5903
2.60598
2.61606
2.61939
2.62208
2.62307
2.62413
2.6209
2.61464
2.6051
2.59474
2.5819
2.5688
2.55372
2.53863
2.52168
2.50473
2.48614
2.46783
2.44826
2.42918
2.40891
2.38911
2.368
2.34768
2.32629
2.3058
2.28416
2.26344
2.24151
2.22057
2.19859
2.17767
2.15596
2.13525
2.11397
2.09351
2.07263
2.05236
2.03174
2.01167
1.99121
1.97147
1.95124
1.93207
1.91227
1.89383
1.87475
1.85715
1.8393
1.8231
1.80874
3.72427
3.5076
3.28496
3.06677
2.8549
2.65681
2.47162
2.30409
2.15148
2.01588
1.89336
1.78727
1.69056
1.60863
1.53395
1.47219
1.41761
1.37439
1.35774
1.36014
1.37545
1.41982
1.52448
1.76403
2.12445
2.26782
2.39642
2.68084
3.02506
3.15965
3.15448
3.12581
3.0388
2.89184
2.76176
2.65584
2.57244
2.50553
2.45644
2.42101
2.40115
2.39829
2.40302
2.41435
2.43264
2.46889
2.50726
2.546
2.57777
2.60188
2.6191
2.62886
2.6338
2.63672
2.6396
2.63962
2.63581
2.62775
2.61851
2.60638
2.59386
2.57918
2.56467
2.54831
2.53199
2.51378
2.49557
2.47584
2.45644
2.43592
2.41579
2.39485
2.37441
2.35309
2.33233
2.31072
2.28971
2.26783
2.24658
2.22448
2.20312
2.18103
2.15981
2.13801
2.11712
2.0957
2.07518
2.05408
2.0339
2.01302
1.99322
1.9726
1.95329
1.93312
1.91445
1.89505
1.87722
1.85913
1.84279
1.82828
3.75728
3.55323
3.34759
3.1424
2.94406
2.75353
2.57716
2.41145
2.26232
2.12443
2.00216
1.8901
1.79207
1.70246
1.62473
1.55422
1.49437
1.44274
1.39875
1.39123
1.39448
1.41313
1.46583
1.58951
1.87038
2.23249
2.4999
3.01126
3.33714
3.38078
3.36254
3.30113
3.148
2.99353
2.86284
2.75141
2.6609
2.58592
2.52609
2.47779
2.44461
2.42534
2.42167
2.42813
2.43866
2.45533
2.4831
2.52005
2.55774
2.59111
2.61725
2.63565
2.64799
2.65259
2.6568
2.65814
2.65764
2.6509
2.64225
2.63066
2.61854
2.60408
2.58959
2.57324
2.55707
2.53924
2.52142
2.50191
2.48238
2.46138
2.44097
2.41959
2.39896
2.3773
2.35628
2.33421
2.31278
2.29044
2.26883
2.2464
2.22472
2.20232
2.18068
2.15848
2.13704
2.11521
2.09414
2.07273
2.05212
2.03107
2.01098
1.99028
1.97079
1.95058
1.93182
1.91242
1.89464
1.8767
1.86051
1.84652
3.79243
3.59898
3.40575
3.21275
3.0257
2.84338
2.67286
2.51207
2.36412
2.22717
2.10344
1.98942
1.88798
1.79497
1.71281
1.63728
1.57277
1.51256
1.46535
1.42595
1.42557
1.4333
1.46232
1.53356
1.69625
2.06398
2.55157
3.3649
3.60465
3.58943
3.53235
3.39875
3.22945
3.07861
2.95062
2.84317
2.7516
2.67427
2.60679
2.55254
2.50892
2.47938
2.46269
2.46127
2.46235
2.4744
2.48562
2.50392
2.53723
2.57106
2.60491
2.63214
2.65148
2.66296
2.66797
2.66999
2.67076
2.66746
2.65952
2.6481
2.63618
2.62204
2.6077
2.59125
2.57468
2.55643
2.53827
2.51874
2.49918
2.47849
2.45802
2.43654
2.41554
2.39363
2.37236
2.35018
2.32868
2.30628
2.28462
2.26209
2.24036
2.2178
2.19613
2.17364
2.15216
2.12989
2.10883
2.08699
2.06654
2.04526
2.02553
2.00491
1.98594
1.96608
1.94796
1.92916
1.91212
1.89513
1.87968
1.86714
3.83344
3.647
3.46316
3.2797
3.10076
2.92804
2.76048
2.60606
2.45819
2.32445
2.19803
2.0851
1.97883
1.88568
1.79734
1.72116
1.64948
1.58688
1.53417
1.48133
1.47109
1.47317
1.49017
1.54238
1.66662
1.91529
2.50502
3.6155
3.76565
3.72733
3.6233
3.44461
3.28394
3.15033
3.03637
2.9398
2.85454
2.77802
2.71012
2.65025
2.60025
2.56196
2.53175
2.51323
2.50466
2.50051
2.50269
2.51058
2.52395
2.54604
2.5775
2.60624
2.63276
2.651
2.66327
2.66732
2.66944
2.66883
2.66631
2.65672
2.64548
2.63172
2.61767
2.60178
2.58564
2.56788
2.5499
2.53045
2.51109
2.49066
2.4705
2.4493
2.42849
2.40661
2.38534
2.36305
2.3416
2.31923
2.29778
2.27548
2.25409
2.23187
2.21058
2.18844
2.16737
2.1454
2.12472
2.103
2.08284
2.06151
2.04198
2.02124
2.00252
1.98273
1.96506
1.94673
1.93055
1.91458
1.89965
1.88866
3.8887
3.69982
3.52028
3.34537
3.17013
3.00625
2.84374
2.69249
2.548
2.41498
2.28925
2.1756
2.06767
1.97273
1.88124
1.80274
1.72698
1.66175
1.60492
1.54861
1.53233
1.534
1.54849
1.59477
1.70899
1.92756
2.48042
3.69121
3.8997
3.86937
3.76412
3.58828
3.43769
3.30907
3.19357
3.08924
2.99781
2.91759
2.84477
2.77661
2.71579
2.66142
2.61709
2.57958
2.55106
2.53328
2.52348
2.51613
2.52225
2.52946
2.54163
2.56515
2.59145
2.61692
2.6369
2.65001
2.65714
2.65849
2.65935
2.6567
2.64924
2.6371
2.62352
2.60797
2.59243
2.57559
2.55865
2.54035
2.52194
2.50216
2.48245
2.46153
2.44097
2.41931
2.39819
2.37595
2.3544
2.33175
2.30999
2.28724
2.26554
2.24295
2.22149
2.19913
2.17805
2.15594
2.13538
2.11364
2.09375
2.07263
2.05357
2.0334
2.01544
1.9966
1.98018
1.96332
1.94852
1.93375
1.92017
1.91299
3.95509
3.76103
3.57851
3.40924
3.24067
3.07704
2.92264
2.77352
2.63129
2.50148
2.37419
2.26295
2.15233
2.05725
1.96353
1.88237
1.80539
1.7361
1.67964
1.62101
1.61679
1.61937
1.63842
1.69273
1.82854
2.09136
2.55778
3.45991
3.95823
3.96128
3.93013
3.83372
3.64864
3.47973
3.34279
3.23022
3.13414
3.04549
2.96347
2.88613
2.81558
2.75236
2.69624
2.64759
2.60718
2.5746
2.55226
2.53643
2.5253
2.52133
2.52618
2.5345
2.55014
2.57537
2.599
2.62064
2.63465
2.64403
2.64513
2.64503
2.64318
2.63679
2.62519
2.61038
2.59507
2.57817
2.56129
2.54312
2.52501
2.50559
2.4863
2.46565
2.44535
2.42373
2.40278
2.38063
2.35939
2.33707
2.31579
2.29351
2.27237
2.2502
2.22932
2.20729
2.18679
2.16504
2.14503
2.12379
2.10447
2.08404
2.06576
2.04653
2.02979
2.01239
1.99779
1.98191
1.96901
1.9564
1.94582
1.9444
4.02488
3.82151
3.6417
3.46994
3.30916
3.14951
2.99557
2.85272
2.71065
2.58305
2.45744
2.34398
2.23607
2.13669
2.04516
1.95943
1.88345
1.81312
1.75387
1.71712
1.7167
1.72782
1.76704
1.85694
2.06251
2.4181
2.69288
3.07095
3.64058
3.92748
3.92626
3.89555
3.8135
3.64679
3.49242
3.3643
3.25565
3.15898
3.06914
2.98658
2.9105
2.8411
2.77707
2.71952
2.66845
2.62516
2.58879
2.5608
2.54169
2.52577
2.51432
2.51776
2.52216
2.53096
2.54831
2.57068
2.59211
2.60971
2.62065
2.62474
2.62564
2.62422
2.62009
2.6082
2.59444
2.57816
2.56197
2.54427
2.52684
2.50796
2.48933
2.46919
2.4495
2.42837
2.40801
2.38629
2.36558
2.34352
2.32266
2.3005
2.27969
2.25765
2.23706
2.21529
2.19506
2.17372
2.15411
2.13344
2.11484
2.09526
2.07829
2.0604
2.04595
2.02991
2.01707
2.00377
1.99383
1.98565
1.98253
1.98399
4.12656
3.89938
3.70741
3.5358
3.37448
3.22078
3.06999
2.92682
2.7901
2.66066
2.53842
2.4238
2.31586
2.21617
2.12304
2.03823
1.96009
1.89458
1.8397
1.83647
1.84193
1.87146
1.94815
2.12816
2.44463
2.65896
2.78416
2.93994
3.20752
3.60844
3.84795
3.87857
3.86415
3.80544
3.65848
3.51323
3.38729
3.27566
3.17523
3.08582
3.00385
2.92835
2.85759
2.79346
2.73499
2.68327
2.63694
2.59791
2.56529
2.54293
2.52212
2.50798
2.50394
2.50752
2.5135
2.52493
2.54523
2.56517
2.58344
2.59592
2.60339
2.60389
2.60337
2.59953
2.59115
2.57649
2.56053
2.54283
2.52565
2.50721
2.48926
2.46981
2.45091
2.43034
2.41065
2.38925
2.36907
2.34728
2.3269
2.3051
2.28476
2.26321
2.24316
2.222
2.20256
2.18189
2.1635
2.14362
2.12684
2.10852
2.09397
2.07836
2.06498
2.05215
2.04119
2.0334
2.02785
2.02741
2.02726
2.03738
4.18557
3.97993
3.7802
3.60176
3.44289
3.28878
3.14295
3.00203
2.86538
2.73863
2.61605
2.50218
2.39478
2.29372
2.20144
2.11606
2.04325
1.97767
1.96794
1.96996
1.99364
2.06921
2.23468
2.55111
2.75154
2.83348
2.86907
2.93345
3.02943
3.21329
3.5086
3.7538
3.83589
3.83059
3.78413
3.67373
3.53845
3.40618
3.28947
3.18812
3.09784
3.01484
2.93898
2.86934
2.80569
2.74635
2.69273
2.64415
2.60259
2.56679
2.54021
2.51654
2.49897
2.4874
2.49011
2.49329
2.50005
2.51316
2.53308
2.55139
2.56689
2.57629
2.57855
2.57829
2.5763
2.56988
2.55646
2.54005
2.52334
2.50503
2.48746
2.46834
2.45029
2.43038
2.4116
2.39091
2.37139
2.35028
2.33039
2.30922
2.28949
2.2684
2.24934
2.22851
2.21046
2.19047
2.1736
2.15554
2.14036
2.12565
2.11205
2.09958
2.08856
2.08074
2.07456
2.07415
2.07492
2.07889
2.08437
2.11141
4.19994
4.08405
3.86799
3.67821
3.51154
3.36015
3.21291
3.07567
2.9412
2.81352
2.69312
2.57879
2.47196
2.37206
2.27963
2.19964
2.12874
2.10648
2.10692
2.12815
2.19815
2.34866
2.68859
2.89396
2.95584
2.96156
2.95903
2.96236
2.98494
3.04099
3.17538
3.42691
3.68147
3.79782
3.79709
3.76352
3.68053
3.55224
3.42035
3.304
3.19989
3.10641
3.0233
2.94739
2.87754
2.81212
2.75209
2.69734
2.64815
2.60425
2.56627
2.53547
2.5093
2.48732
2.47241
2.4684
2.4705
2.47487
2.48347
2.50013
2.51836
2.53371
2.5456
2.5506
2.55064
2.54909
2.54474
2.53362
2.51922
2.50135
2.48398
2.4652
2.44749
2.42841
2.41025
2.3904
2.37178
2.35117
2.3325
2.31157
2.29319
2.27265
2.25472
2.23532
2.2182
2.20078
2.18532
2.17109
2.15816
2.14604
2.13539
2.12764
2.1217
2.12133
2.12226
2.12629
2.13345
2.15085
2.1633
2.20307
4.19924
4.12983
3.96695
3.76346
3.58819
3.4314
3.2869
3.14727
3.01631
2.88935
2.76901
2.65509
2.5495
2.45063
2.36403
2.28758
2.25672
2.25549
2.27502
2.34346
2.49832
2.85075
3.06372
3.10912
3.11035
3.09633
3.02859
2.98092
2.98467
3.00459
3.0536
3.16204
3.36852
3.61068
3.74822
3.74971
3.73113
3.6787
3.56272
3.4397
3.31875
3.21049
3.11579
3.03158
2.95347
2.88195
2.8158
2.75547
2.69939
2.64849
2.6021
2.56183
2.52793
2.49925
2.47407
2.45608
2.44534
2.44669
2.44876
2.45385
2.46445
2.48127
2.49748
2.51088
2.51951
2.52039
2.51968
2.51672
2.50986
2.49478
2.47869
2.46026
2.44308
2.42392
2.4069
2.38744
2.37027
2.3506
2.33307
2.31364
2.29609
2.27758
2.26066
2.24382
2.22856
2.21465
2.20264
2.19114
2.18108
2.17342
2.1683
2.16768
2.16928
2.1731
2.18364
2.19807
2.21693
2.24006
2.25426
2.29374
4.17362
4.14076
4.05109
3.85162
3.66716
3.50603
3.3586
3.22144
3.0887
2.96474
2.84504
2.73282
2.62793
2.53552
2.45389
2.41682
2.41415
2.43294
2.5029
2.66858
3.03571
3.25408
3.28731
3.28782
3.26121
3.17698
3.09519
3.02873
3.00509
3.00936
3.02722
3.06781
3.1481
3.31368
3.5255
3.66465
3.69635
3.69106
3.65578
3.56741
3.44895
3.32793
3.22124
3.12403
3.03598
2.95581
2.8836
2.81641
2.75485
2.69683
2.64483
2.59684
2.55478
2.51802
2.48685
2.45917
2.43727
2.42395
2.41888
2.42012
2.42328
2.43
2.44334
2.4597
2.4735
2.48468
2.48847
2.48805
2.486
2.48064
2.46997
2.45354
2.4375
2.41873
2.40217
2.38375
2.36729
2.34943
2.33288
2.31566
2.29944
2.28344
2.26871
2.25514
2.24393
2.23359
2.22453
2.21716
2.21351
2.21291
2.2148
2.21935
2.23273
2.24735
2.26818
2.28965
2.3099
2.33184
2.34018
2.3637
4.12109
4.11616
4.07288
3.95882
3.76111
3.58692
3.4344
3.29465
3.1638
3.03886
2.92207
2.81211
2.71388
2.62737
2.58638
2.58251
2.60123
2.67483
2.84882
3.22944
3.45784
3.48186
3.47884
3.44603
3.34508
3.24786
3.17103
3.10554
3.06077
3.03321
3.03824
3.04717
3.07409
3.12945
3.25474
3.4212
3.57071
3.64129
3.64148
3.61928
3.55926
3.45139
3.34183
3.23057
3.12889
3.03852
2.95754
2.88315
2.81368
2.75035
2.69142
2.63843
2.58892
2.54517
2.50574
2.47286
2.44252
2.41786
2.4011
2.39067
2.39034
2.39198
2.39592
2.40476
2.41901
2.4352
2.44598
2.45468
2.45417
2.45313
2.44993
2.44238
2.42911
2.41271
2.39666
2.37968
2.36385
2.34797
2.333
2.31837
2.30477
2.29217
2.28183
2.27314
2.26557
2.25875
2.25687
2.25673
2.25906
2.26478
2.28034
2.29712
2.31845
2.34167
2.36203
2.38294
2.39362
2.40417
2.40346
2.40663
3.89816
4.08789
4.07114
4.00872
3.85804
3.67341
3.51307
3.37017
3.2391
3.11603
3.00106
2.89839
2.80772
2.76571
2.7609
2.77972
2.85989
3.04918
3.45586
3.68436
3.6935
3.68678
3.6438
3.52926
3.42244
3.33204
3.26118
3.19541
3.14195
3.09662
3.06145
3.0551
3.05686
3.071
3.10739
3.18347
3.3229
3.46836
3.56455
3.57259
3.56658
3.53438
3.45324
3.34485
3.23382
3.13331
3.04082
2.95626
2.8783
2.80825
2.74364
2.68439
2.62903
2.57852
2.53286
2.49204
2.45707
2.42435