/*--------------------------------*- C++ -*----------------------------------*\
  =========                 |
  \\      /  F ield         | OpenFOAM: The Open Source CFD Toolbox
   \\    /   O peration     | Website:  https://openfoam.org
    \\  /    A nd           | Version:  10
     \\/     M anipulation  |
\*---------------------------------------------------------------------------*/
FoamFile
{
    format      ascii;
    class       volScalarField;
    location    "4";
    object      T;
}
// * * * * * * * * * * * * * * * * * * * * * * * * * * * * * * * * * * * * * //

dimensions      [0 0 0 1 0 0 0];

internalField   nonuniform List<scalar> 
5250
(
1
1.00002
1.00004
1.00011
1.00025
1.00069
1.00148
1.00422
1.00914
1.02545
1.0603
1.1643
1.43618
2.09869
2.64847
2.76088
2.74282
2.73757
2.74895
2.76666
2.77835
2.78756
2.79287
2.79475
2.80011
1
1.00002
1.00004
1.0001
1.00026
1.00064
1.00155
1.00395
1.00935
1.0245
1.06001
1.1606
1.42966
2.08395
2.64364
2.76059
2.74202
2.73644
2.74784
2.76549
2.77714
2.78635
2.79166
2.79352
2.79883
1
1.00001
1.00004
1.0001
1.00025
1.00062
1.00149
1.00383
1.00899
1.02374
1.05774
1.15484
1.41362
2.0519
2.63194
2.75917
2.73952
2.7331
2.74464
2.76194
2.77388
2.78271
2.78818
2.79001
2.79552
1
1.00002
1.00003
1.0001
1.00021
1.00064
1.0013
1.00383
1.00825
1.02276
1.05419
1.14661
1.38886
2.002
2.613
2.75632
2.7351
2.72739
2.73848
2.75661
2.76784
2.77768
2.78284
2.78453
2.7893
1
1.00001
1.00003
1.0001
1.0002
1.0006
1.00121
1.00357
1.00766
1.02116
1.05012
1.13537
1.35804
1.9334
2.58634
2.75081
2.72807
2.71874
2.73024
2.74761
2.75986
2.76887
2.77458
2.77689
2.7824
1
1.00001
1.00003
1.00008
1.00019
1.00052
1.00114
1.00323
1.00693
1.01957
1.04498
1.12297
1.32202
1.84816
2.54989
2.74032
2.71683
2.70637
2.71781
2.73619
2.74823
2.75818
2.76326
2.76495
2.77021
1
1.00001
1.00003
1.00008
1.00017
1.00048
1.00105
1.00284
1.00657
1.01702
1.0416
1.10922
1.28816
1.76234
2.50705
2.72674
2.70296
2.69187
2.70297
2.7208
2.73353
2.74227
2.74844
2.74924
2.75284
1
1.00001
1.00002
1.00007
1.00016
1.00043
1.00097
1.00253
1.00609
1.01525
1.03815
1.09839
1.26105
1.69517
2.45882
2.71136
2.69092
2.68089
2.68891
2.70339
2.71577
2.72295
2.72687
2.7257
2.72544
1
1.00001
1.00003
1.00005
1.00017
1.00033
1.001
1.00206
1.00592
1.01315
1.03553
1.08725
1.23672
1.62737
2.38933
2.68432
2.68128
2.67403
2.67571
2.68578
2.6937
2.69946
2.69953
2.69297
2.67968
1
1.00001
1.00002
1.00006
1.00013
1.00033
1.00083
1.00198
1.00511
1.01197
1.03158
1.07786
1.20989
1.55864
2.29715
2.6479
2.67378
2.66591
2.66225
2.6676
2.67059
2.67026
2.66285
2.64079
2.57969
1
1.00001
1.00002
1.00005
1.00011
1.00032
1.00065
1.00195
1.00398
1.01159
1.02581
1.07059
1.17982
1.48903
2.17976
2.60005
2.66489
2.65588
2.64802
2.64782
2.64631
2.63834
2.6169
2.56606
2.45176
1
1.00001
1.00002
1.00004
1.00011
1.00024
1.00064
1.0015
1.00376
1.00932
1.02298
1.0587
1.15331
1.41128
2.03566
2.53744
2.65169
2.64255
2.63159
2.62715
2.62044
2.60401
2.56893
2.49808
2.3642
1
1.00001
1.00001
1.00004
1.00008
1.00022
1.00049
1.0013
1.00306
1.00772
1.01908
1.04808
1.12448
1.33307
1.86139
2.45712
2.62792
2.62113
2.61123
2.60296
2.59238
2.57023
2.52708
2.45138
2.33051
1
1
1.00001
1.00003
1.00006
1.00019
1.00037
1.00112
1.00227
1.00665
1.0144
1.03947
1.09588
1.2591
1.67319
2.35857
2.59043
2.59203
2.58453
2.57529
2.56172
2.53717
2.49298
2.42266
2.31741
1
1
1.00001
1.00002
1.00005
1.00015
1.0003
1.00091
1.00187
1.00537
1.01183
1.03195
1.0776
1.20924
1.54922
2.24741
2.54716
2.56769
2.5588
2.54718
2.53321
2.50659
2.46422
2.40147
2.31126
1
1
1.00001
1.00002
1.00005
1.0001
1.0003
1.00061
1.00178
1.0038
1.01047
1.02417
1.06423
1.16384
1.44164
2.07421
2.47593
2.54745
2.53949
2.52537
2.50646
2.48073
2.43899
2.38346
2.30605
1
1
1.00001
1.00001
1.00004
1.00008
1.00023
1.00049
1.00139
1.00292
1.00843
1.01835
1.05049
1.12473
1.33836
1.8637
2.3795
2.51989
2.51851
2.50508
2.48311
2.45707
2.41801
2.36665
2.30055
1
1
1
1.00001
1.00002
1.00007
1.00015
1.00042
1.00093
1.00246
1.00577
1.01456
1.03581
1.09175
1.23861
1.62521
2.25225
2.47367
2.48854
2.47866
2.45781
2.43281
2.39816
2.35125
2.29324
1
1
1
1.00001
1.00002
1.00005
1.00011
1.00033
1.00067
1.002
1.00408
1.0117
1.02611
1.07062
1.17788
1.47655
2.10284
2.41871
2.46227
2.45363
2.43507
2.40839
2.37799
2.33714
2.28526
1
1
1
1.00001
1.00001
1.00004
1.00009
1.00024
1.00053
1.00141
1.00328
1.0083
1.02032
1.05132
1.1321
1.35095
1.88458
2.32149
2.43091
2.42976
2.41453
2.38886
2.35775
2.32223
2.27713
1
1
1
1
1.00001
1.00003
1.00007
1.00017
1.00038
1.00105
1.00222
1.00631
1.01353
1.03734
1.0889
1.2383
1.61459
2.18569
2.38221
2.39998
2.39005
2.36789
2.33867
2.30529
2.26701
1
1
1
1
1.00001
1.00002
1.00005
1.00011
1.00032
1.00064
1.00187
1.00393
1.01091
1.02479
1.06582
1.16542
1.43993
2.01676
2.32031
2.37156
2.36485
2.34646
2.31967
2.28961
2.25428
1
1
1
1
1.00001
1.00001
1.00003
1.00008
1.00021
1.00047
1.00131
1.00277
1.00792
1.01707
1.04706
1.11394
1.30669
1.77463
2.2123
2.33307
2.33836
2.3267
2.30311
2.27419
2.24184
1
1
1
1
1
1.00001
1.00003
1.00005
1.00015
1.00032
1.0009
1.00193
1.0052
1.01184
1.03084
1.07487
1.19662
1.50871
2.05419
2.27323
2.3075
2.30215
2.28454
2.25773
2.2289
1
1
1
1
1
1.00001
1.00002
1.00004
1.0001
1.00022
1.00063
1.00127
1.00371
1.00779
1.02155
1.04986
1.13317
1.34121
1.83966
2.18437
2.27276
2.277
2.26629
2.24354
2.21482
1
1
1
1
1
1
1.00001
1.00003
1.00006
1.00016
1.00039
1.00089
1.00235
1.00518
1.01406
1.03173
1.08455
1.21085
1.55099
2.04176
2.22243
2.24843
2.24372
2.22623
2.2015
1
1
1
1
1
1
1.00001
1.00002
1.00004
1.00011
1.00025
1.00062
1.0015
1.00357
1.0091
1.02125
1.05517
1.13704
1.36085
1.84843
2.14801
2.21704
2.22034
2.20974
2.18855
1
1
1
1
1
1
1
1.00001
1.00003
1.00007
1.00015
1.00043
1.00088
1.00256
1.00521
1.01487
1.03275
1.08827
1.21879
1.56982
2.01348
2.17108
2.19384
2.18918
2.17242
1
1
1
1
1
1
1
1.00001
1.00002
1.00005
1.0001
1.00027
1.00059
1.00157
1.00356
1.00899
1.02173
1.05419
1.13706
1.35692
1.81984
2.0953
2.16071
2.16582
2.15704
1
1
1
1
1
1
1
1
1.00001
1.00003
1.00007
1.00015
1.00042
1.00086
1.00249
1.0051
1.01427
1.03178
1.08435
1.20875
1.54005
1.95949
2.11414
2.13955
2.13735
1
1
1
1
1
1
1
1
1.00001
1.00002
1.00004
1.00011
1.00022
1.00063
1.00134
1.00359
1.00809
1.02082
1.04979
1.12825
1.32762
1.7622
2.03328
2.10608
2.11463
1
1
1
1
1
1
1
1
1
1.00001
1.00002
1.00007
1.00014
1.00039
1.00078
1.00223
1.00465
1.01266
1.02842
1.07443
1.18217
1.47119
1.88755
2.05669
2.08717
1
1
1
1
1
1
1
1
1
1.00001
1.00002
1.00004
1.00009
1.00023
1.00049
1.00137
1.00279
1.00798
1.01688
1.04594
1.10863
1.28709
1.67736
1.97459
2.05669
1
1
1
1
1
1
1
1
1
1
1.00001
1.00002
1.00006
1.00012
1.00032
1.00073
1.00182
1.00435
1.01038
1.02588
1.06249
1.15844
1.40581
1.81297
1.99889
1
1
1
1
1
1
1
1
1
1
1.00001
1.00001
1.00003
1.00007
1.0002
1.00041
1.00116
1.00235
1.00673
1.01409
1.03841
1.08942
1.23539
1.56915
1.89503
1
1
1
1
1
1
1
1
1
1
1
1.00001
1.00002
1.00005
1.0001
1.00028
1.00057
1.00161
1.00336
1.00909
1.02025
1.05272
1.12716
1.33064
1.71059
1
1
1
1
1
1
1
1
1
1
1
1
1.00001
1.00003
1.00006
1.00015
1.00033
1.0009
1.00187
1.00523
1.01084
1.02971
1.06698
1.17562
1.43121
1
1
1
1
1
1
1
1
1
1
1
1
1.00001
1.00001
1.00004
1.00008
1.00022
1.00045
1.00126
1.00254
1.00719
1.01517
1.04078
1.09498
1.24866
1
1
1
1
1
1
1
1
1
1
1
1
1
1.00001
1.00002
1.00005
1.00011
1.00029
1.00061
1.00167
1.00341
1.00959
1.02022
1.05433
1.12809
1
1
1
1
1
1
1
1
1
1
1
1
1
1
1.00001
1.00003
1.00006
1.00015
1.00037
1.00081
1.00213
1.00455
1.01223
1.02659
1.06995
1
1
1
1
1
1
1
1
1
1
1
1
1
1
1.00001
1.00002
1.00003
1.00008
1.0002
1.00046
1.00115
1.00258
1.0067
1.01464
1.03874
1
1
1
1
1
1
1
1
1
1
1
1
1
1
1
1.00001
1.00002
1.00005
1.0001
1.00028
1.00056
1.00156
1.00324
1.00866
1.01914
1
1
1
1
1
1
1
1
1
1
1
1
1
1
1
1
1.00001
1.00002
1.00006
1.00013
1.00035
1.00074
1.0019
1.00432
1.01053
1
1
1
1
1
1
1
1
1
1
1
1
1
1
1
1
1.00001
1.00001
1.00003
1.00008
1.00019
1.00041
1.0011
1.00228
1.0063
1
1
1
1
1
1
1
1
1
1
1
1
1
1
1
1
1
1.00001
1.00002
1.00004
1.00012
1.00026
1.00068
1.00157
1.00377
1
1
1
1
1
1
1
1
1
1
1
1
1
1
1
1
1
1.00001
1.00001
1.00004
1.00009
1.00021
1.00052
1.00123
1.00314
1
1
1
1
1
1
1
1
1
1
1
1
1
1
1
1
1
1.00001
1.00001
1.00003
1.00007
1.00021
1.00042
1.00125
1.00254
1
1
1
1
1
1
1
1
1
1
1
1
1
1
1
1
1
1
1.00001
1.00003
1.00007
1.00019
1.00042
1.00117
1.0025
1
1
1
1
1
1
1
1
1
1
1
1
1
1
1
1
1
1
1.00001
1.00003
1.00008
1.00016
1.00048
1.00098
1.0029
1
1
1
1
1
1
1
1
1
1
1
1
1
1
1
1
1
1
1.00001
1.00003
1.00007
1.00018
1.00044
1.0011
1.00262
2.23497
2.06934
2.01752
2.04749
2.10591
2.17704
2.244
2.27768
2.28574
2.28476
2.28561
2.29171
2.30968
2.35148
2.43707
2.5943
2.77856
2.88029
2.90091
2.91239
2.93806
2.95514
2.94224
2.90946
2.89573
2.8839
2.86907
2.86103
2.85068
2.84588
2.84411
2.84667
2.85645
2.87214
2.89154
2.90966
2.927
2.94114
2.95044
2.95779
2.96077
2.96192
2.95964
2.95913
2.9541
2.9506
2.94244
2.93799
2.92879
2.92364
2.91264
2.90661
2.89427
2.88794
2.87508
2.8677
2.85446
2.84609
2.83326
2.82459
2.81232
2.80363
2.79159
2.78293
2.77118
2.76254
2.75088
2.74219
2.73071
2.722
2.71074
2.70192
2.69087
2.68206
2.67112
2.6625
2.65153
2.6432
2.6322
2.6242
2.61329
2.60558
2.5948
2.58745
2.5767
2.56976
2.55907
2.55239
2.54193
2.53534
2.52517
2.5187
2.50881
2.50264
2.493
2.48735
2.47846
2.47434
2.46799
2.4677
2.22907
2.1309
2.07689
2.03989
2.00357
1.97534
1.96865
1.973
1.98783
2.0104
2.02948
2.04219
2.05801
2.09067
2.16307
2.32865
2.57356
2.77032
2.8394
2.86243
2.89615
2.93578
2.95936
2.97712
2.98324
2.98476
2.98498
2.97829
2.96195
2.95573
2.95469
2.95468
2.96045
2.96856
2.97307
2.97573
2.96918
2.96623
2.95538
2.94604
2.92335
2.91331
2.89245
2.88216
2.86328
2.85256
2.83514
2.82352
2.80761
2.79645
2.78041
2.76812
2.75264
2.74036
2.72524
2.71327
2.69898
2.68771
2.67402
2.66323
2.64999
2.63948
2.6266
2.61635
2.60372
2.59373
2.5813
2.5715
2.55925
2.54959
2.53744
2.52795
2.51585
2.50661
2.49451
2.48557
2.47349
2.46483
2.45286
2.4444
2.43264
2.42437
2.41279
2.40479
2.39335
2.38558
2.37438
2.36672
2.35582
2.3482
2.33757
2.32997
2.31957
2.31215
2.30215
2.29531
2.28622
2.28088
2.27442
2.2729
2.22843
2.14085
2.06099
1.98558
1.91638
1.86264
1.8374
1.8359
1.84033
1.85277
1.87125
1.88946
1.90679
1.93272
1.98471
2.11121
2.27545
2.53037
2.67369
2.72973
2.76094
2.78916
2.83642
2.87811
2.91725
2.94931
2.97552
2.98636
2.99283
2.99454
2.99586
2.99856
2.99792
2.99008
2.97574
2.95406
2.9264
2.90342
2.88061
2.86157
2.84253
2.82666
2.80942
2.79635
2.78079
2.76834
2.75328
2.74112
2.7266
2.71531
2.70163
2.68892
2.67452
2.66246
2.64923
2.63797
2.62499
2.61383
2.60103
2.58989
2.57741
2.56637
2.55416
2.54333
2.53131
2.52071
2.50892
2.49857
2.48702
2.47686
2.46553
2.45553
2.44433
2.43452
2.42339
2.41382
2.40282
2.39344
2.38269
2.37349
2.36298
2.354
2.34368
2.33493
2.3248
2.3162
2.30632
2.29774
2.28807
2.27952
2.27005
2.26164
2.25238
2.24418
2.2352
2.22741
2.21913
2.21253
2.20651
2.20348
2.22053
2.1338
2.05275
1.97896
1.91383
1.86058
1.81957
1.79047
1.77541
1.77273
1.77496
1.78314
1.79735
1.82026
1.85843
1.93763
2.07728
2.31798
2.48402
2.5311
2.57447
2.64357
2.68794
2.70902
2.74989
2.79866
2.83747
2.87536
2.9081
2.92958
2.94233
2.9399
2.92604
2.90188
2.87096
2.84125
2.81139
2.79006
2.76824
2.75383
2.73691
2.7239
2.70773
2.69533
2.68023
2.66823
2.65378
2.6416
2.62798
2.61707
2.60389
2.59159
2.5774
2.5652
2.55218
2.5406
2.52798
2.51663
2.50431
2.49318
2.48117
2.4702
2.45842
2.44763
2.43608
2.42561
2.41432
2.40416
2.3931
2.38315
2.37223
2.36252
2.35171
2.34234
2.33163
2.32254
2.31194
2.30302
2.29261
2.28384
2.27371
2.26518
2.25536
2.24708
2.23746
2.22926
2.21973
2.21157
2.20221
2.19416
2.18504
2.17719
2.16832
2.16079
2.1522
2.14517
2.13714
2.13132
2.12529
2.12301
2.21902
2.13437
2.05636
1.98543
1.92162
1.86488
1.81604
1.775
1.74417
1.72458
1.71845
1.71942
1.72413
1.73584
1.76116
1.81398
1.93289
2.0997
2.30054
2.39209
2.45326
2.49286
2.51329
2.55448
2.60978
2.63951
2.6745
2.72031
2.75642
2.7815
2.80743
2.80573
2.79117
2.76196
2.7338
2.70502
2.68324
2.66648
2.65443
2.64427
2.63356
2.62304
2.61175
2.60185
2.59075
2.58104
2.56969
2.5596
2.54821
2.53918
2.5289
2.51922
2.50748
2.49705
2.48602
2.47602
2.46538
2.45576
2.44535
2.43596
2.42553
2.41591
2.40534
2.39533
2.38478
2.37478
2.36453
2.35494
2.34487
2.33559
2.32536
2.31606
2.30564
2.2963
2.286
2.27677
2.26681
2.25778
2.24797
2.23908
2.22919
2.22039
2.21047
2.20183
2.19227
2.18388
2.17489
2.16663
2.15797
2.1497
2.14107
2.13286
2.12426
2.11634
2.10806
2.10062
2.09304
2.08661
2.08086
2.0778
2.22139
2.14095
2.06583
1.99732
1.93514
1.87827
1.82891
1.78484
1.74928
1.71955
1.69851
1.68596
1.68477
1.68808
1.69935
1.72717
1.79194
1.91816
2.1477
2.27003
2.31769
2.37604
2.41164
2.43112
2.45806
2.50238
2.54752
2.57766
2.61954
2.65579
2.68693
2.68652
2.67266
2.64568
2.61602
2.58651
2.56386
2.54817
2.53895
2.53411
2.52821
2.52299
2.51535
2.509
2.50079
2.49338
2.48384
2.47539
2.46547
2.45772
2.44924
2.44161
2.43158
2.42238
2.41235
2.40355
2.39368
2.38473
2.37488
2.36586
2.35623
2.34735
2.33794
2.32905
2.31943
2.31016
2.30031
2.29095
2.28147
2.27258
2.26358
2.25499
2.24583
2.23691
2.22722
2.21796
2.20817
2.19925
2.19002
2.18181
2.17309
2.16514
2.15644
2.14824
2.13921
2.13082
2.12169
2.11364
2.10482
2.09732
2.08892
2.08163
2.07339
2.06598
2.0577
2.05045
2.0424
2.03627
2.02991
2.02744
2.22527
2.14945
2.07967
2.01236
1.95235
1.8964
1.84592
1.80117
1.76077
1.72685
1.69752
1.67616
1.66096
1.6581
1.66154
1.67393
1.70642
1.78643
1.92922
2.15153
2.24893
2.27368
2.29791
2.33924
2.36991
2.39409
2.42886
2.46826
2.51707
2.56062
2.59725
2.59815
2.58233
2.55208
2.51694
2.48289
2.45865
2.43902
2.43134
2.4298
2.43151
2.43144
2.43027
2.42778
2.4237
2.41905
2.41332
2.40816
2.40183
2.39664
2.39075
2.38595
2.37885
2.3717
2.36353
2.35626
2.3479
2.34026
2.33158
2.324
2.31554
2.30812
2.29977
2.29206
2.28346
2.27521
2.26621
2.2575
2.24831
2.23951
2.2305
2.22193
2.2131
2.20469
2.19578
2.18728
2.17819
2.16948
2.16033
2.15161
2.14264
2.13431
2.12552
2.11756
2.10877
2.10079
2.09192
2.08362
2.07486
2.0664
2.05799
2.04987
2.04181
2.03427
2.02637
2.01926
2.01158
2.00496
1.99873
1.995
2.22702
2.1585
2.09118
2.02966
1.9693
1.91648
1.86519
1.82058
1.77923
1.74221
1.71131
1.68303
1.66269
1.64652
1.6431
1.64668
1.66027
1.6972
1.79502
1.94297
2.12563
2.21929
2.23794
2.25235
2.28553
2.32217
2.35209
2.38492
2.44478
2.50698
2.53946
2.53764
2.51564
2.4841
2.44218
2.40429
2.37785
2.36043
2.3494
2.34562
2.34982
2.35526
2.35961
2.36221
2.36312
2.36206
2.35965
2.35675
2.35205
2.34826
2.34385
2.34056
2.33537
2.32973
2.32206
2.3152
2.30714
2.30003
2.29177
2.28459
2.27644
2.26932
2.26133
2.25381
2.24543
2.23706
2.22804
2.21922
2.20993
2.20132
2.19222
2.18402
2.17528
2.16717
2.1585
2.15013
2.14108
2.13243
2.12303
2.11454
2.10519
2.09707
2.08815
2.08028
2.07185
2.06397
2.05573
2.04772
2.03933
2.03134
2.02274
2.01504
2.00649
1.99918
1.99104
1.98408
1.97658
1.97023
1.96419
1.96086
2.22712
2.16446
2.10325
2.04291
1.98814
1.93436
1.88672
1.84062
1.80027
1.76218
1.72827
1.69915
1.67181
1.65213
1.63549
1.63246
1.6364
1.65148
1.6924
1.80334
1.95038
2.1074
2.18416
2.20762
2.22238
2.24999
2.29672
2.34504
2.4154
2.48026
2.50176
2.49623
2.47465
2.43713
2.39048
2.3485
2.31886
2.30176
2.29099
2.28452
2.28538
2.29146
2.30049
2.30719
2.31221
2.31451
2.31443
2.31319
2.31049
2.30821
2.3048
2.30273
2.2992
2.2951
2.28853
2.2819
2.27435
2.2671
2.25921
2.25186
2.24398
2.23704
2.22928
2.22251
2.2144
2.20709
2.19829
2.19033
2.18125
2.17309
2.16413
2.15603
2.14715
2.13907
2.13013
2.12184
2.11274
2.10422
2.09509
2.0864
2.07741
2.06885
2.06012
2.05195
2.04345
2.03574
2.02729
2.0198
2.01129
2.0037
1.99514
1.9873
1.97888
1.97098
1.96289
1.95532
1.94773
1.94112
1.9349
1.93162
2.22506
2.16979
2.11228
2.05702
2.00273
1.95347
1.9049
1.86182
1.82025
1.78284
1.74849
1.71627
1.68957
1.66341
1.6447
1.6289
1.6268
1.63133
1.64804
1.69258
1.80784
1.96314
2.08626
2.15104
2.18845
2.21138
2.25216
2.32637
2.41546
2.47873
2.48685
2.4763
2.4485
2.4025
2.35504
2.31401
2.28357
2.26216
2.25037
2.24394
2.24095
2.24314
2.25003
2.26034
2.26653
2.27333
2.27602
2.27656
2.27575
2.27387
2.27109
2.26945
2.26688
2.26402
2.25812
2.25163
2.24361
2.23636
2.22824
2.221
2.21307
2.206
2.19825
2.19125
2.18322
2.17576
2.16697
2.15886
2.14954
2.14118
2.13195
2.1237
2.11477
2.10658
2.09787
2.08973
2.08117
2.07299
2.06433
2.05607
2.04716
2.03893
2.02986
2.0218
2.01282
2.00496
1.99632
1.9886
1.98035
1.97269
1.96466
1.95702
1.94898
1.94143
1.93332
1.92608
1.91816
1.91168
1.90513
1.90174
2.22116
2.17122
2.11968
2.06775
2.01736
1.969
1.92372
1.88017
1.84052
1.80313
1.76806
1.73709
1.70648
1.68184
1.65662
1.6389
1.62395
1.62309
1.62836
1.64703
1.69617
1.81205
1.98223
2.07337
2.13355
2.18945
2.24626
2.3427
2.43852
2.48327
2.48217
2.46618
2.43001
2.38315
2.33614
2.29629
2.26432
2.24139
2.22525
2.21595
2.21237
2.2105
2.21194
2.21732
2.22553
2.23118
2.23815
2.23907
2.23964
2.23833
2.23572
2.23388
2.23104
2.22834
2.22301
2.2166
2.2083
2.20068
2.19242
2.18515
2.17714
2.16986
2.16174
2.15436
2.14625
2.13885
2.13065
2.12299
2.11446
2.10651
2.09775
2.08971
2.08085
2.07281
2.06397
2.0561
2.04739
2.03972
2.03118
2.02358
2.01508
2.00737
1.99885
1.99097
1.98249
1.97456
1.96626
1.95848
1.95043
1.94297
1.93511
1.92798
1.92016
1.91327
1.90545
1.89871
1.89113
1.88481
1.87851
1.87492
2.21488
2.17016
2.12422
2.07624
2.02971
1.98336
1.94014
1.89789
1.85896
1.82145
1.7879
1.75435
1.72612
1.69708
1.67377
1.64989
1.6332
1.61983
1.62018
1.62695
1.64835
1.70315
1.81937
2.00057
2.07856
2.15611
2.25678
2.38312
2.47266
2.49156
2.48502
2.46147
2.42001
2.37193
2.32782
2.29073
2.25913
2.23487
2.21508
2.20219
2.19394
2.18861
2.18533
2.18215
2.18391
2.1881
2.19405
2.19693
2.1986
2.1981
2.1958
2.19319
2.18919
2.18602
2.18127
2.17586
2.16816
2.16079
2.15258
2.14546
2.13762
2.13063
2.12265
2.11537
2.1073
2.1001
2.09229
2.08517
2.07728
2.06981
2.06156
2.05373
2.04535
2.03761
2.02932
2.02167
2.01343
2.00588
1.99778
1.99041
1.98245
1.97518
1.96724
1.95994
1.95196
1.94462
1.93667
1.92944
1.92161
1.91466
1.907
1.90038
1.89288
1.88653
1.8792
1.87306
1.86604
1.86035
1.85451
1.8514
2.20588
2.16676
2.12474
2.08203
2.03845
1.99645
1.9541
1.91514
1.87603
1.84076
1.80569
1.77455
1.74341
1.71635
1.68956
1.66682
1.64473
1.62818
1.61822
1.61901
1.62793
1.65335
1.7166
1.83984
2.0239
2.14246
2.29006
2.4376
2.5094
2.51028
2.49743
2.46399
2.41588
2.37178
2.33185
2.2986
2.26703
2.23912
2.21482
2.19638
2.18077
2.16889
2.15961
2.15039
2.14432
2.14143
2.14279
2.14636
2.14914
2.14985
2.14905
2.14657
2.14213
2.13836
2.13406
2.13021
2.12443
2.1183
2.11095
2.10433
2.09699
2.09055
2.08329
2.07667
2.06915
2.06222
2.05464
2.0478
2.04041
2.03364
2.02607
2.01907
2.0113
2.00421
1.99646
1.98946
1.98182
1.97488
1.9673
1.96039
1.95288
1.94604
1.93864
1.93184
1.92453
1.91771
1.91044
1.90366
1.89643
1.88983
1.88267
1.87639
1.86936
1.86341
1.85659
1.85095
1.84448
1.83939
1.83407
1.83146
2.1964
2.16154
2.12388
2.08502
2.04448
2.00562
1.96601
1.9284
1.89147
1.85688
1.82291
1.792
1.76134
1.73382
1.70672
1.68336
1.65933
1.64173
1.62385
1.61957
1.62301
1.63552
1.66924
1.74939
1.90004
2.11744
2.34052
2.50613
2.53828
2.53112
2.50832
2.46671
2.42235
2.38203
2.34453
2.30759
2.27278
2.24005
2.21232
2.18671
2.16529
2.14546
2.12817
2.11296
2.1025
2.09306
2.08956
2.08922
2.09134
2.09493
2.09563
2.09536
2.09363
2.09104
2.08752
2.0851
2.08175
2.07809
2.07246
2.06697
2.06042
2.05457
2.04801
2.04224
2.03578
2.02987
2.02322
2.01694
2.01003
2.00355
1.99661
1.99021
1.98321
1.97672
1.96955
1.96294
1.95567
1.94904
1.94177
1.93519
1.92797
1.9215
1.91437
1.90804
1.901
1.8948
1.88778
1.88165
1.87457
1.86848
1.86136
1.85539
1.84837
1.84262
1.83589
1.8305
1.82429
1.81955
1.81468
1.81222
2.18646
2.15506
2.121
2.08566
2.04869
2.01125
1.97582
1.93863
1.90493
1.86999
1.83879
1.80673
1.77865
1.74917
1.72451
1.69798
1.67654
1.65442
1.63706
1.62611
1.62672
1.63475
1.65722
1.71257
1.83034
2.07438
2.37488
2.55701
2.57458
2.56097
2.52821
2.48319
2.43923
2.39437
2.35029
2.30621
2.26532
2.22872
2.19573
2.16656
2.13963
2.1141
2.09304
2.07408
2.06007
2.05011
2.04266
2.0388
2.03713
2.03923
2.04213
2.04634
2.04787
2.04924
2.04816
2.0469
2.0446
2.04258
2.03871
2.03439
2.02883
2.02364
2.01765
2.0122
2.00618
2.00067
1.9946
1.98887
1.98248
1.97647
1.96991
1.96383
1.95717
1.95108
1.9443
1.93815
1.93119
1.92486
1.91773
1.91124
1.90404
1.89754
1.89038
1.88401
1.87692
1.87074
1.86372
1.85779
1.85086
1.84523
1.83845
1.83314
1.82661
1.82166
1.81555
1.81103
1.80558
1.80177
1.79745
1.79571
2.17427
2.14679
2.11637
2.08352
2.05135
2.015
1.98191
1.94723
1.91455
1.88157
1.85102
1.82007
1.79266
1.7636
1.73959
1.71272
1.69203
1.66859
1.65193
1.63884
1.63923
1.64632
1.66595
1.7138
1.81703
2.04682
2.31716
2.5293
2.55155
2.53345
2.50098
2.45198
2.39752
2.3471
2.30385
2.26593
2.22951
2.19401
2.161
2.13227
2.10607
2.08298
2.06112
2.04355
2.02917
2.01799
2.00849
2.00233
1.99793
1.99644
1.99788
2.00185
2.00654
2.01006
2.01209
2.01248
2.01114
2.00971
2.00707
2.00405
1.99934
1.99469
1.98916
1.98406
1.97825
1.97278
1.96663
1.96079
1.95448
1.9487
1.94245
1.93672
1.93038
1.92459
1.91813
1.91234
1.90586
1.90012
1.89363
1.88786
1.88129
1.87546
1.86881
1.86301
1.85634
1.85069
1.84403
1.83862
1.83202
1.82684
1.82041
1.8155
1.8094
1.80491
1.79934
1.79552
1.79051
1.78741
1.78389
1.78283
2.16251
2.13482
2.10943
2.07884
2.04918
2.01836
1.9853
1.95366
1.92292
1.89036
1.86263
1.83079
1.8056
1.77613
1.75288
1.72676
1.70536
1.68421
1.66648
1.65819
1.6604
1.66971
1.69253
1.74731
1.84181
2.02513
2.20801
2.40309
2.4645
2.45665
2.43335
2.39234
2.34696
2.30784
2.27159
2.23662
2.20239
2.17118
2.14205
2.1157
2.09078
2.06709
2.04528
2.02562
2.00815
1.99377
1.98181
1.973
1.96598
1.9624
1.96049
1.96064
1.96321
1.96664
1.97078
1.97295
1.97532
1.97511
1.97422
1.9731
1.97077
1.96742
1.96235
1.95755
1.95217
1.9473
1.94182
1.93672
1.93106
1.92583
1.92002
1.91476
1.90884
1.90357
1.89752
1.89215
1.88592
1.88038
1.87395
1.86824
1.86166
1.85593
1.84927
1.84367
1.83703
1.83163
1.82512
1.81996
1.81367
1.80881
1.80285
1.79846
1.79297
1.7893
1.78439
1.78142
1.77719
1.77544
1.77328
1.77329
2.14963
2.12463
2.09873
2.07362
2.04439
2.01667
1.98799
1.95645
1.92905
1.89771
1.87073
1.84182
1.81517
1.78912
1.76371
1.74092
1.7179
1.69999
1.68517
1.68384
1.68996
1.70588
1.74208
1.81886
1.93911
2.03201
2.12143
2.24689
2.35132
2.3902
2.38519
2.3694
2.33789
2.29688
2.2586
2.2239
2.1913
2.16086
2.13318
2.10669
2.08132
2.05685
2.03441
2.01363
1.99494
1.97787
1.96369
1.95193
1.94249
1.93476
1.93025
1.92793
1.9276
1.92915
1.93305
1.93706
1.94079
1.94268
1.94349
1.94281
1.94145
1.93983
1.93654
1.93257
1.92745
1.92268
1.9172
1.91235
1.90693
1.90212
1.89663
1.89175
1.88609
1.88109
1.8752
1.87005
1.86395
1.85872
1.85249
1.84721
1.8409
1.83561
1.82931
1.8241
1.81792
1.81292
1.80692
1.80224
1.79652
1.79232
1.78698
1.78354
1.7787
1.77595
1.77165
1.76978
1.76713
1.76679
1.76695
1.76716
2.13803
2.11345
2.08884
2.06476
2.03969
2.0126
1.98654
1.95888
1.93115
1.90369
1.87644
1.84974
1.82416
1.79877
1.77505
1.752
1.73266
1.71547
1.71124
1.71607
1.72879
1.7587
1.82306
1.92696
2.00285
2.0427
2.07179
2.13059
2.21595
2.29173
2.32819
2.32675
2.31483
2.29047
2.25592
2.2202
2.18601
2.15507
2.12688
2.09954
2.07374
2.04919
2.02674
2.00512
1.98512
1.96624
1.94989
1.93531
1.92358
1.9134
1.90509
1.89921
1.89628
1.89481
1.89506
1.89734
1.90124
1.90531
1.90808
1.91015
1.91013
1.90949
1.90817
1.90629
1.90248
1.89831
1.89322
1.88872
1.8836
1.87911
1.87388
1.86931
1.86388
1.85924
1.85359
1.84889
1.84304
1.83824
1.83227
1.82735
1.82135
1.81635
1.81038
1.80548
1.79957
1.79503
1.78924
1.78533
1.77985
1.77672
1.77203
1.76946
1.76574
1.76357
1.76149
1.7607
1.76118
1.76247
1.76552
1.76515
2.12229
2.10256
2.07822
2.05664
2.03221
2.00881
1.98314
1.95776
1.93288
1.90605
1.88112
1.85543
1.83071
1.80738
1.78435
1.76401
1.74684
1.73961
1.74296
1.75463
1.78145
1.83725
1.93634
2.01267
2.03942
2.0454
2.05021
2.06678
2.10675
2.1649
2.23418
2.27577
2.28004
2.27011
2.25261
2.22218
2.18692
2.15417
2.124
2.09529
2.06839
2.04369
2.02022
1.99789
1.97646
1.95704
1.93892
1.92291
1.90814
1.89591
1.88509
1.87621
1.86918
1.86544
1.86357
1.86338
1.86469
1.86832
1.87168
1.87577
1.87772
1.87902
1.87861
1.87791
1.87625
1.87378
1.86939
1.86524
1.86029
1.85606
1.85103
1.84685
1.8416
1.83733
1.83188
1.82747
1.82195
1.8174
1.81186
1.80724
1.80161
1.79714
1.79137
1.78729
1.78154
1.77792
1.77269
1.7695
1.7654
1.76272
1.75957
1.75738
1.7555
1.75476
1.75521
1.75631
1.75827
1.76135
1.76861
1.76972
2.10811
2.09161
2.06839
2.04632
2.02498
2.0018
1.97983
1.95495
1.93174
1.90778
1.88339
1.85974
1.83626
1.814
1.79394
1.77634
1.76804
1.77024
1.78122
1.80604
1.85764
1.95499
2.03144
2.05681
2.05516
2.04706
2.03575
2.03604
2.04422
2.07178
2.11725
2.18506
2.22657
2.23535
2.22808
2.21484
2.18831
2.15652
2.12386
2.0928
2.06452
2.03885
2.01438
1.99141
1.96957
1.9495
1.93043
1.91254
1.89587
1.88103
1.86805
1.85715
1.84761
1.84
1.83525
1.83298
1.83229
1.83267
1.8348
1.83908
1.84234
1.84593
1.84735
1.84828
1.84782
1.84688
1.84476
1.84185
1.83726
1.8333
1.82844
1.82442
1.81955
1.81547
1.81047
1.8064
1.80121
1.79728
1.79185
1.78807
1.78253
1.77882
1.77352
1.76985
1.76519
1.7618
1.75812
1.75544
1.7527
1.75064
1.74898
1.74832
1.74884
1.74997
1.75193
1.75509
1.76112
1.76679
1.77497
1.77921
2.08821
2.07752
2.0585
2.0366
2.01541
1.99495
1.97312
1.95198
1.9288
1.90679
1.8844
1.86245
1.84049
1.8209
1.80369
1.79493
1.79663
1.80759
1.83172
1.88187
1.97446
2.05193
2.07752
2.07455
2.06391
2.04333
2.02585
2.01535
2.01551
2.02065
2.03929
2.07708
2.13655
2.1723
2.18868
2.18478
2.17495
2.15454
2.12498
2.09245
2.06288
2.03573
2.00997
1.98545
1.96324
1.94216
1.92236
1.90318
1.88561
1.86916
1.85469
1.84143
1.83016
1.82006
1.81197
1.80613
1.80316
1.80197
1.802
1.80328
1.8064
1.81034
1.81427
1.81656
1.81824
1.81816
1.81769
1.81652
1.81386
1.81056
1.80618
1.80255
1.7978
1.79437
1.78938
1.78604
1.78094
1.77755
1.77258
1.76906
1.76437
1.76078
1.75661
1.75326
1.74993
1.74736
1.74513
1.74323
1.74188
1.74151
1.74212
1.7436
1.74542
1.74962
1.75453
1.7618
1.76818
1.7765
1.78446
1.78823
2.06778
2.06253
2.04741
2.02714
2.00677
1.9868
1.96713
1.94622
1.92621
1.90441
1.884
1.86366
1.84503
1.82843
1.81993
1.82173
1.83308
1.85746
1.90757
1.99759
2.07673
2.10203
2.09856
2.08592
2.06521
2.04065
2.01708
2.00161
1.99373
1.99382
1.99674
2.00978
2.04128
2.0828
2.12028
2.14205
2.14135
2.13339
2.11817
2.09229
2.0645
2.03541
2.00722
1.98148
1.95786
1.93614
1.91503
1.89545
1.87659
1.85972
1.84327
1.82877
1.81526
1.8038
1.79353
1.78491
1.77827
1.77433
1.77236
1.77208
1.77263
1.7747
1.77895
1.78223
1.78624
1.78785
1.78931
1.78916
1.78853
1.78704
1.78373
1.78094
1.77633
1.77326
1.76869
1.76558
1.76122
1.75796
1.75392
1.75061
1.747
1.74392
1.741
1.73869
1.73686
1.73532
1.73426
1.73428
1.73492
1.73665
1.73882
1.74375
1.74831
1.75633
1.76273
1.77091
1.77851
1.78367
1.79027
1.79118
2.03786
2.04187
2.0345
2.0184
1.99796
1.97838
1.95945
1.9406
1.92121
1.9023
1.88293
1.8653
1.85022
1.84256
1.84497
1.85699
1.88243
1.93263
2.02326
2.10288
2.12792
2.12351
2.11071
2.08712
2.05953
2.03508
2.01214
1.99542
1.98095
1.97329
1.97061
1.97145
1.979
2.00033
2.03073
2.0711
2.09076
2.09576
2.09047
2.08059
2.06235
2.03509
2.00602
1.97932
1.95466
1.93124
1.90894
1.88813
1.86915
1.85085
1.83404
1.81759
1.80319
1.78961
1.77821
1.76741
1.75843
1.75105
1.74635
1.74358
1.74295
1.74304
1.74442
1.74734
1.75205
1.75542
1.75913
1.76013
1.76145
1.76127
1.76042
1.75875
1.75529
1.75248
1.74872
1.74568
1.74217
1.73914
1.73599
1.73326
1.73073
1.72873
1.72729
1.72637
1.7257
1.72597
1.72703
1.72864
1.73145
1.73704
1.74219
1.75007
1.75752
1.76505
1.77321
1.77793
1.78367
1.78484
1.78701
1.78603
2.0022
2.02052
2.01899
2.00762
1.99005
1.97053
1.95188
1.93424
1.91643
1.89909
1.88282
1.86878
1.86224
1.86576
1.87883
1.90647
1.95798
2.05003
2.12704
2.15096
2.14592
2.13283
2.10877
2.08012
2.05367
2.03178
2.01003
1.99285
1.97489
1.96007
1.95205
1.94481
1.94485
1.94717
1.95888
1.9837
2.01384
2.03662
2.05095
2.0485
2.04118
2.02788
2.00475
1.9795
1.95355
1.92772
1.90412
1.88231
1.86251
1.84318
1.82511
1.80794
1.79244
1.77796
1.76461
1.75262
1.74162
1.7323
1.7245
1.71911
1.71563
1.71434
1.7144
1.71528
1.71795
1.72165
1.72639
1.72987
1.73277
1.73395
1.73493
1.73473
1.73379
1.73194
1.72917
1.7265
1.72381
1.7214
1.71928
1.71762
1.7166
1.71626
1.71633
1.71687
1.71817
1.72015
1.72348
1.72948
1.73545
1.74291
1.75172
1.75853
1.76719
1.77214
1.77653
1.77902
1.77852
1.77772
1.77578
1.77386
1.92846
1.98808
1.99802
1.99409
1.98093
1.96318
1.945
1.92815
1.9119
1.89702
1.88442
1.87966
1.88459
1.89901
1.92954
1.98353
2.07602
2.15286
2.17409
2.16836
2.15456
2.12987
2.10005
2.07365
2.05024
2.02941
2.00947
1.98998
1.97173
1.95269
1.93931
1.92515
1.91893
1.91442
1.91491
1.92019
1.93539
1.95998
1.98684
2.00062
2.0051
2.00074
1.99221
1.97708
1.9519
1.92552
1.90106
1.87884
1.85723
1.83674
1.81711
1.79985
1.78298
1.76794
1.75288
1.73983
1.72737
1.71697
1.70685
1.69911
1.69259
1.68874
1.68674
1.68681
1.6874
1.68922
1.69324
1.69756
1.70238
1.70543
1.70822
1.70919
1.71046
1.71034
1.70966
1.70825
1.70662
1.70526
1.70444
1.70462
1.7052
1.70636
1.7078
1.71068
1.71469
1.72108
1.72833
1.73535
1.74489
1.75251
1.76016
1.76612
1.76971
1.77195
1.77151
1.7705
1.76806
1.76424
1.76022
1.75751
1.79052
1.94162
1.97227
1.97583
1.97003
1.9563
1.93891
1.92234
1.90828
1.89684
1.89398
1.9008
1.91713
1.95051
2.01053
2.10204
2.17604
2.19664
2.19075
2.1752
2.14951
2.11911
2.09292
2.06874
2.04761
2.02746
2.00706
1.98785
1.96762
1.94818
1.93059
1.9132
1.90044
1.89148
1.88317
1.88258
1.88371
1.89171
1.90974
1.93132
1.95052
1.96175
1.95973
1.95354
1.9422
1.9235
1.90083
1.87693
1.85271
1.83042
1.81072
1.79282
1.77554
1.75851
1.74291
1.72809
1.71545
1.7029
1.69244
1.682
1.67406
1.66707
1.6629
1.66009
1.65991
1.66031
1.6618
1.66491
1.67026
1.67469
1.67963
1.68288
1.68585
1.68791
1.6889
1.69036
1.69082
1.69171
1.69273
1.69436
1.69673
1.70024
1.70526
1.7116
1.71944
1.72757
1.73705
1.74565
1.75311
1.75911
1.76253
1.76429
1.76382
1.76268
1.7601
1.75586
1.75134
1.74702
1.74281
1.74049
1.57705
1.8561
1.94245
1.95775
1.95743
1.94876
1.93448
1.9186
1.90682
1.90521
1.91409
1.93271
1.96982
2.03757
2.1302
2.19834
2.21731
2.21083
2.19422
2.16612
2.13665
2.11014
2.08646
2.06551
2.04449
2.02492
2.0043
1.98417
1.96405
1.94312
1.92486
1.9048
1.88854
1.87446
1.86121