/*--------------------------------*- C++ -*----------------------------------*\
  =========                 |
  \\      /  F ield         | OpenFOAM: The Open Source CFD Toolbox
   \\    /   O peration     | Website:  https://openfoam.org
    \\  /    A nd           | Version:  10
     \\/     M anipulation  |
\*---------------------------------------------------------------------------*/
FoamFile
{
    format      ascii;
    class       volVectorField;
    location    "4";
    object      U;
}
// * * * * * * * * * * * * * * * * * * * * * * * * * * * * * * * * * * * * * //

dimensions      [0 1 -1 0 0 0 0];

internalField   nonuniform List<vector> 
5250
(
(3 2.02169e-08 0)
(2.99999 6.01504e-08 0)
(2.99997 3.48339e-07 0)
(2.99991 6.34062e-07 0)
(2.99978 2.45783e-06 0)
(2.99946 4.1087e-06 0)
(2.99867 1.63631e-05 0)
(2.99671 2.30025e-05 0)
(2.99184 0.000100689 0)
(2.97965 0.000148469 0)
(2.94796 0.000545267 0)
(2.86134 0.00117538 0)
(2.60996 0.00347443 0)
(1.87348 0.00974499 0)
(0.870199 0.0265503 0)
(0.442607 0.0244278 0)
(0.534931 0.0244879 0)
(0.560024 0.0263381 0)
(0.505237 0.028206 0)
(0.414384 0.0300987 0)
(0.32956 0.0323227 0)
(0.260977 0.0348775 0)
(0.191833 0.0374987 0)
(0.114489 0.0404679 0)
(0.0498281 0.0444788 0)
(3 4.44739e-08 0)
(2.99999 2.17781e-07 0)
(2.99997 8.8128e-07 0)
(2.99991 2.17509e-06 0)
(2.99978 6.43806e-06 0)
(2.99947 1.43813e-05 0)
(2.99868 4.14827e-05 0)
(2.99678 8.73904e-05 0)
(2.99194 0.000255897 0)
(2.98002 0.000545668 0)
(2.94883 0.00152998 0)
(2.86373 0.00377121 0)
(2.61715 0.01062 0)
(1.89194 0.0302986 0)
(0.880941 0.0809119 0)
(0.439252 0.0705348 0)
(0.53497 0.0674425 0)
(0.561269 0.0704322 0)
(0.506191 0.0734852 0)
(0.415374 0.0766865 0)
(0.330539 0.0802241 0)
(0.261373 0.0840165 0)
(0.19121 0.0874118 0)
(0.112526 0.0905377 0)
(0.0472127 0.0932451 0)
(3 4.47808e-08 0)
(2.99999 4.32865e-07 0)
(2.99997 1.12724e-06 0)
(2.99992 4.21454e-06 0)
(2.99979 8.64536e-06 0)
(2.99949 2.7999e-05 0)
(2.99873 5.43746e-05 0)
(2.99689 0.000176625 0)
(2.99222 0.000340836 0)
(2.98071 0.00106533 0)
(2.95066 0.00232016 0)
(2.86888 0.00659793 0)
(2.63224 0.0176711 0)
(1.93354 0.0514228 0)
(0.906569 0.138788 0)
(0.436697 0.119851 0)
(0.538941 0.113351 0)
(0.568009 0.118522 0)
(0.512799 0.124296 0)
(0.422298 0.130959 0)
(0.33744 0.137659 0)
(0.267461 0.144581 0)
(0.195876 0.151061 0)
(0.115222 0.156694 0)
(0.0474998 0.16013 0)
(3 6.73109e-08 0)
(2.99999 5.69446e-07 0)
(2.99997 1.60834e-06 0)
(2.99992 5.54182e-06 0)
(2.9998 1.22308e-05 0)
(2.99951 3.67547e-05 0)
(2.9988 7.74677e-05 0)
(2.99702 0.000230361 0)
(2.99268 0.000484384 0)
(2.98167 0.00140568 0)
(2.95344 0.00321162 0)
(2.87657 0.00889353 0)
(2.65466 0.0240583 0)
(1.99757 0.0699487 0)
(0.94751 0.192708 0)
(0.437029 0.168551 0)
(0.547902 0.158755 0)
(0.58124 0.165918 0)
(0.526147 0.174564 0)
(0.436034 0.185295 0)
(0.350718 0.195666 0)
(0.279565 0.206298 0)
(0.206046 0.216653 0)
(0.122148 0.225589 0)
(0.0500588 0.230226 0)
(3 1.0717e-07 0)
(2.99999 5.94782e-07 0)
(2.99997 2.26137e-06 0)
(2.99993 5.79822e-06 0)
(2.99982 1.67774e-05 0)
(2.99955 3.89026e-05 0)
(2.99889 0.000108046 0)
(2.99723 0.000243367 0)
(2.9932 0.000667411 0)
(2.98298 0.0015448 0)
(2.95691 0.00409435 0)
(2.88631 0.0104265 0)
(2.68348 0.029079 0)
(2.08115 0.0839594 0)
(1.00568 0.238428 0)
(0.446262 0.218613 0)
(0.563828 0.206639 0)
(0.601927 0.214368 0)
(0.547189 0.224915 0)
(0.457495 0.239501 0)
(0.37106 0.253818 0)
(0.298166 0.268706 0)
(0.221917 0.283759 0)
(0.133268 0.297143 0)
(0.0547151 0.304034 0)
(3 1.00237e-07 0)
(2.99999 6.75555e-07 0)
(2.99997 2.19435e-06 0)
(2.99993 6.61396e-06 0)
(2.99983 1.64412e-05 0)
(2.99959 4.40803e-05 0)
(2.99898 0.000106529 0)
(2.99749 0.000274255 0)
(2.99377 0.000669442 0)
(2.98452 0.00170146 0)
(2.96085 0.00422526 0)
(2.89745 0.0111365 0)
(2.71656 0.0304093 0)
(2.1811 0.0881218 0)
(1.08825 0.257463 0)
(0.479888 0.263319 0)
(0.592434 0.257091 0)
(0.632692 0.265151 0)
(0.578287 0.276871 0)
(0.489015 0.295013 0)
(0.400678 0.313915 0)
(0.325143 0.334015 0)
(0.245283 0.355169 0)
(0.150222 0.375118 0)
(0.0624463 0.386703 0)
(3 8.95702e-08 0)
(2.99999 6.83817e-07 0)
(2.99998 2.0127e-06 0)
(2.99994 6.71074e-06 0)
(2.99985 1.51319e-05 0)
(2.99962 4.40808e-05 0)
(2.99908 9.56363e-05 0)
(2.9977 0.000269833 0)
(2.99439 0.000598367 0)
(2.98594 0.001627 0)
(2.9648 0.0038384 0)
(2.90815 0.0102569 0)
(2.74827 0.0273139 0)
(2.27776 0.0782863 0)
(1.18734 0.231554 0)
(0.52879 0.296373 0)
(0.624702 0.309711 0)
(0.664886 0.317379 0)
(0.613595 0.329907 0)
(0.527638 0.352026 0)
(0.438848 0.376672 0)
(0.361166 0.403394 0)
(0.277794 0.432648 0)
(0.175395 0.462597 0)
(0.0750754 0.483903 0)
(3 1.04672e-07 0)
(2.99999 5.62812e-07 0)
(2.99998 2.13605e-06 0)
(2.99994 5.52716e-06 0)
(2.99986 1.57833e-05 0)
(2.99966 3.62869e-05 0)
(2.99916 0.000100188 0)
(2.99791 0.000218929 0)
(2.9949 0.000615664 0)
(2.98722 0.00134187 0)
(2.96806 0.0036949 0)
(2.91695 0.00885447 0)
(2.77336 0.0242783 0)
(2.35036 0.0674877 0)
(1.29028 0.199358 0)
(0.575115 0.337032 0)
(0.639454 0.370717 0)
(0.67927 0.369184 0)
(0.640698 0.38189 0)
(0.565477 0.408367 0)
(0.48119 0.440786 0)
(0.40475 0.476382 0)
(0.320778 0.516796 0)
(0.212756 0.562309 0)
(0.0963721 0.604683 0)
(3 9.18075e-08 0)
(2.99999 5.79754e-07 0)
(2.99998 1.97628e-06 0)
(2.99995 5.64491e-06 0)
(2.99987 1.46379e-05 0)
(2.99969 3.70269e-05 0)
(2.99923 9.31358e-05 0)
(2.99813 0.000226221 0)
(2.99533 0.000571001 0)
(2.98851 0.00137914 0)
(2.97106 0.00348724 0)
(2.92521 0.0087783 0)
(2.79703 0.0233508 0)
(2.41965 0.0653249 0)
(1.42044 0.192315 0)
(0.655596 0.386747 0)
(0.647351 0.419241 0)
(0.677638 0.415402 0)
(0.660896 0.431961 0)
(0.601746 0.461657 0)
(0.526953 0.503398 0)
(0.455978 0.55042 0)
(0.376898 0.605365 0)
(0.270821 0.676618 0)
(0.134939 0.764075 0)
(3 9.22401e-08 0)
(2.99999 5.87196e-07 0)
(2.99998 2.05982e-06 0)
(2.99995 5.71963e-06 0)
(2.99989 1.5092e-05 0)
(2.99972 3.83472e-05 0)
(2.99932 9.23936e-05 0)
(2.99831 0.000240585 0)
(2.99586 0.000553979 0)
(2.98965 0.00147521 0)
(2.97423 0.00344602 0)
(2.93348 0.00906972 0)
(2.82045 0.0235598 0)
(2.48987 0.0660762 0)
(1.57411 0.193025 0)
(0.756475 0.434983 0)
(0.654618 0.451557 0)
(0.682783 0.453741 0)
(0.680888 0.476803 0)
(0.637693 0.510736 0)
(0.577479 0.560987 0)
(0.516555 0.620216 0)
(0.452561 0.696711 0)
(0.3669 0.813226 0)
(0.207662 1.02392 0)
(3 1.06558e-07 0)
(2.99999 5.61278e-07 0)
(2.99998 2.21808e-06 0)
(2.99996 5.5108e-06 0)
(2.9999 1.63684e-05 0)
(2.99976 3.68301e-05 0)
(2.9994 0.000102815 0)
(2.99851 0.000227573 0)
(2.99635 0.00062605 0)
(2.99092 0.00140676 0)
(2.97738 0.00379125 0)
(2.94203 0.00907531 0)
(2.84433 0.0246096 0)
(2.56119 0.0675718 0)
(1.74863 0.196956 0)
(0.876006 0.483301 0)
(0.663968 0.485781 0)
(0.695143 0.488417 0)
(0.706213 0.513345 0)
(0.676942 0.553306 0)
(0.633046 0.6093 0)
(0.591088 0.680069 0)
(0.561881 0.777133 0)
(0.561628 0.925425 0)
(0.60364 1.17603 0)
(3 9.10713e-08 0)
(2.99999 6.30373e-07 0)
(2.99999 2.01203e-06 0)
(2.99997 6.16626e-06 0)
(2.99991 1.51899e-05 0)
(2.99979 4.06985e-05 0)
(2.99948 9.72962e-05 0)
(2.99874 0.000250278 0)
(2.99684 0.000602131 0)
(2.99229 0.00152798 0)
(2.98062 0.00374542 0)
(2.95084 0.0095802 0)
(2.86922 0.0248803 0)
(2.63393 0.0691704 0)
(1.94522 0.200018 0)
(1.01794 0.526423 0)
(0.684173 0.523981 0)
(0.716433 0.524691 0)
(0.738687 0.544645 0)
(0.722073 0.58822 0)
(0.694273 0.647787 0)
(0.675279 0.7263 0)
(0.682631 0.832305 0)
(0.745637 0.97833 0)
(0.901022 1.17011 0)
(3 8.95651e-08 0)
(3 6.01665e-07 0)
(2.99999 2.00402e-06 0)
(2.99997 5.87953e-06 0)
(2.99993 1.4913e-05 0)
(2.99982 3.94587e-05 0)
(2.99957 9.38289e-05 0)
(2.99893 0.000247891 0)
(2.99742 0.000576439 0)
(2.99354 0.00153385 0)
(2.98409 0.00360828 0)
(2.95963 0.00951185 0)
(2.89416 0.0241996 0)
(2.70788 0.0672363 0)
(2.15702 0.194221 0)
(1.19163 0.544185 0)
(0.7357 0.566201 0)
(0.754883 0.571085 0)
(0.781614 0.578552 0)
(0.776373 0.618677 0)
(0.761344 0.678655 0)
(0.762383 0.757198 0)
(0.795733 0.858024 0)
(0.88591 0.980508 0)
(1.06424 1.10157 0)
(3 8.63007e-08 0)
(3 5.07625e-07 0)
(2.99999 1.85007e-06 0)
(2.99998 4.95647e-06 0)
(2.99994 1.36618e-05 0)
(2.99986 3.29876e-05 0)
(2.99965 8.61425e-05 0)
(2.99914 0.000204792 0)
(2.99792 0.000525763 0)
(2.99482 0.00126337 0)
(2.98727 0.00320448 0)
(2.96802 0.00791841 0)
(2.91741 0.0204712 0)
(2.77687 0.0551016 0)
(2.36713 0.157456 0)
(1.41171 0.465374 0)
(0.837142 0.589747 0)
(0.814826 0.614459 0)
(0.832676 0.620638 0)
(0.839338 0.650614 0)
(0.833375 0.7045 0)
(0.84588 0.775583 0)
(0.892865 0.861602 0)
(0.989386 0.95674 0)
(1.15832 1.03427 0)
(3 6.96437e-08 0)
(3 4.37302e-07 0)
(2.99999 1.48019e-06 0)
(2.99998 4.27709e-06 0)
(2.99995 1.09969e-05 0)
(2.99988 2.79495e-05 0)
(2.99972 6.97916e-05 0)
(2.9993 0.000168566 0)
(2.9983 0.000428463 0)
(2.99577 0.00100603 0)
(2.98964 0.00260567 0)
(2.97401 0.00618584 0)
(2.93346 0.0160409 0)
(2.82137 0.0416066 0)
(2.49648 0.115926 0)
(1.62773 0.34444 0)
(0.935426 0.623937 0)
(0.855833 0.6563 0)
(0.872271 0.668141 0)
(0.892247 0.684894 0)
(0.899987 0.727584 0)
(0.920979 0.787053 0)
(0.97351 0.856307 0)
(1.06766 0.927834 0)
(1.21868 0.981079 0)
(3 5.89409e-08 0)
(3 3.85471e-07 0)
(2.99999 1.27569e-06 0)
(2.99998 3.7563e-06 0)
(2.99996 9.49642e-06 0)
(2.99991 2.45069e-05 0)
(2.99977 6.01311e-05 0)
(2.99944 0.000148719 0)
(2.99861 0.000369532 0)
(2.99663 0.000890289 0)
(2.99159 0.00225621 0)
(2.97919 0.00545121 0)
(2.94689 0.0139403 0)
(2.85872 0.036072 0)
(2.60569 0.0995641 0)
(1.88151 0.290235 0)
(1.08573 0.66576 0)
(0.886158 0.69192 0)
(0.89929 0.70451 0)
(0.93022 0.712695 0)
(0.955655 0.745622 0)
(0.985344 0.79426 0)
(1.03995 0.849236 0)
(1.12872 0.902789 0)
(1.26123 0.940855 0)
(3 5.10677e-08 0)
(3 3.33345e-07 0)
(3 1.13482e-06 0)
(2.99999 3.25118e-06 0)
(2.99997 8.43237e-06 0)
(2.99993 2.16032e-05 0)
(2.99982 5.27176e-05 0)
(2.99956 0.000134623 0)
(2.99892 0.000319858 0)
(2.99734 0.00082866 0)
(2.99344 0.00195172 0)
(2.98374 0.00508221 0)
(2.95897 0.0123591 0)
(2.89231 0.0327517 0)
(2.70358 0.0889306 0)
(2.14711 0.258087 0)
(1.28129 0.680041 0)
(0.93718 0.723853 0)
(0.934045 0.732811 0)
(0.96651 0.736429 0)
(1.00512 0.758145 0)
(1.04158 0.797461 0)
(1.09595 0.841847 0)
(1.17805 0.882765 0)
(1.29385 0.910593 0)
(3 4.49782e-08 0)
(3 2.64718e-07 0)
(3 9.6766e-07 0)
(2.99999 2.59164e-06 0)
(2.99998 7.15891e-06 0)
(2.99994 1.73274e-05 0)
(2.99987 4.46438e-05 0)
(2.99967 0.0001076 0)
(2.99919 0.000269959 0)
(2.99799 0.000661917 0)
(2.99513 0.00162957 0)
(2.98786 0.0040753 0)
(2.96992 0.0100733 0)
(2.92264 0.0259684 0)
(2.79265 0.0696504 0)
(2.4164 0.198891 0)
(1.55113 0.575834 0)
(1.04807 0.731075 0)
(0.994154 0.755436 0)
(1.01209 0.764285 0)
(1.05367 0.773838 0)
(1.09499 0.80182 0)
(1.14667 0.836402 0)
(1.22067 0.86775 0)
(1.32147 0.888173 0)
(3 3.41029e-08 0)
(3 2.1302e-07 0)
(3 7.35204e-07 0)
(2.99999 2.07391e-06 0)
(2.99998 5.4446e-06 0)
(2.99996 1.36392e-05 0)
(2.9999 3.41173e-05 0)
(2.99975 8.30793e-05 0)
(2.99938 0.000206348 0)
(2.99848 0.000499283 0)
(2.99629 0.00123936 0)
(2.99078 0.00301155 0)
(2.97719 0.00749829 0)
(2.94191 0.0187176 0)
(2.84569 0.0489041 0)
(2.57097 0.134465 0)
(1.82219 0.399898 0)
(1.16874 0.73643 0)
(1.04295 0.776278 0)
(1.05071 0.793519 0)
(1.09195 0.795811 0)
(1.14011 0.810768 0)
(1.19121 0.835143 0)
(1.25819 0.858257 0)
(1.34628 0.872739 0)
(3 2.72925e-08 0)
(3 1.71363e-07 0)
(3 5.87733e-07 0)
(2.99999 1.67378e-06 0)
(2.99999 4.35327e-06 0)
(2.99997 1.10301e-05 0)
(2.99992 2.74682e-05 0)
(2.99981 6.73469e-05 0)
(2.99954 0.000167432 0)
(2.99885 0.000405888 0)
(2.99722 0.00101569 0)
(2.99308 0.00245859 0)
(2.983 0.0061956 0)
(2.95695 0.0153378 0)
(2.8873 0.0399473 0)
(2.69008 0.108561 0)
(2.11521 0.316641 0)
(1.35049 0.755603 0)
(1.09258 0.808117 0)
(1.08586 0.82067 0)
(1.12154 0.819279 0)
(1.17569 0.821259 0)
(1.2293 0.836306 0)
(1.2913 0.85273 0)
(1.36905 0.862618 0)
(3 2.15567e-08 0)
(3 1.34759e-07 0)
(3 4.62666e-07 0)
(3 1.31349e-06 0)
(2.99999 3.43681e-06 0)
(2.99998 8.61177e-06 0)
(2.99994 2.17546e-05 0)
(2.99986 5.23438e-05 0)
(2.99966 0.000132823 0)
(2.99918 0.000315235 0)
(2.998 0.000806269 0)
(2.9951 0.00190577 0)
(2.98793 0.00489956 0)
(2.96998 0.0118421 0)
(2.92306 0.0308701 0)
(2.79493 0.0820456 0)
(2.42189 0.235551 0)
(1.62776 0.651743 0)
(1.19782 0.809948 0)
(1.14199 0.835257 0)
(1.15894 0.841618 0)
(1.20939 0.836176 0)
(1.26523 0.841082 0)
(1.32282 0.850748 0)
(1.39151 0.856566 0)
(3 1.53057e-08 0)
(3 1.03625e-07 0)
(3 3.36243e-07 0)
(3 1.00822e-06 0)
(2.99999 2.48996e-06 0)
(2.99998 6.60043e-06 0)
(2.99996 1.55974e-05 0)
(2.9999 3.99517e-05 0)
(2.99976 9.45115e-05 0)
(2.99941 0.000237633 0)
(2.99855 0.000569934 0)
(2.99649 0.00141093 0)
(2.99128 0.00344532 0)
(2.97856 0.00850854 0)
(2.94563 0.0212716 0)
(2.85686 0.0554183 0)
(2.60504 0.152087 0)
(1.92603 0.448359 0)
(1.32875 0.79716 0)
(1.1952 0.845766 0)
(1.19581 0.864486 0)
(1.23737 0.859204 0)
(1.29497 0.851991 0)
(1.35133 0.853129 0)
(1.41349 0.854637 0)
(3 1.21228e-08 0)
(3 7.50522e-08 0)
(3 2.62354e-07 0)
(3 7.30335e-07 0)
(3 1.93713e-06 0)
(2.99999 4.82094e-06 0)
(2.99997 1.20669e-05 0)
(2.99993 2.95633e-05 0)
(2.99983 7.26066e-05 0)
(2.99958 0.000177883 0)
(2.99898 0.000434897 0)
(2.99749 0.00107201 0)
(2.99384 0.00261589 0)
(2.98481 0.00649595 0)
(2.96196 0.0161284 0)
(2.90124 0.041453 0)
(2.73221 0.111745 0)
(2.23951 0.324669 0)
(1.53139 0.771725 0)
(1.26138 0.86351 0)
(1.23721 0.882921 0)
(1.26129 0.882008 0)
(1.31564 0.868403 0)
(1.37492 0.860999 0)
(1.43419 0.857508 0)
(3 8.97942e-09 0)
(3 5.52877e-08 0)
(3 1.93784e-07 0)
(3 5.37371e-07 0)
(3 1.43014e-06 0)
(2.99999 3.53371e-06 0)
(2.99998 8.93507e-06 0)
(2.99995 2.16009e-05 0)
(2.99988 5.38569e-05 0)
(2.99971 0.000129956 0)
(2.99929 0.000322188 0)
(2.9983 0.000782865 0)
(2.9958 0.00193135 0)
(2.98982 0.00473899 0)
(2.97467 0.0117971 0)
(2.93595 0.0297393 0)
(2.83155 0.0788863 0)
(2.52999 0.222833 0)
(1.82967 0.620257 0)
(1.37993 0.854611 0)
(1.2946 0.887908 0)
(1.29747 0.898822 0)
(1.33928 0.887105 0)
(1.39689 0.87196 0)
(1.45398 0.863548 0)
(3 6.33264e-09 0)
(3 4.00076e-08 0)
(3 1.38105e-07 0)
(3 3.89762e-07 0)
(3 1.01713e-06 0)
(2.99999 2.56921e-06 0)
(2.99999 6.29163e-06 0)
(2.99997 1.56531e-05 0)
(2.99992 3.75956e-05 0)
(2.9998 9.4054e-05 0)
(2.99952 0.000223024 0)
(2.99883 0.000562109 0)
(2.99714 0.00132699 0)
(2.99303 0.00335979 0)
(2.98274 0.00804328 0)
(2.95687 0.0203888 0)
(2.88809 0.0518564 0)
(2.69512 0.141179 0)
(2.15425 0.411307 0)
(1.54361 0.833974 0)
(1.35137 0.900836 0)
(1.33466 0.91413 0)
(1.35972 0.906608 0)
(1.41377 0.886405 0)
(1.47195 0.871805 0)
(3 4.56347e-09 0)
(3 2.7787e-08 0)
(3 9.84601e-08 0)
(3 2.70063e-07 0)
(3 7.24723e-07 0)
(3 1.78074e-06 0)
(2.99999 4.4792e-06 0)
(2.99998 1.08645e-05 0)
(2.99995 2.67082e-05 0)
(2.99987 6.53154e-05 0)
(2.99968 0.000158227 0)
(2.99922 0.000390268 0)
(2.99813 0.000939866 0)
(2.99541 0.00233979 0)
(2.98883 0.00564045 0)
(2.97231 0.0141918 0)
(2.93004 0.0354987 0)
(2.81569 0.0947157 0)
(2.48524 0.269918 0)
(1.81836 0.697087 0)
(1.4528 0.882501 0)
(1.3878 0.913271 0)
(1.39168 0.92027 0)
(1.43322 0.904033 0)
(1.4894 0.881602 0)
(3 3.18498e-09 0)
(3 1.89661e-08 0)
(3 6.79293e-08 0)
(3 1.84373e-07 0)
(3 4.9776e-07 0)
(3 1.207e-06 0)
(2.99999 3.08754e-06 0)
(2.99999 7.29705e-06 0)
(2.99996 1.843e-05 0)
(2.99991 4.34221e-05 0)
(2.99979 0.000108814 0)
(2.99948 0.000258205 0)
(2.99876 0.000640497 0)
(2.99695 0.00153607 0)
(2.99261 0.0037908 0)
(2.98171 0.00924226 0)
(2.95445 0.0230235 0)
(2.88181 0.0590761 0)
(2.67863 0.160664 0)
(2.13214 0.459606 0)
(1.59454 0.847772 0)
(1.44209 0.915049 0)
(1.42672 0.930083 0)
(1.45027 0.922333 0)
(1.50144 0.897224 0)
(3 2.12044e-09 0)
(3 1.30749e-08 0)
(3 4.55229e-08 0)
(3 1.26905e-07 0)
(3 3.34691e-07 0)
(3 8.28695e-07 0)
(3 2.07988e-06 0)
(2.99999 4.99495e-06 0)
(2.99998 1.24451e-05 0)
(2.99994 2.96428e-05 0)
(2.99986 7.37416e-05 0)
(2.99967 0.000175918 0)
(2.9992 0.000434862 0)
(2.99804 0.00104672 0)
(2.99525 0.00257658 0)
(2.98832 0.00627885 0)
(2.97124 0.0155463 0)
(2.92711 0.0392029 0)
(2.80772 0.103816 0)
(2.46414 0.296049 0)
(1.84472 0.727002 0)
(1.52934 0.898613 0)
(1.47266 0.929723 0)
(1.4765 0.93621 0)
(1.51549 0.918251 0)
(3 1.34558e-09 0)
(3 8.9863e-09 0)
(3 2.94751e-08 0)
(3 8.70713e-08 0)
(3 2.17307e-07 0)
(3 5.66184e-07 0)
(3 1.34861e-06 0)
(2.99999 3.40612e-06 0)
(2.99998 8.08166e-06 0)
(2.99996 2.01037e-05 0)
(2.99991 4.80215e-05 0)
(2.99978 0.000118049 0)
(2.99949 0.000285456 0)
(2.99873 0.000692995 0)
(2.99697 0.00169753 0)
(2.99251 0.00410086 0)
(2.98182 0.0101874 0)
(2.95441 0.0250762 0)
(2.8826 0.0648662 0)
(2.681 0.176642 0)
(2.15647 0.497027 0)
(1.66833 0.862177 0)
(1.52693 0.930994 0)
(1.50941 0.945907 0)
(1.52867 0.938182 0)
(3 9.27526e-10 0)
(3 5.85602e-09 0)
(3 1.9983e-08 0)
(3 5.68079e-08 0)
(3 1.46496e-07 0)
(3 3.69634e-07 0)
(3 9.07464e-07 0)
(3 2.21839e-06 0)
(2.99999 5.41651e-06 0)
(2.99998 1.3082e-05 0)
(2.99994 3.20614e-05 0)
(2.99987 7.68192e-05 0)
(2.99967 0.000189535 0)
(2.99921 0.000451485 0)
(2.99809 0.00111892 0)
(2.99539 0.00267313 0)
(2.9887 0.00663445 0)
(2.97229 0.0161749 0)
(2.93013 0.040876 0)
(2.81681 0.107731 0)
(2.49278 0.306242 0)
(1.9155 0.72973 0)
(1.6141 0.90872 0)
(1.55434 0.942599 0)
(1.55359 0.949652 0)
(3 6.22801e-10 0)
(3 3.72936e-09 0)
(3 1.33316e-08 0)
(3 3.60891e-08 0)
(3 9.74567e-08 0)
(3 2.35458e-07 0)
(3 5.99165e-07 0)
(3 1.4187e-06 0)
(2.99999 3.54258e-06 0)
(2.99999 8.40288e-06 0)
(2.99997 2.07447e-05 0)
(2.99992 4.96571e-05 0)
(2.9998 0.000121092 0)
(2.99951 0.000293068 0)
(2.99882 0.000707646 0)
(2.99711 0.00173353 0)
(2.99305 0.00416236 0)
(2.98284 0.0103326 0)
(2.95764 0.0252764 0)
(2.89125 0.0650419 0)
(2.70615 0.176134 0)
(2.227 0.488461 0)
(1.75644 0.864617 0)
(1.60851 0.940263 0)
(1.58595 0.956041 0)
(3 3.80654e-10 0)
(3 2.44978e-09 0)
(3 8.24246e-09 0)
(3 2.37204e-08 0)
(3 6.04878e-08 0)
(3 1.53764e-07 0)
(3 3.7378e-07 0)
(3 9.18441e-07 0)
(3 2.22309e-06 0)
(2.99999 5.38097e-06 0)
(2.99998 1.31153e-05 0)
(2.99995 3.14136e-05 0)
(2.99988 7.70487e-05 0)
(2.9997 0.000183422 0)
(2.99929 0.000452125 0)
(2.99827 0.00107387 0)
(2.99586 0.00265623 0)
(2.98986 0.00636307 0)
(2.97536 0.0158292 0)
(2.93836 0.0392715 0)
(2.84049 0.103266 0)
(2.56246 0.290679 0)
(2.01765 0.700344 0)
(1.70318 0.9038 0)
(1.63403 0.946395 0)
(3 2.33399e-10 0)
(3 1.54513e-09 0)
(3 5.09711e-09 0)
(3 1.4923e-08 0)
(3 3.73693e-08 0)
(3 9.64317e-08 0)
(3 2.30011e-07 0)
(3 5.74999e-07 0)
(3 1.36333e-06 0)
(2.99999 3.35635e-06 0)
(2.99999 8.00711e-06 0)
(2.99997 1.94886e-05 0)
(2.99992 4.69756e-05 0)
(2.99982 0.000112748 0)
(2.99956 0.000275001 0)
(2.99894 0.000652906 0)
(2.99746 0.00161029 0)
(2.9938 0.00380141 0)
(2.98497 0.00946997 0)
(2.9628 0.022795 0)
(2.90549 0.0582502 0)
(2.74841 0.154575 0)
(2.32842 0.427234 0)
(1.85719 0.825542 0)
(1.68926 0.929899 0)
(3 1.45676e-10 0)
(3 9.54671e-10 0)
(3 3.19709e-09 0)
(3 9.21561e-09 0)
(3 2.3387e-08 0)
(3 5.97651e-08 0)
(3 1.43038e-07 0)
(3 3.58112e-07 0)
(3 8.42618e-07 0)
(3 2.09983e-06 0)
(2.99999 4.92667e-06 0)
(2.99998 1.22276e-05 0)
(2.99995 2.88234e-05 0)
(2.99989 7.09302e-05 0)
(2.99974 0.000169017 0)
(2.99938 0.000410679 0)
(2.99848 0.000992462 0)
(2.9964 0.00238814 0)
(2.99117 0.00585542 0)
(2.97866 0.0141782 0)
(2.94679 0.0354959 0)
(2.86362 0.0913854 0)
(2.62815 0.253367 0)
(2.12752 0.639079 0)
(1.79302 0.890076 0)
(3 9.42839e-11 0)
(3 5.6752e-10 0)
(3 2.01438e-09 0)
(3 5.49346e-09 0)
(3 1.46662e-08 0)
(3 3.56778e-08 0)
(3 8.94485e-08 0)
(3 2.1317e-07 0)
(3 5.2401e-07 0)
(3 1.25225e-06 0)
(3 3.03422e-06 0)
(2.99999 7.31897e-06 0)
(2.99997 1.75298e-05 0)
(2.99994 4.27212e-05 0)
(2.99985 0.000101107 0)
(2.99963 0.000248897 0)
(2.99911 0.000585035 0)
(2.99785 0.0014481 0)
(2.99479 0.003402 0)
(2.98741 0.00847556 0)
(2.96903 0.0203032 0)
(2.92223 0.0515553 0)
(2.79602 0.134885 0)
(2.44994 0.375692 0)
(1.98148 0.776526 0)
(3 5.66433e-11 0)
(3 3.50212e-10 0)
(3 1.20874e-09 0)
(3 3.38381e-09 0)
(3 8.83219e-09 0)
(3 2.18077e-08 0)
(3 5.42761e-08 0)
(3 1.29105e-07 0)
(3 3.20221e-07 0)
(3 7.52321e-07 0)
(3 1.86569e-06 0)
(2.99999 4.37202e-06 0)
(2.99998 1.08227e-05 0)
(2.99996 2.54589e-05 0)
(2.99991 6.25609e-05 0)
(2.99978 0.000148592 0)
(2.99948 0.000361449 0)
(2.99875 0.000868027 0)
(2.99702 0.00209407 0)
(2.99272 0.00509995 0)
(2.98244 0.0123425 0)
(2.95658 0.0306373 0)
(2.88968 0.0778878 0)
(2.70338 0.21202 0)
(2.2668 0.553147 0)
(3 3.25136e-11 0)
(3 2.12429e-10 0)
(3 7.11385e-10 0)
(3 2.04838e-09 0)
(3 5.19083e-09 0)
(3 1.32429e-08 0)
(3 3.16261e-08 0)
(3 7.87931e-08 0)
(3 1.85317e-07 0)
(3 4.58412e-07 0)
(3 1.07861e-06 0)
(3 2.64972e-06 0)
(2.99999 6.26341e-06 0)
(2.99998 1.52723e-05 0)
(2.99995 3.64294e-05 0)
(2.99988 8.78749e-05 0)
(2.99971 0.000211694 0)
(2.9993 0.000505577 0)
(2.99831 0.00123286 0)
(2.99595 0.0029226 0)
(2.99026 0.00720124 0)
(2.9763 0.0172885 0)
(2.94144 0.0433817 0)
(2.85003 0.112033 0)
(2.59531 0.311167 0)
(3 1.95426e-11 0)
(3 1.2342e-10 0)
(3 4.23541e-10 0)
(3 1.18991e-09 0)
(3 3.08208e-09 0)
(3 7.68091e-09 0)
(3 1.87257e-08 0)
(3 4.56462e-08 0)
(3 1.09041e-07 0)
(3 2.65495e-07 0)
(3 6.29728e-07 0)
(3 1.53452e-06 0)
(2.99999 3.62771e-06 0)
(2.99999 8.82824e-06 0)
(2.99997 2.09325e-05 0)
(2.99993 5.06763e-05 0)
(2.99983 0.000120512 0)
(2.9996 0.000290591 0)
(2.99903 0.000694512 0)
(2.99769 0.00166563 0)
(2.9944 0.00400817 0)
(2.98654 0.00965215 0)
(2.96696 0.0235499 0)
(2.91736 0.0587335 0)
(2.78322 0.154861 0)
(3 1.16239e-11 0)
(3 7.18774e-11 0)
(3 2.49001e-10 0)
(3 6.9266e-10 0)
(3 1.81227e-09 0)
(3 4.45358e-09 0)
(3 1.10515e-08 0)
(3 2.62889e-08 0)
(3 6.45544e-08 0)
(3 1.52349e-07 0)
(3 3.72866e-07 0)
(3 8.79446e-07 0)
(3 2.14279e-06 0)
(2.99999 5.08096e-06 0)
(2.99998 1.22959e-05 0)
(2.99996 2.93172e-05 0)
(2.99991 7.05176e-05 0)
(2.99977 0.000169387 0)
(2.99946 0.000404459 0)
(2.99871 0.000977852 0)
(2.99691 0.00233022 0)
(2.99254 0.00567969 0)
(2.98199 0.0136506 0)
(2.95581 0.0338043 0)
(2.88816 0.0856325 0)
(3 6.60482e-12 0)
(3 4.15611e-11 0)
(3 1.43441e-10 0)
(3 3.99753e-10 0)
(3 1.04246e-09 0)
(3 2.57176e-09 0)
(3 6.30779e-09 0)
(3 1.52431e-08 0)
(3 3.656e-08 0)
(3 8.85605e-08 0)
(3 2.09456e-07 0)
(3 5.10936e-07 0)
(3 1.20058e-06 0)
(3 2.93499e-06 0)
(2.99999 6.87708e-06 0)
(2.99998 1.68294e-05 0)
(2.99995 3.94774e-05 0)
(2.99987 9.61976e-05 0)
(2.9997 0.000226814 0)
(2.99929 0.000549359 0)
(2.99832 0.00130625 0)
(2.99596 0.00314698 0)
(2.99033 0.00756541 0)
(2.97658 0.0183826 0)
(2.94255 0.0453471 0)
(3 3.75026e-12 0)
(3 2.39075e-11 0)
(3 8.06458e-11 0)
(3 2.30305e-10 0)
(3 5.85476e-10 0)
(3 1.47281e-09 0)
(3 3.56405e-09 0)
(3 8.62347e-09 0)
(3 2.07818e-08 0)
(3 4.94737e-08 0)
(3 1.19837e-07 0)
(3 2.82114e-07 0)
(3 6.87783e-07 0)
(3 1.60826e-06 0)
(2.99999 3.93351e-06 0)
(2.99999 9.17714e-06 0)
(2.99997 2.24181e-05 0)
(2.99993 5.24169e-05 0)
(2.99984 0.000127427 0)
(2.99961 0.000299627 0)
(2.99907 0.000722856 0)
(2.99776 0.0017148 0)
(2.99467 0.00411392 0)
(2.98709 0.00988513 0)
(2.96875 0.0239216 0)
(3 2.06297e-12 0)
(3 1.35727e-11 0)
(3 4.50322e-11 0)
(3 1.30366e-10 0)
(3 3.27343e-10 0)
(3 8.33791e-10 0)
(3 1.98314e-09 0)
(3 4.89138e-09 0)
(3 1.15195e-08 0)
(3 2.80511e-08 0)
(3 6.63452e-08 0)
(3 1.5964e-07 0)
(3 3.8055e-07 0)
(3 9.07695e-07 0)
(3 2.18297e-06 0)
(2.99999 5.14997e-06 0)
(2.99998 1.24995e-05 0)
(2.99996 2.931e-05 0)
(2.99991 7.1391e-05 0)
(2.99979 0.000166968 0)
(2.99949 0.000407377 0)
(2.99878 0.00095432 0)
(2.99713 0.00232635 0)
(2.99305 0.00549488 0)
(2.98342 0.0134517 0)
(3 1.15763e-12 0)
(3 7.33992e-12 0)
(3 2.5248e-11 0)
(3 7.0401e-11 0)
(3 1.83016e-10 0)
(3 4.51994e-10 0)
(3 1.10026e-09 0)
(3 2.66422e-09 0)
(3 6.32577e-09 0)
(3 1.53407e-08 0)
(3 3.60642e-08 0)
(3 8.76801e-08 0)
(3 2.0498e-07 0)
(3 4.99366e-07 0)
(3 1.16727e-06 0)
(3 2.83553e-06 0)
(2.99999 6.64638e-06 0)
(2.99998 1.60813e-05 0)
(2.99995 3.79308e-05 0)
(2.99989 9.09379e-05 0)
(2.99973 0.000216589 0)
(2.99936 0.00051461 0)
(2.99845 0.00123886 0)
(2.99635 0.0029226 0)
(2.99119 0.00711633 0)
(3 6.32064e-13 0)
(3 3.9379e-12 0)
(3 1.35878e-11 0)
(3 3.75955e-11 0)
(3 9.82227e-11 0)
(3 2.39837e-10 0)
(3 5.90575e-10 0)
(3 1.40058e-09 0)
(3 3.39582e-09 0)
(3 7.98972e-09 0)
(3 1.92716e-08 0)
(3 4.53597e-08 0)
(3 1.08847e-07 0)
(3 2.56545e-07 0)
(3 6.13377e-07 0)
(3 1.45196e-06 0)
(3 3.44686e-06 0)
(2.99999 8.19085e-06 0)
(2.99997 1.93612e-05 0)
(2.99994 4.61829e-05 0)
(2.99985 0.000108444 0)
(2.99964 0.000259595 0)
(2.99914 0.000607925 0)
(2.99795 0.00145725 0)
(2.99511 0.00341394 0)
(3 3.27097e-13 0)
(3 2.07625e-12 0)
(3 6.89125e-12 0)
(3 1.96297e-11 0)
(3 4.97131e-11 0)
(3 1.24346e-10 0)
(3 2.9802e-10 0)
(3 7.18116e-10 0)
(3 1.70381e-09 0)
(3 4.04328e-09 0)
(3 9.59529e-09 0)
(3 2.25569e-08 0)
(3 5.37708e-08 0)
(3 1.25258e-07 0)
(3 2.9987e-07 0)
(3 6.94063e-07 0)
(3 1.6634e-06 0)
(2.99999 3.84104e-06 0)
(2.99998 9.15605e-06 0)
(2.99996 2.12474e-05 0)
(2.9999 5.00678e-05 0)
(2.99977 0.000116782 0)
(2.99945 0.000272395 0)
(2.99869 0.000638753 0)
(2.99683 0.00147281 0)
(3 1.60259e-13 0)
(3 9.91235e-13 0)
(3 3.46622e-12 0)
(3 9.6095e-12 0)
(3 2.47043e-11 0)
(3 6.0607e-11 0)
(3 1.47295e-10 0)
(3 3.43965e-10 0)
(3 8.33641e-10 0)
(3 1.89845e-09 0)
(3 4.63065e-09 0)
(3 1.0396e-08 0)
(3 2.53677e-08 0)
(3 5.67845e-08 0)
(3 1.37551e-07 0)
(3 3.08909e-07 0)
(3 7.37284e-07 0)
(2.99999 1.67431e-06 0)
(2.99999 3.90221e-06 0)
(2.99997 9.01276e-06 0)
(2.99993 2.03748e-05 0)
(2.99982 4.79964e-05 0)
(2.99957 0.00010493 0)
(2.99895 0.000251348 0)
(2.99748 0.000532552 0)
(3 5.79983e-14 0)
(3 4.87203e-13 0)
(3 1.55258e-12 0)
(3 4.68718e-12 0)
(3 1.11735e-11 0)
(3 2.92216e-11 0)
(3 6.54063e-11 0)
(3 1.64761e-10 0)
(3 3.64311e-10 0)
(3 8.94015e-10 0)
(3 2.00146e-09 0)
(3 4.76128e-09 0)
(3 1.08996e-08 0)
(3 2.49734e-08 0)
(3 5.90635e-08 0)
(3 1.29144e-07 0)
(3 3.16691e-07 0)
(3 6.58931e-07 0)
(2.99999 1.66963e-06 0)
(2.99997 3.3254e-06 0)
(2.99994 8.61658e-06 0)
(2.99984 1.66614e-05 0)
(2.99962 4.31197e-05 0)
(2.99905 8.28628e-05 0)
(2.99769 0.000208691 0)
(3 3.56399e-14 0)
(3 2.08848e-13 0)
(3 6.69357e-13 0)
(3 1.97756e-12 0)
(3 5.1013e-12 0)
(3 1.22801e-11 0)
(3 2.95444e-11 0)
(3 7.01488e-11 0)
(3 1.56604e-10 0)
(3 3.90932e-10 0)
(3 8.01237e-10 0)
(3 2.14439e-09 0)
(3 4.05835e-09 0)
(3 1.14277e-08 0)
(3 2.07242e-08 0)
(3 5.90582e-08 0)
(3 1.06006e-07 0)
(3 2.95297e-07 0)
(2.99999 5.41954e-07 0)
(2.99998 1.42164e-06 0)
(2.99994 2.80466e-06 0)
(2.99985 6.43602e-06 0)
(2.99963 1.4596e-05 0)
(2.99909 2.70216e-05 0)
(2.99774 7.64529e-05 0)
(3 2.16888e-14 0)
(3 8.20255e-14 0)
(3 3.67474e-13 0)
(3 8.95656e-13 0)
(3 2.19425e-12 0)
(3 5.14389e-12 0)
(3 1.16908e-11 0)
(3 2.75484e-11 0)
(3 6.03122e-11 0)
(3 1.4522e-10 0)
(3 3.05472e-10 0)
(3 7.58361e-10 0)
(3 1.5216e-09 0)
(3 3.88999e-09 0)
(3 7.39446e-09 0)
(3 1.95001e-08 0)
(3 3.65681e-08 0)
(3 9.27772e-08 0)
(2.99999 1.88117e-07 0)
(2.99998 4.15934e-07 0)
(2.99994 9.60515e-07 0)
(2.99985 1.77123e-06 0)
(2.99963 4.94453e-06 0)
(2.9991 6.75768e-06 0)
(2.99775 2.39881e-05 0)
(3 1.44148e-14 0)
(3 4.35034e-14 0)
(3 1.86462e-13 0)
(3 3.8116e-13 0)
(3 5.60369e-13 0)
(3 1.79824e-12 0)
(3 2.29436e-12 0)
(3 8.04868e-12 0)
(3 1.38826e-11 0)
(3 3.13812e-11 0)
(3 9.11191e-11 0)
(3 1.00032e-10 0)
(3 5.74388e-10 0)
(3 2.12988e-10 0)
(3 3.33235e-09 0)
(3 -4.31567e-10 0)
(3 1.93308e-08 0)
(3 -9.09715e-09 0)
(2.99999 1.08007e-07 0)
(2.99998 -6.46679e-08 0)
(2.99994 5.28734e-07 0)
(2.99985 -2.85118e-07 0)
(2.99963 2.30728e-06 0)
(2.9991 -4.50016e-07 0)
(2.99776 6.70837e-06 0)
(1.27787 1.08118 0)
(1.68918 0.88127 0)
(1.87298 0.617584 0)
(1.90047 0.354456 0)
(1.85099 0.135219 0)
(1.75679 -0.00891036 0)
(1.65973 -0.0454095 0)
(1.60831 -0.0142787 0)
(1.59736 0.0284301 0)
(1.59796 0.0490397 0)
(1.59606 0.0477676 0)
(1.58647 0.0384317 0)
(1.55934 0.0295353 0)
(1.49565 0.025784 0)
(1.35525 0.0336628 0)
(1.05652 0.0643799 0)
(0.61253 0.134167 0)
(0.230913 0.158628 0)
(0.0412079 0.142852 0)
(-0.144309 0.104613 0)
(-0.321045 0.0717944 0)
(-0.472025 0.0350676 0)
(-0.604154 0.0112608 0)
(-0.696593 -0.000985529 0)
(-0.755685 0.00196952 0)
(-0.799118 0.00990019 0)
(-0.838411 0.0152553 0)
(-0.873996 0.0182168 0)
(-0.898527 0.0159913 0)
(-0.911561 0.01001 0)
(-0.916144 0.00299424 0)
(-0.906083 -0.00232667 0)
(-0.872317 -0.0072494 0)
(-0.811667 -0.0138776 0)
(-0.73128 -0.0209416 0)
(-0.640536 -0.0266246 0)
(-0.54572 -0.0313535 0)
(-0.451664 -0.0349779 0)
(-0.358133 -0.0391987 0)
(-0.269696 -0.0408541 0)
(-0.186174 -0.0412239 0)
(-0.106395 -0.0425547 0)
(-0.0339179 -0.0478931 0)
(0.0514783 -0.0407757 0)
(0.114926 -0.035224 0)
(0.179476 -0.0333576 0)
(0.238664 -0.0314896 0)
(0.293831 -0.0296369 0)
(0.344447 -0.0275972 0)
(0.393047 -0.0262947 0)
(0.443045 -0.0261648 0)
(0.492204 -0.0252514 0)
(0.538602 -0.0239789 0)
(0.582556 -0.0226445 0)
(0.624708 -0.0215078 0)
(0.665238 -0.0204426 0)
(0.704382 -0.0194764 0)
(0.742165 -0.0185076 0)
(0.778752 -0.0175888 0)
(0.81418 -0.0166866 0)
(0.848562 -0.0158396 0)
(0.881929 -0.0150222 0)
(0.914361 -0.0142574 0)
(0.945886 -0.0135228 0)
(0.976566 -0.0128358 0)
(1.00642 -0.0121772 0)
(1.03551 -0.0115591 0)
(1.06384 -0.0109649 0)
(1.09146 -0.0104043 0)
(1.11841 -0.00986294 0)
(1.1447 -0.00934835 0)
(1.17038 -0.00884782 0)
(1.19547 -0.00836811 0)
(1.22001 -0.007898 0)
(1.24402 -0.00744415 0)
(1.26752 -0.00699613 0)
(1.29054 -0.00656196 0)
(1.31309 -0.00613209 0)
(1.33519 -0.00571612 0)
(1.35685 -0.00530569 0)
(1.37809 -0.00491046 0)
(1.39891 -0.00452242 0)
(1.41932 -0.00414984 0)
(1.43934 -0.003784 0)
(1.45898 -0.0034325 0)
(1.47824 -0.00308771 0)
(1.49715 -0.00275412 0)
(1.51571 -0.00242656 0)
(1.53394 -0.00210641 0)
(1.55183 -0.00178888 0)
(1.56938 -0.00149324 0)
(1.58659 -0.00122078 0)
(1.60341 -0.000989709 0)
(1.61981 -0.000748452 0)
(1.6357 -0.000485209 0)
(1.65092 -0.000193163 0)
(1.66513 0.000143632 0)
(1.67778 0.000555363 0)
(1.68762 0.00110523 0)
(1.69446 0.001797 0)
(1.37172 0.992563 0)
(1.68487 0.71003 0)
(1.85849 0.397639 0)
(1.94289 0.130231 0)
(1.99309 -0.060935 0)
(2.02252 -0.161818 0)
(2.03098 -0.167892 0)
(2.02876 -0.127148 0)
(2.01324 -0.0769423 0)
(1.98681 -0.0363236 0)
(1.96488 -0.0119605 0)
(1.95086 -0.0024258 0)
(1.93265 0.000315741 0)
(1.89427 0.00786175 0)
(1.80568 0.0292483 0)
(1.59823 0.0827336 0)
(1.2049 0.194329 0)
(0.839414 0.254816 0)
(0.636906 0.241955 0)