/*--------------------------------*- C++ -*----------------------------------*\
  =========                 |
  \\      /  F ield         | OpenFOAM: The Open Source CFD Toolbox
   \\    /   O peration     | Website:  https://openfoam.org
    \\  /    A nd           | Version:  10
     \\/     M anipulation  |
\*---------------------------------------------------------------------------*/
FoamFile
{
    format      ascii;
    class       volScalarField;
    location    "0.4";
    object      s;
}
// * * * * * * * * * * * * * * * * * * * * * * * * * * * * * * * * * * * * * //

dimensions      [0 0 1 0 0 0 0];

internalField   nonuniform List<scalar> 
400
(
1.16882e-09
-9.3741e-10
2.9636e-08
2.70766e-07
4.11021e-07
1.76084e-07
3.1538e-08
-1.41453e-08
-8.21498e-08
-5.83873e-07
-1.73062e-06
-1.28063e-06
1.61804e-06
2.31359e-06
-8.11681e-07
-9.07049e-07
4.0087e-07
-3.13323e-08
1.36755e-10
1.37177e-11
1.29344e-08
2.59229e-07
-6.21851e-06
-2.83886e-05
-2.82936e-05
-7.85903e-06
-1.0045e-06
2.65527e-06
3.77263e-06
-8.47907e-06
-2.57003e-05
-2.31122e-05
1.65229e-06
1.4646e-05
2.48753e-06
-7.04115e-06
3.87357e-06
-7.92035e-07
3.01859e-08
-5.77139e-11
-1.57119e-06
-4.69254e-06
0.0001956
0.000553184
0.000382261
5.37036e-05
5.9092e-05
0.000135491
0.000125756
4.14575e-05
-7.02195e-05
-0.000117899
-7.05358e-05
2.53557e-05
6.53836e-05
1.31925e-05
-2.49314e-05
4.05033e-06
-6.9374e-08
-4.40546e-10
2.70801e-05
1.57809e-05
-0.00151761
-0.0031027
-0.00158292
0.00024428
0.000418887
0.000372485
0.000503383
0.000306059
-0.000112558
-0.000342259
-0.000156693
0.000149028
0.000163706
-1.4223e-05
-7.70357e-05
3.06775e-05
-2.17538e-06
1.88991e-08
-0.000116164
-0.000247322
0.00197895
0.00392465
0.00208298
-0.000868671
-0.000887538
0.000639195
0.00108415
0.000465854
-0.000316483
-0.000417849
1.20537e-05
0.000130913
-2.59196e-05
-0.000105042
-4.44384e-05
4.45118e-05
-4.77204e-06
9.71195e-08
-5.3346e-05
0.0011414
0.00592301
0.00546089
-0.00154298
-0.00377379
-0.00126298
0.000578936
0.00099528
0.00023939
-0.000490118
-0.000267314
-0.000226198
-0.000523266
-0.000579279
-0.000405975
-0.000166708
-1.32123e-05
1.57755e-06
5.10168e-08
0.000579903
0.00193388
0.000974422
-0.00494799
-0.00843238
-0.00489917
-0.00158874
0.000374507
0.000933491
-0.000221554
-0.000462448
-0.00027357
-0.000656504
-0.000889958
-0.000963612
-0.000908311
-0.000639794
-0.000254444
-1.06795e-05
6.58219e-08
0.00101554
-0.00142208
-0.0121929
-0.0158563
-0.00890783
-0.00387013
-0.00229218
0.000496015
0.000689832
-0.000176518
0.000818733
0.00212244
0.00357299
0.00448776
0.00382159
0.00192327
0.000106895
-0.000535266
-0.000187875
7.04178e-06
-8.82937e-05
-0.00900283
-0.0233083
-0.0144752
-0.00158777
-0.00308388
-0.00274193
0.00107756
0.000845997
0.00221966
0.00751778
0.0155703
0.0245289
0.0296513
0.0273608
0.0185121
0.00809156
0.00124223
-0.000533684
2.93196e-05
-0.00348348
-0.0165814
-0.0213649
0.00208342
0.00779558
-0.00410999
-0.00236984
0.00194633
0.0027818
0.0102507
0.0264792
0.0508303
0.0766547
0.0919627
0.0874536
0.0641811
0.0341278
0.0108912
0.000368058
-8.29468e-05
-0.00870479
-0.018055
-0.00133802
0.027627
0.0132526
-0.00648199
-0.00109985
0.00314375
0.00736386
0.0245246
0.0576179
0.106761
0.160296
0.195967
0.19335
0.150404
0.0887277
0.0364966
0.00684773
-0.000892427
-0.0141681
-0.00833389
0.0346743
0.0530463
0.0124098
-0.0087947
0.00062796
0.00392992
0.0111599
0.0353985
0.082263
0.156255
0.246375
0.318904
0.33376
0.275969
0.17541
0.083501
0.0252408
-0.00204024
-0.0176365
0.0150263
0.0800098
0.0714136
0.00638622
-0.00997923
0.00194767
0.00189419
0.00587137
0.0243348
0.0681265
0.153612
0.281393
0.41124
0.474257
0.424412
0.288499
0.150859
0.0600606
0.00235831
-0.0165866
0.0517512
0.127003
0.0800878
-0.00214768
-0.00997057
0.00222301
-0.00391185
-0.0107204
-0.0128931
0.00491937
0.0752453
0.222324
0.418946
0.566465
0.566829
0.415498
0.231951
0.110465
0.0250656
-0.00840515
0.0993246
0.169169
0.0796608
-0.0119553
-0.0106389
0.00182571
-0.00664425
-0.0178347
-0.0341801
-0.0498004
-0.0302243
0.0892272
0.326202
0.571
0.668161
0.539383
0.318311
0.170095
0.0740348
0.00960253
0.154256
0.204756
0.0764473
-0.0184665
-0.00827245
0.0114889
0.00619061
-0.000626344
-0.00468273
-0.00913651
-0.0662925
-0.0167991
0.19707
0.49459
0.700588
0.638548
0.401349
0.230426
0.139603
0.0388581
0.213137
0.236022
0.0761784
-0.034812
-0.0317745
-0.0119175
-0.00734731
-0.0127415
-0.0217136
-0.0388716
-0.0511847
-0.00191923
0.158326
0.420282
0.668108
0.68749
0.469421
0.28454
0.202621
0.0754283
0.268955
0.286705
0.122917
-0.00220668
-0.0518128
-0.0642215
-0.0633908
-0.0572863
-0.0455192
-0.0245863
0.029
0.128726
0.279025
0.464032
0.626564
0.663702
0.501689
0.327022
0.252074
0.10772
0.351704
0.426432
0.39551
0.350935
0.322023
0.311955
0.317443
0.335282
0.36368
0.402851
0.447473
0.494946
0.541618
0.580056
0.595747
0.564109
0.464556
0.349665
0.287188
0.0790911
0.166274
0.230294
0.2703
0.295733
0.313237
0.326595
0.337648
0.347149
0.355293
0.361921
0.367264
0.37121
0.373462
0.373519
0.370527
0.363505
0.351289
0.340561
0.308538
)
;

boundaryField
{
    movingWall
    {
        type            zeroGradient;
    }
    fixedWalls
    {
        type            zeroGradient;
    }
    frontAndBack
    {
        type            empty;
    }
}


// ************************************************************************* //
