/*--------------------------------*- C++ -*----------------------------------*\
  =========                 |
  \\      /  F ield         | OpenFOAM: The Open Source CFD Toolbox
   \\    /   O peration     | Website:  https://openfoam.org
    \\  /    A nd           | Version:  10
     \\/     M anipulation  |
\*---------------------------------------------------------------------------*/
FoamFile
{
    format      ascii;
    class       volScalarField;
    location    "0.04";
    object      N1;
}
// * * * * * * * * * * * * * * * * * * * * * * * * * * * * * * * * * * * * * //

dimensions      [0 0 0 0 0 0 0];

internalField   nonuniform List<scalar> 
8000
(
0.794953
0.72199
0.659395
0.604098
0.554454
0.509454
0.468414
0.430834
0.396329
0.364587
0.33535
0.308396
0.283534
0.260594
0.239425
0.219889
0.201864
0.185234
0.169896
0.155753
0.142718
0.130707
0.119645
0.109462
0.100091
0.0914714
0.0835477
0.0762668
0.0695802
0.0634425
0.0578117
0.0526489
0.0479176
0.0435845
0.0396182
0.0359899
0.0326727
0.0296419
0.0268744
0.024349
0.022046
0.0199471
0.0180356
0.0162958
0.0147134
0.0132752
0.011969
0.0107834
0.00970807
0.00873351
0.0078509
0.00705215
0.00632983
0.00567714
0.0050878
0.00455607
0.00407671
0.00364489
0.0032562
0.00290662
0.00259247
0.00231039
0.0020573
0.00183043
0.00162722
0.00144536
0.00128274
0.00113745
0.00100776
0.000892095
0.000789023
0.000697255
0.000615624
0.000543075
0.000478654
0.000421503
0.000370846
0.000325987
0.000286297
0.000251214
0.000220231
0.000192895
0.000168798
0.000147576
0.000128905
0.000112492
9.80782e-05
8.54323e-05
7.43479e-05
6.46413e-05
5.61496e-05
4.87276e-05
4.2247e-05
3.65938e-05
3.16672e-05
2.73778e-05
2.3647e-05
2.04052e-05
1.7591e-05
1.51504e-05
1.30359e-05
1.12058e-05
9.62335e-06
8.2564e-06
7.07677e-06
6.05982e-06
5.18398e-06
4.43042e-06
3.78272e-06
3.22656e-06
2.74949e-06
2.34067e-06
1.99069e-06
1.69138e-06
1.43566e-06
1.21741e-06
1.03132e-06
8.72822e-07
7.37952e-07
6.23307e-07
5.25953e-07
4.43367e-07
3.73379e-07
3.14128e-07
2.64017e-07
2.21681e-07
1.85949e-07
1.55821e-07
1.30446e-07
1.09094e-07
9.11464e-08
7.60758e-08
6.34339e-08
5.28401e-08
4.39718e-08
3.65554e-08
3.03596e-08
2.51888e-08
2.08778e-08
1.72875e-08
1.43002e-08
1.18174e-08
9.75593e-09
8.04603e-09
6.6292e-09
5.45641e-09
4.48663e-09
3.68553e-09
3.02446e-09
2.47948e-09
2.03068e-09
1.66146e-09
1.35802e-09
1.10889e-09
9.04558e-10
7.37147e-10
6.00121e-10
4.8808e-10
3.96563e-10
3.21885e-10
2.61011e-10
2.11438e-10
1.71111e-10
1.38338e-10
1.11731e-10
9.0152e-11
7.26686e-11
5.85178e-11
4.7076e-11
3.78339e-11
3.03762e-11
2.43644e-11
1.95232e-11
1.56285e-11
1.24984e-11
9.98537e-12
7.96978e-12
6.35479e-12
5.06208e-12
4.02838e-12
3.20262e-12
2.54364e-12
2.01827e-12
1.59984e-12
1.26693e-12
1.00231e-12
7.92184e-13
6.25501e-13
4.93408e-13
3.88832e-13
3.06123e-13
2.40772e-13
1.89189e-13
1.48513e-13
1.1647e-13
9.12516e-14
7.14247e-14
5.58517e-14
4.36321e-14
3.40531e-14
2.65515e-14
2.06826e-14
1.60954e-14
1.25137e-14
9.71964e-15
7.54223e-15
5.84702e-15
4.5285e-15
3.50397e-15
2.70865e-15
2.09185e-15
1.61398e-15
1.24409e-15
9.58064e-16
7.37099e-16
5.66561e-16
4.35068e-16
3.33779e-16
2.55829e-16
1.959e-16
1.49868e-16
1.14546e-16
8.74661e-17
6.6726e-17
5.08563e-17
3.87248e-17
2.94597e-17
2.23905e-17
1.70019e-17
1.28981e-17
9.7758e-18
7.40248e-18
5.60017e-18
4.23277e-18
3.1963e-18
2.41141e-18
1.81759e-18
1.36874e-18
1.02979e-18
7.74072e-19
5.81321e-19
4.36169e-19
3.26963e-19
2.44876e-19
1.83232e-19
1.36981e-19
1.02313e-19
7.63493e-20
5.69231e-20
4.24015e-20
3.1556e-20
2.34636e-20
1.74308e-20
1.29375e-20
9.59392e-21
7.10811e-21
5.26169e-21
3.89144e-21
2.87547e-21
2.12287e-21
1.56586e-21
1.15398e-21
8.49692e-22
6.25089e-22
4.59452e-22
3.37409e-22
2.47567e-22
1.81488e-22
1.32931e-22
9.72799e-23
7.11283e-23
5.19619e-23
3.79271e-23
2.76591e-23
2.01536e-23
1.4672e-23
1.06722e-23
7.75611e-24
5.63198e-24
4.08607e-24
2.96195e-24
2.14526e-24
1.55242e-24
1.12246e-24
8.10891e-25
5.85309e-25
4.22124e-25
3.04178e-25
2.19002e-25
1.57544e-25
1.13238e-25
8.13235e-26
5.83547e-26
4.18381e-26
2.99713e-26
2.14525e-26
1.53422e-26
1.09632e-26
7.82751e-27
5.58409e-27
3.98035e-27
2.83487e-27
2.01737e-27
1.43444e-27
1.01911e-27
7.23444e-28
5.13137e-28
3.6367e-28
2.5753e-28
1.82219e-28
1.28827e-28
9.10058e-29
6.42361e-29
4.53043e-29
3.19263e-29
2.24806e-29
1.58168e-29
1.11194e-29
7.81083e-30
5.48233e-30
3.84492e-30
2.69441e-30
1.88667e-30
1.32002e-30
9.22836e-31
6.44651e-31
4.49968e-31
3.13832e-31
2.18711e-31
1.52302e-31
1.05974e-31
7.36805e-32
5.1188e-32
3.55341e-32
2.46482e-32
1.7084e-32
1.18319e-32
8.18816e-33
5.66217e-33
3.91241e-33
2.7013e-33
1.86367e-33
1.28479e-33
8.85038e-34
6.09202e-34
4.19016e-34
2.87985e-34
1.97779e-34
1.35725e-34
9.30707e-35
6.37732e-35
4.36653e-35
2.98751e-35
2.04247e-35
1.39533e-35
9.5252e-36
6.49752e-36
4.42892e-36
3.01665e-36
2.0532e-36
1.39642e-36
9.49027e-37
6.44498e-37
4.37367e-37
2.96586e-37
2.00973e-37
1.36084e-37
9.20784e-38
6.22577e-38
4.20642e-38
2.83999e-38
1.91605e-38
1.29176e-38
8.70248e-39
5.85857e-39
3.9412e-39
2.64943e-39
1.77978e-39
1.19473e-39
8.01426e-40
5.37214e-40
3.59851e-40
2.40874e-40
1.6112e-40
1.07697e-40
7.19367e-41
4.80169e-41
3.20286e-41
2.13494e-41
1.42218e-41
9.46828e-42
6.30096e-42
4.19293e-42
2.79228e-42
1.86439e-42
1.25331e-42
8.56002e-43
6.0526e-43
4.58562e-43
3.90973e-43
0.80283
0.734846
0.673713
0.618581
0.568567
0.52296
0.48121
0.44288
0.407619
0.375133
0.345175
0.31753
0.29201
0.268448
0.246692
0.226605
0.208063
0.19095
0.175161
0.160599
0.147173
0.1348
0.123402
0.112907
0.103248
0.0943626
0.0861931
0.0786856
0.0717901
0.06546
0.0596523
0.0543268
0.0494463
0.044976
0.0408841
0.0371406
0.033718
0.0305908
0.0277351
0.0251292
0.0227527
0.0205867
0.0186141
0.0168186
0.0151856
0.0137014
0.0123532
0.0111297
0.0100199
0.00901405
0.00810312
0.00727874
0.00653324
0.00585959
0.00525132
0.00470252
0.00420775
0.00376206
0.00336088
0.00300007
0.00267582
0.00238467
0.00212345
0.00188928
0.00167954
0.00149183
0.00132399
0.00117403
0.00104017
0.000920782
0.000814396
0.000719677
0.000635422
0.00056054
0.000494047
0.000435058
0.000382772
0.00033647
0.000295504
0.000259293
0.000227314
0.000199098
0.000174226
0.000152322
0.00013305
0.00011611
0.000101232
8.81798e-05
7.67389e-05
6.67202e-05
5.79554e-05
5.02947e-05
4.36057e-05
3.77707e-05
3.26856e-05
2.82583e-05
2.44075e-05
2.10614e-05
1.81567e-05
1.56377e-05
1.34552e-05
1.15662e-05
9.93285e-06
8.52193e-06
7.30437e-06
6.25471e-06
5.3507e-06
4.57291e-06
3.90437e-06
3.33033e-06
2.83792e-06
2.41595e-06
2.05471e-06
1.74578e-06
1.48184e-06
1.25656e-06
1.06449e-06
9.00893e-07
7.61685e-07
6.43353e-07
5.42869e-07
4.57626e-07
3.85387e-07
3.24231e-07
2.72509e-07
2.28811e-07
1.91929e-07
1.60833e-07
1.34641e-07
1.12603e-07
9.40778e-08
7.85226e-08
6.54741e-08
5.45396e-08
4.5386e-08
3.7731e-08
3.1336e-08
2.59989e-08
2.15493e-08
1.78435e-08
1.47602e-08
1.21975e-08
1.00697e-08
8.3048e-09
6.84241e-09
5.6319e-09
4.63093e-09
3.80407e-09
3.12173e-09
2.55923e-09
2.09599e-09
1.7149e-09
1.40169e-09
1.14455e-09
9.33651e-10
7.60855e-10
6.19422e-10
5.03778e-10
4.09317e-10
3.32238e-10
2.69405e-10
2.18239e-10
1.76614e-10
1.42787e-10
1.15325e-10
9.30516e-11
7.50058e-11
6.03999e-11
4.85901e-11
3.90507e-11
3.13532e-11
2.51481e-11
2.01511e-11
1.61311e-11
1.29004e-11
1.03065e-11
8.22611e-12
6.55918e-12
5.2249e-12
4.15795e-12
3.30563e-12
2.62545e-12
2.08318e-12
1.6513e-12
1.30767e-12
1.03454e-12
8.17664e-13
6.45619e-13
5.09278e-13
4.01338e-13
3.15969e-13
2.48517e-13
1.95274e-13
1.5329e-13
1.20216e-13
9.41866e-14
7.3722e-14
5.76481e-14
4.50355e-14
3.51484e-14
2.74055e-14
2.13478e-14
1.66131e-14
1.29162e-14
1.00323e-14
7.78482e-15
6.03508e-15
4.67416e-15
3.61667e-15
2.79577e-15
2.15914e-15
1.66589e-15
1.28411e-15
9.88879e-16
7.60807e-16
5.84784e-16
4.49062e-16
3.44514e-16
2.64058e-16
2.02201e-16
1.54689e-16
1.1823e-16
9.02795e-17
6.88722e-17
5.24921e-17
3.99704e-17
3.04073e-17
2.31107e-17
1.75487e-17
1.3313e-17
1.00902e-17
7.64058e-18
5.7803e-18
4.36891e-18
3.29911e-18
2.48897e-18
1.87605e-18
1.41277e-18
1.06292e-18
7.9897e-19
6.00019e-19
4.50198e-19
3.3748e-19
2.52753e-19
1.89126e-19
1.41388e-19
1.05604e-19
7.88051e-20
5.87541e-20
4.37653e-20
3.25711e-20
2.42183e-20
1.79915e-20
1.33537e-20
9.90252e-21
7.33675e-21
5.43094e-21
4.01661e-21
2.96797e-21
2.19115e-21
1.61623e-21
1.1911e-21
8.77023e-22
6.45195e-22
4.7423e-22
3.48262e-22
2.5553e-22
1.87326e-22
1.37207e-22
1.00409e-22
7.34163e-23
5.36333e-23
3.91471e-23
2.85489e-23
2.08018e-23
1.5144e-23
1.10155e-23
8.0056e-24
5.81314e-24
4.2175e-24
3.05723e-24
2.21426e-24
1.60236e-24
1.15857e-24
8.36975e-25
6.04137e-25
4.35703e-25
3.13962e-25
2.26047e-25
1.62612e-25
1.16881e-25
8.39395e-26
6.02319e-26
4.3184e-26
3.09355e-26
2.21426e-26
1.58357e-26
1.13158e-26
8.07931e-27
5.76372e-27
4.1084e-27
2.92606e-27
2.08227e-27
1.48058e-27
1.0519e-27
7.46717e-28
5.29645e-28
3.75369e-28
2.65814e-28
1.88081e-28
1.32971e-28
9.39334e-29
6.63026e-29
4.67617e-29
3.29534e-29
2.32038e-29
1.63257e-29
1.14771e-29
8.06211e-30
5.6587e-30
3.96862e-30
2.78109e-30
1.94736e-30
1.36249e-30
9.52525e-31
6.6539e-31
4.64444e-31
3.23928e-31
2.25748e-31
1.57202e-31
1.09383e-31
7.6051e-32
5.28348e-32
3.66773e-32
2.54412e-32
1.76336e-32
1.22126e-32
8.4516e-33
5.84434e-33
4.03829e-33
2.78821e-33
1.92363e-33
1.32612e-33
9.13512e-34
6.28802e-34
4.32497e-34
2.9725e-34
2.04142e-34
1.40092e-34
9.60652e-35
6.58251e-35
4.50702e-35
3.08363e-35
2.10819e-35
1.44023e-35
9.83168e-36
6.70658e-36
4.57142e-36
3.11372e-36
2.11926e-36
1.44135e-36
9.79563e-37
6.65236e-37
4.5144e-37
3.06129e-37
2.07439e-37
1.40462e-37
9.50412e-38
6.4261e-38
4.34177e-38
2.93137e-38
1.9777e-38
1.33332e-38
8.98251e-39
6.04709e-39
4.06802e-39
2.73469e-39
1.83705e-39
1.23318e-39
8.27216e-40
5.54502e-40
3.71431e-40
2.48625e-40
1.66305e-40
1.11163e-40
7.42517e-41
4.95622e-41
3.30593e-41
2.20365e-41
1.46795e-41
9.77299e-42
6.50374e-42
4.32787e-42
2.88215e-42
1.9244e-42
1.29365e-42
8.83557e-43
6.24748e-43
4.73334e-43
4.03574e-43
0.806387
0.742764
0.68383
0.629636
0.579861
0.534108
0.491995
0.453184
0.417379
0.384322
0.353787
0.325574
0.299502
0.275409
0.253147
0.23258
0.213586
0.196048
0.179862
0.164928
0.151156
0.138461
0.126763
0.115991
0.106075
0.0969518
0.0885627
0.0808525
0.0737701
0.067268
0.061302
0.0558309
0.0508166
0.0462236
0.042019
0.0381724
0.0346553
0.0314416
0.028507
0.0258288
0.0233864
0.0211604
0.0191329
0.0172876
0.0156091
0.0140836
0.0126979
0.0114403
0.0102996
0.0092657
0.00832936
0.00748199
0.00671569
0.00602324
0.005398
0.00483388
0.0043253
0.00386716
0.00345478
0.00308389
0.00275059
0.0024513
0.00218279
0.00194208
0.00172648
0.00153352
0.00136099
0.00120684
0.00106924
0.000946516
0.000837157
0.000739791
0.000653181
0.000576206
0.000507855
0.000447217
0.00039347
0.000345874
0.000303764
0.00026654
0.000233667
0.000204663
0.000179096
0.00015658
0.000136769
0.000119355
0.000104062
9.06445e-05
7.88838e-05
6.85851e-05
5.95752e-05
5.17005e-05
4.48245e-05
3.88264e-05
3.35992e-05
2.90481e-05
2.50897e-05
2.16501e-05
1.86642e-05
1.60747e-05
1.38313e-05
1.18895e-05
1.02105e-05
8.76012e-06
7.50853e-06
6.42953e-06
5.50025e-06
4.70072e-06
4.0135e-06
3.42341e-06
2.91724e-06
2.48347e-06
2.11214e-06
1.79457e-06
1.52325e-06
1.29169e-06
1.09425e-06
9.26073e-07
7.82974e-07
6.61335e-07
5.58042e-07
4.70417e-07
3.96159e-07
3.33293e-07
2.80125e-07
2.35206e-07
1.97294e-07
1.65328e-07
1.38404e-07
1.1575e-07
9.67073e-08
8.07173e-08
6.73041e-08
5.6064e-08
4.66545e-08
3.87856e-08
3.22118e-08
2.67256e-08
2.21516e-08
1.83422e-08
1.51727e-08
1.25384e-08
1.03512e-08
8.53693e-09
7.03366e-09
5.78932e-09
4.76037e-09
3.91039e-09
3.20898e-09
2.63076e-09
2.15458e-09
1.76283e-09
1.44087e-09
1.17654e-09
9.59747e-10
7.82121e-10
6.36736e-10
5.17859e-10
4.20758e-10
3.41524e-10
2.76935e-10
2.24339e-10
1.81551e-10
1.46778e-10
1.18548e-10
9.56524e-11
7.71023e-11
6.20881e-11
4.99482e-11
4.01422e-11
3.22295e-11
2.5851e-11
2.07144e-11
1.6582e-11
1.3261e-11
1.05946e-11
8.45604e-12
6.74252e-12
5.37094e-12
4.27417e-12
3.39803e-12
2.69883e-12
2.14141e-12
1.69746e-12
1.34423e-12
1.06346e-12
8.40519e-13
6.63666e-13
5.23514e-13
4.12557e-13
3.24801e-13
2.55463e-13
2.00733e-13
1.57575e-13
1.23576e-13
9.68194e-14
7.57827e-14
5.92596e-14
4.62943e-14
3.61309e-14
2.81716e-14
2.19446e-14
1.70775e-14
1.32772e-14
1.03127e-14
8.00244e-15
6.20379e-15
4.80482e-15
3.71777e-15
2.87392e-15
2.21949e-15
1.71246e-15
1.32e-15
1.01652e-15
7.82075e-16
6.01132e-16
4.61615e-16
3.54145e-16
2.7144e-16
2.07854e-16
1.59013e-16
1.21535e-16
9.28033e-17
7.07977e-17
5.39596e-17
4.10878e-17
3.12574e-17
2.37568e-17
1.80393e-17
1.36852e-17
1.03723e-17
7.8542e-18
5.9419e-18
4.49106e-18
3.39134e-18
2.55856e-18
1.9285e-18
1.45227e-18
1.09263e-18
8.21308e-19
6.16795e-19
4.62786e-19
3.46915e-19
2.5982e-19
1.94414e-19
1.45341e-19
1.08556e-19
8.10085e-20
6.03969e-20
4.4989e-20
3.34818e-20
2.48955e-20
1.84945e-20
1.3727e-20
1.01794e-20
7.5419e-21
5.5828e-21
4.12893e-21
3.05096e-21
2.25243e-21
1.66142e-21
1.22441e-21
9.01549e-22
6.63238e-22
4.87492e-22
3.58001e-22
2.62676e-22
1.92565e-22
1.41044e-22
1.03217e-22
7.54695e-23
5.51333e-23
4.02419e-23
2.93473e-23
2.13836e-23
1.55675e-23
1.13236e-23
8.22951e-24
5.97573e-24
4.33546e-24
3.14274e-24
2.2762e-24
1.64718e-24
1.19097e-24
8.60386e-25
6.21035e-25
4.4789e-25
3.22745e-25
2.3237e-25
1.67161e-25
1.2015e-25
8.62876e-26
6.19168e-26
4.4392e-26
3.18009e-26
2.2762e-26
1.62787e-26
1.16324e-26
8.30534e-27
5.92497e-27
4.22334e-27
3.00792e-27
2.14053e-27
1.52201e-27
1.08133e-27
7.67609e-28
5.44464e-28
3.85872e-28
2.73252e-28
1.93344e-28
1.36692e-28
9.65618e-29
6.81579e-29
4.80702e-29
3.38755e-29
2.38531e-29
1.67825e-29
1.17983e-29
8.28773e-30
5.81707e-30
4.07968e-30
2.85892e-30
2.00186e-30
1.40062e-30
9.79184e-31
6.84013e-31
4.77444e-31
3.32995e-31
2.32066e-31
1.61602e-31
1.12445e-31
7.81798e-32
5.43138e-32
3.7704e-32
2.61534e-32
1.81272e-32
1.25545e-32
8.6882e-33
6.00795e-33
4.15134e-33
2.86627e-33
1.97748e-33
1.36325e-33
9.39089e-34
6.46408e-34
4.44607e-34
3.05573e-34
2.09858e-34
1.44015e-34
9.87552e-35
6.76684e-35
4.63324e-35
3.16999e-35
2.16723e-35
1.48056e-35
1.0107e-35
6.89441e-36
4.69946e-36
3.20093e-36
2.17862e-36
1.48172e-36
1.007e-36
6.8387e-37
4.64086e-37
3.14705e-37
2.13251e-37
1.44397e-37
9.77038e-38
6.60613e-38
4.46341e-38
3.0135e-38
2.03311e-38
1.37068e-38
9.2342e-39
6.21654e-39
4.18201e-39
2.81132e-39
1.88853e-39
1.26774e-39
8.50398e-40
5.70042e-40
3.81841e-40
2.55594e-40
1.70966e-40
1.14278e-40
7.6333e-41
5.09514e-41
3.3986e-41
2.26542e-41
1.5091e-41
1.0047e-41
6.68608e-42
4.44921e-42
2.96295e-42
1.97835e-42
1.32993e-42
9.0833e-43
6.42265e-43
4.86614e-43
4.14902e-43
0.808384
0.747919
0.691028
0.637986
0.58875
0.543138
0.500913
0.461832
0.425662
0.392187
0.361205
0.332536
0.30601
0.281473
0.258783
0.237807
0.218424
0.20052
0.183988
0.168731
0.154657
0.14168
0.129721
0.118705
0.108564
0.099232
0.09065
0.0827616
0.0755149
0.0688614
0.062756
0.0571567
0.0520245
0.0473234
0.0430197
0.0390821
0.0354818
0.0321919
0.0291876
0.0264458
0.0239453
0.0216663
0.0195905
0.0177012
0.0159827
0.0144207
0.0130019
0.0117142
0.0105462
0.00948766
0.00852893
0.00766127
0.00687663
0.0061676
0.00552739
0.00494975
0.00442899
0.00395987
0.00353761
0.00315784
0.00281654
0.00251009
0.00223513
0.00198865
0.00176788
0.0015703
0.00139363
0.00123578
0.00109488
0.000969217
0.000857235
0.000757535
0.000668847
0.000590026
0.000520037
0.000457944
0.000402908
0.00035417
0.00031105
0.000272933
0.000239272
0.000209572
0.000183392
0.000160335
0.000140049
0.000122218
0.000106558
9.28187e-05
8.0776e-05
7.02302e-05
6.10042e-05
5.29406e-05
4.58997e-05
3.97577e-05
3.44051e-05
2.97449e-05
2.56915e-05
2.21694e-05
1.91119e-05
1.64603e-05
1.4163e-05
1.21747e-05
1.04554e-05
8.97025e-06
7.68864e-06
6.58376e-06
5.63219e-06
4.81348e-06
4.10978e-06
3.50553e-06
2.98722e-06
2.54305e-06
2.16281e-06
1.83762e-06
1.55979e-06
1.32267e-06
1.12049e-06
9.48288e-07
8.01757e-07
6.772e-07
5.71429e-07
4.81701e-07
4.05662e-07
3.41288e-07
2.86845e-07
2.40848e-07
2.02026e-07
1.69294e-07
1.41724e-07
1.18527e-07
9.90272e-08
8.26536e-08
6.89186e-08
5.74089e-08
4.77737e-08
3.97161e-08
3.29846e-08
2.73667e-08
2.2683e-08
1.87822e-08
1.55367e-08
1.28392e-08
1.05995e-08
8.74173e-09
7.20239e-09
5.9282e-09
4.87457e-09
4.00421e-09
3.28597e-09
2.69387e-09
2.20627e-09
1.80512e-09
1.47544e-09
1.20477e-09
9.82773e-10
8.00885e-10
6.52012e-10
5.30283e-10
4.30853e-10
3.49718e-10
2.8358e-10
2.29721e-10
1.85907e-10
1.503e-10
1.21392e-10
9.79474e-11
7.89522e-11
6.35778e-11
5.11466e-11
4.11054e-11
3.30028e-11
2.64712e-11
2.12114e-11
1.69799e-11
1.35791e-11
1.08488e-11
8.65894e-12
6.9043e-12
5.49981e-12
4.37672e-12
3.47956e-12
2.76359e-12
2.19279e-12
1.73819e-12
1.37648e-12
1.08898e-12
8.60687e-13
6.79591e-13
5.36076e-13
4.22456e-13
3.32595e-13
2.61593e-13
2.0555e-13
1.61356e-13
1.26542e-13
9.91427e-14
7.76013e-14
6.06816e-14
4.74053e-14
3.6998e-14
2.88477e-14
2.24712e-14
1.74874e-14
1.35958e-14
1.05602e-14
8.19449e-15
6.35268e-15
4.92013e-15
3.807e-15
2.9429e-15
2.27276e-15
1.75356e-15
1.35168e-15
1.04092e-15
8.00846e-16
6.1556e-16
4.72695e-16
3.62646e-16
2.77955e-16
2.12843e-16
1.6283e-16
1.24452e-16
9.50309e-17
7.24971e-17
5.52548e-17
4.20741e-17
3.20077e-17
2.43271e-17
1.84724e-17
1.40137e-17
1.06213e-17
8.04274e-18
6.08455e-18
4.59887e-18
3.47276e-18
2.61998e-18
1.9748e-18
1.48713e-18
1.11887e-18
8.41027e-19
6.31604e-19
4.73897e-19
3.55245e-19
2.66058e-19
1.99082e-19
1.48831e-19
1.11163e-19
8.29537e-20
6.18471e-20
4.60693e-20
3.42858e-20
2.54933e-20
1.89386e-20
1.40567e-20
1.04239e-20
7.72302e-21
5.71687e-21
4.22809e-21
3.12423e-21
2.30652e-21
1.70133e-21
1.25382e-21
9.23202e-22
6.79168e-22
4.99201e-22
3.666e-22
2.68986e-22
1.9719e-22
1.44432e-22
1.05697e-22
7.72824e-23
5.64577e-23
4.12087e-23
3.00523e-23
2.18973e-23
1.59415e-23
1.15956e-23
8.42723e-24
6.1193e-24
4.43963e-24
3.21825e-24
2.33089e-24
1.68676e-24
1.21959e-24
8.81061e-25
6.35959e-25
4.58653e-25
3.30501e-25
2.37954e-25
1.71178e-25
1.23038e-25
8.83614e-26
6.34049e-26
4.5459e-26
3.25652e-26
2.33091e-26
1.667e-26
1.1912e-26
8.50498e-27
6.0674e-27
4.32486e-27
3.08024e-27
2.19199e-27
1.5586e-27
1.10732e-27
7.86065e-28
5.57555e-28
3.9515e-28
2.79822e-28
1.97993e-28
1.39979e-28
9.88839e-29
6.9797e-29
4.92262e-29
3.46902e-29
2.44268e-29
1.71862e-29
1.20821e-29
8.48707e-30
5.95699e-30
4.17781e-30
2.9277e-30
2.05002e-30
1.43432e-30
1.00274e-30
7.0047e-31
4.88931e-31
3.41007e-31
2.3765e-31
1.6549e-31
1.15151e-31
8.00611e-32
5.56208e-32
3.86114e-32
2.67828e-32
1.85635e-32
1.28566e-32
8.89732e-33
6.15257e-33
4.25127e-33
2.93527e-33
2.02509e-33
1.39607e-33
9.61698e-34
6.61971e-34
4.55312e-34
3.12931e-34
2.14911e-34
1.47483e-34
1.01133e-34
6.9298e-35
4.74482e-35
3.24633e-35
2.21942e-35
1.51622e-35
1.03505e-35
7.06049e-36
4.81267e-36
3.27804e-36
2.23111e-36
1.51742e-36
1.03126e-36
7.00349e-37
4.75268e-37
3.22288e-37
2.1839e-37
1.47877e-37
1.00059e-37
6.76536e-38
4.571e-38
3.08614e-38
2.08212e-38
1.40373e-38
9.45682e-39
6.36642e-39
4.28285e-39
2.87911e-39
1.93407e-39
1.29831e-39
8.70906e-40
5.8379e-40
3.9105e-40
2.61759e-40
1.7509e-40
1.17035e-40
7.81744e-41
5.21807e-41
3.4806e-41
2.32008e-41
1.54551e-41
1.02894e-41
6.84743e-42
4.55658e-42
3.03447e-42
2.02611e-42
1.36203e-42
9.3026e-43
6.57771e-43
4.98364e-43
4.24924e-43
0.809661
0.751438
0.696211
0.64426
0.595652
0.550324
0.508143
0.468943
0.432546
0.398774
0.367458
0.338432
0.311542
0.286643
0.263599
0.242282
0.222573
0.204358
0.187534
0.172001
0.157669
0.144451
0.132268
0.121043
0.110708
0.101197
0.0924493
0.0844076
0.0770194
0.0702355
0.06401
0.0583002
0.0530666
0.0482722
0.043883
0.039867
0.0361949
0.0328393
0.0297749
0.0269783
0.0244276
0.0221028
0.0199854
0.0180581
0.0163051
0.0147116
0.0132643
0.0119507
0.0107592
0.00967923
0.00870117
0.00781601
0.00701554
0.0062922
0.00563906
0.00504977
0.00451849
0.0040399
0.00360911
0.00322166
0.00287347
0.00256082
0.00228031
0.00202885
0.00180362
0.00160205
0.0014218
0.00126077
0.00111702
0.000988812
0.000874566
0.000772851
0.00068237
0.000601956
0.000530551
0.000467203
0.000411054
0.000361331
0.000317339
0.000278452
0.00024411
0.000213809
0.0001871
0.000163577
0.000142881
0.000124689
0.000108713
9.46955e-05
8.24092e-05
7.16503e-05
6.22377e-05
5.40111e-05
4.68278e-05
4.05616e-05
3.51008e-05
3.03464e-05
2.6211e-05
2.26177e-05
1.94984e-05
1.67932e-05
1.44494e-05
1.24209e-05
1.06668e-05
9.15164e-06
7.84411e-06
6.71689e-06
5.74608e-06
4.91081e-06
4.19288e-06
3.57642e-06
3.04762e-06
2.59447e-06
2.20654e-06
1.87478e-06
1.59133e-06
1.34942e-06
1.14315e-06
9.67463e-07
8.17969e-07
6.90894e-07
5.82984e-07
4.91442e-07
4.13865e-07
3.4819e-07
2.92646e-07
2.45719e-07
2.06112e-07
1.72718e-07
1.4459e-07
1.20923e-07
1.0103e-07
8.43251e-08
7.03123e-08
5.85698e-08
4.87398e-08
4.05192e-08
3.36516e-08
2.79201e-08
2.31418e-08
1.9162e-08
1.58509e-08
1.30989e-08
1.08138e-08
8.91852e-09
7.34805e-09
6.0481e-09
4.97315e-09
4.08519e-09
3.35242e-09
2.74836e-09
2.25089e-09
1.84163e-09
1.50528e-09
1.22913e-09
1.00265e-09
8.17084e-10
6.65199e-10
5.41009e-10
4.39567e-10
3.56791e-10
2.89315e-10
2.34367e-10
1.89667e-10
1.5334e-10
1.23848e-10
9.99285e-11
8.05492e-11
6.48638e-11
5.21812e-11
4.19368e-11
3.36704e-11
2.70067e-11
2.16404e-11
1.73234e-11
1.38538e-11
1.10683e-11
8.8341e-12
7.04397e-12
5.61107e-12
4.46526e-12
3.54995e-12
2.8195e-12
2.23716e-12
1.77335e-12
1.40433e-12
1.11101e-12
8.781e-13
6.9334e-13
5.46922e-13
4.31004e-13
3.39324e-13
2.66886e-13
2.09708e-13
1.64621e-13
1.29102e-13
1.01149e-13
7.91715e-14
6.19095e-14
4.83645e-14
3.77466e-14
2.94314e-14
2.29259e-14
1.78412e-14
1.3871e-14
1.07739e-14
8.36032e-15
6.48124e-15
5.0197e-15
3.88405e-15
3.00246e-15
2.31876e-15
1.78905e-15
1.37904e-15
1.06199e-15
8.17055e-16
6.28019e-16
4.82263e-16
3.69986e-16
2.83581e-16
2.17151e-16
1.66126e-16
1.26972e-16
9.69546e-17
7.39647e-17
5.63734e-17
4.29258e-17
3.26557e-17
2.48196e-17
1.88464e-17
1.42974e-17
1.08364e-17
8.20559e-18
6.20774e-18
4.69199e-18
3.54308e-18
2.67303e-18
2.01479e-18
1.51725e-18
1.14152e-18
8.58059e-19
6.44395e-19
4.83494e-19
3.62439e-19
2.71446e-19
2.03114e-19
1.51845e-19
1.13414e-19
8.46339e-20
6.30999e-20
4.70025e-20
3.49803e-20
2.60097e-20
1.93223e-20
1.43415e-20
1.0635e-20
7.87949e-21
5.8327e-21
4.31375e-21
3.18753e-21
2.35326e-21
1.7358e-21
1.27922e-21
9.4191e-22
6.92931e-22
5.09318e-22
3.7403e-22
2.74437e-22
2.01187e-22
1.47359e-22
1.07839e-22
7.88489e-23
5.76021e-23
4.2044e-23
3.06615e-23
2.23413e-23
1.62647e-23
1.18307e-23
8.59808e-24
6.24337e-24
4.52965e-24
3.28351e-24
2.37815e-24
1.72096e-24
1.24432e-24
8.98929e-25
6.48857e-25
4.67955e-25
3.37204e-25
2.42781e-25
1.7465e-25
1.25533e-25
9.01539e-26
6.46912e-26
4.63812e-26
3.32259e-26
2.3782e-26
1.70082e-26
1.21537e-26
8.67757e-27
6.19052e-27
4.41263e-27
3.14275e-27
2.23647e-27
1.59023e-27
1.1298e-27
8.02021e-28
5.68873e-28
4.03172e-28
2.85503e-28
2.02012e-28
1.42821e-28
1.00892e-28
7.12142e-29
5.02259e-29
3.53947e-29
2.49229e-29
1.75352e-29
1.23275e-29
8.65946e-30
6.07799e-30
4.26268e-30
2.98717e-30
2.09167e-30
1.46346e-30
1.02312e-30
7.14703e-31
4.98866e-31
3.47937e-31
2.4248e-31
1.68854e-31
1.17491e-31
8.16885e-32
5.67515e-32
3.93963e-32
2.73273e-32
1.89409e-32
1.31181e-32
9.07824e-33
6.27768e-33
4.33773e-33
2.99497e-33
2.06628e-33
1.42447e-33
9.81261e-34
6.75438e-34
4.64575e-34
3.19298e-34
2.19284e-34
1.50484e-34
1.03192e-34
7.07083e-35
4.8414e-35
3.31241e-35
2.2646e-35
1.54709e-35
1.05612e-35
7.20424e-36
4.91066e-36
3.34479e-36
2.27654e-36
1.54832e-36
1.05227e-36
7.14614e-37
4.8495e-37
3.28854e-37
2.22839e-37
1.50891e-37
1.02098e-37
6.90323e-38
4.66416e-38
3.14904e-38
2.12456e-38
1.43234e-38
9.64961e-39
6.49622e-39
4.37017e-39
2.93782e-39
1.97352e-39
1.32479e-39
8.8867e-40
5.95698e-40
3.99028e-40
2.67099e-40
1.78663e-40
1.19423e-40
7.97698e-41
5.32456e-41
3.55164e-41
2.36744e-41
1.57706e-41
1.04995e-41
6.98724e-42
4.64963e-42
3.09643e-42
2.06749e-42
1.38985e-42
9.49266e-43
6.71211e-43
5.08549e-43
4.33609e-43
0.810529
0.753905
0.699963
0.648936
0.600924
0.555923
0.513866
0.47464
0.438114
0.404144
0.372583
0.343287
0.316114
0.290928
0.2676
0.246005
0.226029
0.207559
0.190493
0.174733
0.160187
0.146769
0.134398
0.123
0.112503
0.102842
0.0939558
0.085786
0.0782795
0.0713865
0.0650604
0.0592582
0.0539396
0.0490672
0.0446063
0.0405247
0.0367925
0.0333819
0.0302671
0.0274245
0.0248318
0.0224687
0.0203164
0.0183573
0.0165753
0.0149555
0.0134843
0.0121489
0.0109376
0.00983981
0.00884554
0.00794572
0.00713198
0.00639665
0.00573267
0.0051336
0.00459351
0.00410698
0.00366904
0.00327516
0.00292119
0.00260335
0.00231819
0.00206255
0.00183358
0.00162866
0.00144542
0.00128171
0.00113557
0.00100524
0.000889095
0.000785689
0.000693706
0.000611956
0.000539365
0.000474965
0.000417883
0.000367334
0.000322611
0.000283078
0.000248165
0.000217362
0.000190208
0.000166295
0.000145255
0.00012676
0.000110519
9.62688e-05
8.37784e-05
7.28407e-05
6.32718e-05
5.49085e-05
4.76058e-05
4.12356e-05
3.5684e-05
3.08506e-05
2.66465e-05
2.29935e-05
1.98223e-05
1.70722e-05
1.46895e-05
1.26272e-05
1.0844e-05
9.30369e-06
7.97444e-06
6.82849e-06
5.84155e-06
4.99241e-06
4.26255e-06
3.63584e-06
3.09826e-06
2.63758e-06
2.2432e-06
1.90593e-06
1.61778e-06
1.37184e-06
1.16215e-06
9.83539e-07
8.31561e-07
7.02374e-07
5.92671e-07
4.99609e-07
4.20743e-07
3.53975e-07
2.97509e-07
2.49802e-07
2.09537e-07
1.75588e-07
1.46993e-07
1.22933e-07
1.02709e-07
8.57264e-08
7.14808e-08
5.95432e-08
4.95498e-08
4.11926e-08
3.42109e-08
2.83841e-08
2.35264e-08
1.94805e-08
1.61143e-08
1.33166e-08
1.09936e-08
9.06674e-09
7.47018e-09
6.14862e-09
5.05581e-09
4.15309e-09
3.40814e-09
2.79404e-09
2.2883e-09
1.87224e-09
1.5303e-09
1.24956e-09
1.01932e-09
8.30665e-10
6.76256e-10
5.50002e-10
4.46874e-10
3.62722e-10
2.94125e-10
2.38263e-10
1.9282e-10
1.55889e-10
1.25906e-10
1.0159e-10
8.18883e-11
6.59422e-11
5.30487e-11
4.26341e-11
3.42302e-11
2.74557e-11
2.20002e-11
1.76114e-11
1.40842e-11
1.12523e-11
8.98099e-12
7.16109e-12
5.70437e-12
4.53951e-12
3.60898e-12
2.86639e-12
2.27436e-12
1.80284e-12
1.42768e-12
1.12949e-12
8.92704e-13
7.04871e-13
5.56017e-13
4.38172e-13
3.44968e-13
2.71325e-13
2.13196e-13
1.67359e-13
1.31249e-13
1.02831e-13
8.04884e-14
6.29393e-14
4.91691e-14
3.83745e-14
2.9921e-14
2.33073e-14
1.81381e-14
1.41017e-14
1.09531e-14
8.49942e-15
6.58907e-15
5.10323e-15
3.94867e-15
3.05242e-15
2.35734e-15
1.81882e-15
1.40199e-15
1.07966e-15
8.30653e-16
6.3847e-16
4.90289e-16
3.76144e-16
2.88301e-16
2.20765e-16
1.68891e-16
1.29085e-16
9.85685e-17
7.51959e-17
5.73118e-17
4.36405e-17
3.31993e-17
2.52328e-17
1.91601e-17
1.45354e-17
1.10168e-17
8.34222e-18
6.31111e-18
4.77012e-18
3.60208e-18
2.71755e-18
2.04834e-18
1.54252e-18
1.16054e-18
8.7235e-19
6.55128e-19
4.91548e-19
3.68477e-19
2.75968e-19
2.06497e-19
1.54375e-19
1.15304e-19
8.6044e-20
6.41512e-20
4.77857e-20
3.55632e-20
2.64432e-20
1.96443e-20
1.45805e-20
1.08123e-20
8.01082e-21
5.92992e-21
4.38565e-21
3.24067e-21
2.39249e-21
1.76474e-21
1.30055e-21
9.57614e-22
7.04485e-22
5.1781e-22
3.80267e-22
2.79014e-22
2.04542e-22
1.49817e-22
1.09637e-22
8.01641e-23
5.85629e-23
4.27454e-23
3.1173e-23
2.2714e-23
1.65361e-23
1.20281e-23
8.74155e-24
6.34756e-24
4.60524e-24
3.3383e-24
2.41784e-24
1.74969e-24
1.26509e-24
9.13934e-25
6.59689e-25
4.75768e-25
3.42834e-25
2.46834e-25
1.77567e-25
1.2763e-25
9.16594e-26
6.57716e-26
4.71559e-26
3.37809e-26
2.41793e-26
1.72924e-26
1.23568e-26
8.82255e-27
6.29396e-27
4.48637e-27
3.19527e-27
2.27385e-27
1.61681e-27
1.14868e-27
8.15428e-28
5.78383e-28
4.09912e-28
2.90277e-28
2.0539e-28
1.4521e-28
1.02579e-28
7.24053e-29
5.1066e-29
3.59867e-29
2.53398e-29
1.78286e-29
1.25337e-29
8.80436e-30
6.1797e-30
4.33402e-30
3.03717e-30
2.12668e-30
1.48796e-30
1.04024e-30
7.26669e-31
5.07219e-31
3.53763e-31
2.46541e-31
1.71682e-31
1.19459e-31
8.30569e-32
5.77023e-32
4.00564e-32
2.77852e-32
1.92583e-32
1.33379e-32
9.2304e-33
6.38291e-33
4.41045e-33
3.04518e-33
2.10092e-33
1.44835e-33
9.97718e-34
6.86767e-34
4.72368e-34
3.24654e-34
2.22963e-34
1.53009e-34
1.04923e-34
7.1895e-35
4.92265e-35
3.36801e-35
2.30262e-35
1.57306e-35
1.07385e-35
7.32522e-36
4.99313e-36
3.40097e-36
2.31479e-36
1.57434e-36
1.06995e-36
7.26622e-37
4.931e-37
3.34381e-37
2.26585e-37
1.53427e-37
1.03814e-37
7.01931e-38
4.74259e-38
3.20201e-38
2.1603e-38
1.45644e-38
9.81197e-39
6.60553e-39
4.44372e-39
2.98727e-39
2.00674e-39
1.34709e-39
9.03633e-40
6.0573e-40
4.05748e-40
2.71598e-40
1.81672e-40
1.21435e-40
8.11139e-41
5.4143e-41
3.6115e-41
2.40735e-41
1.60365e-41
1.06765e-41
7.10507e-42
4.72805e-42
3.14867e-42
2.10237e-42
1.41331e-42
9.65287e-43
6.82541e-43
5.17135e-43
4.4093e-43
0.811132
0.75564
0.702652
0.652355
0.604847
0.560154
0.518244
0.479044
0.442453
0.408354
0.376623
0.347129
0.319743
0.294337
0.270789
0.248978
0.228792
0.210121
0.192863
0.176922
0.162205
0.148627
0.136108
0.12457
0.113944
0.104163
0.0951656
0.086893
0.0792916
0.0723111
0.0659044
0.060028
0.0546411
0.049706
0.0451876
0.0410533
0.0372727
0.0338179
0.0306627
0.0277831
0.0251567
0.0227628
0.0205824
0.0185977
0.0167924
0.0151515
0.013661
0.0123082
0.0110811
0.00996889
0.0089616
0.00804998
0.00722558
0.0064806
0.00580793
0.005201
0.00465382
0.0041609
0.00371722
0.00331817
0.00295955
0.00263754
0.00234863
0.00208964
0.00185766
0.00165005
0.0014644
0.00129855
0.00115049
0.00101844
0.000900774
0.000796011
0.000702819
0.000619995
0.000546451
0.000481205
0.000423373
0.00037216
0.000326849
0.000286797
0.000251426
0.000220217
0.000192707
0.00016848
0.000147163
0.000128426
0.000111971
9.75337e-05
8.48792e-05
7.37977e-05
6.41031e-05
5.56299e-05
4.82313e-05
4.17774e-05
3.61528e-05
3.12559e-05
2.69967e-05
2.32956e-05
2.00828e-05
1.72965e-05
1.48825e-05
1.27931e-05
1.09865e-05
9.42595e-06
8.07923e-06
6.91822e-06
5.91831e-06
5.05801e-06
4.31856e-06
3.68362e-06
3.13897e-06
2.67224e-06
2.27268e-06
1.93097e-06
1.63903e-06
1.38987e-06
1.17742e-06
9.96465e-07
8.4249e-07
7.11605e-07
6.0046e-07
5.06175e-07
4.26272e-07
3.58628e-07
3.01419e-07
2.53085e-07
2.12291e-07
1.77896e-07
1.48925e-07
1.24549e-07
1.04059e-07
8.68532e-08
7.24204e-08
6.03258e-08
5.02011e-08
4.17341e-08
3.46606e-08
2.87573e-08
2.38356e-08
1.97366e-08
1.63262e-08
1.34916e-08
1.11381e-08
9.18594e-09
7.56839e-09
6.22945e-09
5.12228e-09
4.20769e-09
3.45295e-09
2.83077e-09
2.31839e-09
1.89685e-09