/*--------------------------------*- C++ -*----------------------------------*\
  =========                 |
  \\      /  F ield         | OpenFOAM: The Open Source CFD Toolbox
   \\    /   O peration     | Website:  https://openfoam.org
    \\  /    A nd           | Version:  10
     \\/     M anipulation  |
\*---------------------------------------------------------------------------*/
FoamFile
{
    format      ascii;
    class       volScalarField;
    location    "0.94";
    object      Exp1;
}
// * * * * * * * * * * * * * * * * * * * * * * * * * * * * * * * * * * * * * //

dimensions      [0 0 0 0 0 0 0];

internalField   uniform 0;

boundaryField
{
    frontAndBack
    {
        type            empty;
    }
    inlet
    {
        type            calculated;
        value           uniform 0;
    }
    outlet
    {
        type            calculated;
        value           uniform 0;
    }
    substrate
    {
        type            calculated;
        value           nonuniform List<scalar> 
400
(
3.08961e-16
9.25266e-16
1.53782e-15
2.14498e-15
2.74531e-15
3.33759e-15
3.92072e-15
4.49377e-15
5.05589e-15
5.60639e-15
6.14465e-15
6.67019e-15
7.18259e-15
7.68153e-15
8.16678e-15
8.63817e-15
9.09561e-15
9.53907e-15
9.96856e-15
1.03842e-14
1.0786e-14
1.11742e-14
1.1549e-14
1.19105e-14
1.22591e-14
1.2595e-14
1.29185e-14
1.32298e-14
1.35293e-14
1.38173e-14
1.40941e-14
1.436e-14
1.46153e-14
1.48604e-14
1.50956e-14
1.53211e-14
1.55373e-14
1.57445e-14
1.5943e-14
1.61331e-14
1.6315e-14
1.64891e-14
1.66556e-14
1.68147e-14
1.69668e-14
1.71119e-14
1.72505e-14
1.73827e-14
1.75087e-14
1.76287e-14
1.7743e-14
1.78516e-14
1.79549e-14
1.8053e-14
1.8146e-14
1.82341e-14
1.83175e-14
1.83963e-14
1.84706e-14
1.85407e-14
1.86066e-14
1.86684e-14
1.87263e-14
1.87803e-14
1.88307e-14
1.88774e-14
1.89207e-14
1.89605e-14
1.8997e-14
1.90302e-14
1.90603e-14
1.90873e-14
1.91114e-14
1.91325e-14
1.91507e-14
1.91662e-14
1.91789e-14
1.9189e-14
1.91965e-14
1.92014e-14
1.92038e-14
1.92038e-14
1.92014e-14
1.91967e-14
1.91897e-14
1.91804e-14
1.91689e-14
1.91553e-14
1.91395e-14
1.91217e-14
1.91018e-14
1.908e-14
1.90561e-14
1.90303e-14
1.90027e-14
1.89731e-14
1.89417e-14
1.89086e-14
1.88736e-14
1.88369e-14
1.87985e-14
1.87584e-14
1.87167e-14
1.86734e-14
1.86284e-14
1.85819e-14
1.85338e-14
1.84843e-14
1.84332e-14
1.83807e-14
1.83267e-14
1.82713e-14
1.82145e-14
1.81564e-14
1.80969e-14
1.80361e-14
1.7974e-14
1.79106e-14
1.7846e-14
1.77801e-14
1.77131e-14
1.76448e-14
1.75754e-14
1.75049e-14
1.74333e-14
1.73606e-14
1.72868e-14
1.72119e-14
1.7136e-14
1.70592e-14
1.69813e-14
1.69025e-14
1.68227e-14
1.6742e-14
1.66605e-14
1.6578e-14
1.64947e-14
1.64106e-14
1.63256e-14
1.62399e-14
1.61533e-14
1.60661e-14
1.59781e-14
1.58894e-14
1.58e-14
1.57099e-14
1.56192e-14
1.55278e-14
1.54358e-14
1.53433e-14
1.52501e-14
1.51565e-14
1.50623e-14
1.49675e-14
1.48723e-14
1.47766e-14
1.46805e-14
1.45839e-14
1.44869e-14
1.43895e-14
1.42918e-14
1.41936e-14
1.40951e-14
1.39963e-14
1.38972e-14
1.37978e-14
1.36982e-14
1.35983e-14
1.34981e-14
1.33977e-14
1.32972e-14
1.31964e-14
1.30955e-14
1.29945e-14
1.28933e-14
1.2792e-14
1.26905e-14
1.25891e-14
1.24875e-14
1.23859e-14
1.22843e-14
1.21826e-14
1.20809e-14
1.19793e-14
1.18777e-14
1.17761e-14
1.16746e-14
1.15731e-14
1.14717e-14
1.13705e-14
1.12693e-14
1.11683e-14
1.10674e-14
1.09667e-14
1.08661e-14
1.07657e-14
1.06656e-14
1.05656e-14
1.04658e-14
1.03663e-14
1.0267e-14
1.0168e-14
1.00693e-14
9.9708e-15
9.87262e-15
9.77475e-15
9.67718e-15
9.57994e-15
9.48304e-15
9.38648e-15
9.29028e-15
9.19445e-15
9.09899e-15
9.00391e-15
8.90923e-15
8.81495e-15
8.72109e-15
8.62765e-15
8.53464e-15
8.44206e-15
8.34994e-15
8.25826e-15
8.16706e-15
8.07632e-15
7.98606e-15
7.89629e-15
7.807e-15
7.71822e-15
7.62994e-15
7.54218e-15
7.45493e-15
7.36821e-15
7.28202e-15
7.19637e-15
7.11125e-15
7.02669e-15
6.94268e-15
6.85922e-15
6.77633e-15
6.694e-15
6.61225e-15
6.53107e-15
6.45047e-15
6.37046e-15
6.29103e-15
6.2122e-15
6.13396e-15
6.05632e-15
5.97927e-15
5.90284e-15
5.82701e-15
5.75178e-15
5.67718e-15
5.60318e-15
5.5298e-15
5.45704e-15
5.3849e-15
5.31338e-15
5.24249e-15
5.17222e-15
5.10258e-15
5.03356e-15
4.96518e-15
4.89742e-15
4.83029e-15
4.76379e-15
4.69793e-15
4.63269e-15
4.56809e-15
4.50412e-15
4.44078e-15
4.37808e-15
4.316e-15
4.25456e-15
4.19374e-15
4.13356e-15
4.07401e-15
4.01508e-15
3.95678e-15
3.89911e-15
3.84207e-15
3.78565e-15
3.72985e-15
3.67468e-15
3.62012e-15
3.56619e-15
3.51287e-15
3.46017e-15
3.40808e-15
3.3566e-15
3.30573e-15
3.25548e-15
3.20582e-15
3.15678e-15
3.10833e-15
3.06048e-15
3.01323e-15
2.96658e-15
2.92051e-15
2.87504e-15
2.83015e-15
2.78585e-15
2.74213e-15
2.69899e-15
2.65643e-15
2.61444e-15
2.57302e-15
2.53217e-15
2.49188e-15
2.45216e-15
2.413e-15
2.37439e-15
2.33634e-15
2.29883e-15
2.26188e-15
2.22547e-15
2.18959e-15
2.15426e-15
2.11946e-15
2.0852e-15
2.05146e-15
2.01825e-15
1.98556e-15
1.95339e-15
1.92173e-15
1.89059e-15
1.85995e-15
1.82983e-15
1.8002e-15
1.77108e-15
1.74245e-15
1.71432e-15
1.68668e-15
1.65952e-15
1.63285e-15
1.60666e-15
1.58094e-15
1.5557e-15
1.53094e-15
1.50664e-15
1.48281e-15
1.45944e-15
1.43653e-15
1.41407e-15
1.39207e-15
1.37052e-15
1.34942e-15
1.32876e-15
1.30855e-15
1.28878e-15
1.26944e-15
1.25053e-15
1.23206e-15
1.21401e-15
1.1964e-15
1.1792e-15
1.16243e-15
1.14607e-15
1.13013e-15
1.1146e-15
1.09949e-15
1.08478e-15
1.07048e-15
1.05659e-15
1.04309e-15
1.03e-15
1.0173e-15
1.005e-15
9.93098e-16
9.81584e-16
9.70461e-16
9.59726e-16
9.49378e-16
9.39415e-16
9.29835e-16
9.20636e-16
9.11818e-16
9.03379e-16
8.95316e-16
8.8763e-16
8.80318e-16
8.7338e-16
8.66813e-16
8.60618e-16
8.54793e-16
8.49336e-16
8.44248e-16
8.39526e-16
8.35171e-16
8.31182e-16
8.27557e-16
8.24296e-16
8.21399e-16
8.18866e-16
8.16695e-16
8.14886e-16
8.1344e-16
8.12356e-16
8.11633e-16
8.11272e-16
)
;
    }
    Wall
    {
        type            calculated;
        value           nonuniform List<scalar> 
400
(
3.08962e-16
9.25268e-16
1.53782e-15
2.14498e-15
2.74532e-15
3.33759e-15
3.92073e-15
4.49377e-15
5.0559e-15
5.60639e-15
6.14466e-15
6.67019e-15
7.18259e-15
7.68153e-15
8.16678e-15
8.63817e-15
9.09561e-15
9.53907e-15
9.96856e-15
1.03842e-14
1.0786e-14
1.11742e-14
1.1549e-14
1.19105e-14
1.22591e-14
1.2595e-14
1.29185e-14
1.32298e-14
1.35293e-14
1.38173e-14
1.40941e-14
1.436e-14
1.46153e-14
1.48604e-14
1.50955e-14
1.53211e-14
1.55373e-14
1.57445e-14
1.5943e-14
1.61331e-14
1.6315e-14
1.64891e-14
1.66556e-14
1.68147e-14
1.69667e-14
1.71119e-14
1.72505e-14
1.73827e-14
1.75087e-14
1.76287e-14
1.77429e-14
1.78516e-14
1.79549e-14
1.80529e-14
1.81459e-14
1.82341e-14
1.83175e-14
1.83963e-14
1.84706e-14
1.85407e-14
1.86065e-14
1.86683e-14
1.87262e-14
1.87803e-14
1.88306e-14
1.88774e-14
1.89206e-14
1.89604e-14
1.89969e-14
1.90302e-14
1.90603e-14
1.90873e-14
1.91113e-14
1.91324e-14
1.91507e-14
1.91661e-14
1.91789e-14
1.9189e-14
1.91964e-14
1.92013e-14
1.92038e-14
1.92038e-14
1.92014e-14
1.91967e-14
1.91896e-14
1.91804e-14
1.91689e-14
1.91552e-14
1.91395e-14
1.91217e-14
1.91018e-14
1.90799e-14
1.90561e-14
1.90303e-14
1.90026e-14
1.8973e-14
1.89417e-14
1.89085e-14
1.88735e-14
1.88369e-14
1.87985e-14
1.87584e-14
1.87167e-14
1.86733e-14
1.86284e-14
1.85818e-14
1.85338e-14
1.84842e-14
1.84331e-14
1.83806e-14
1.83266e-14
1.82712e-14
1.82145e-14
1.81563e-14
1.80968e-14
1.8036e-14
1.79739e-14
1.79105e-14
1.78459e-14
1.77801e-14
1.7713e-14
1.76448e-14
1.75754e-14
1.75049e-14
1.74332e-14
1.73605e-14
1.72867e-14
1.72118e-14
1.7136e-14
1.70591e-14
1.69812e-14
1.69024e-14
1.68227e-14
1.6742e-14
1.66604e-14
1.6578e-14
1.64947e-14
1.64105e-14
1.63256e-14
1.62398e-14
1.61533e-14
1.6066e-14
1.5978e-14
1.58893e-14
1.57999e-14
1.57098e-14
1.56191e-14
1.55277e-14
1.54358e-14
1.53432e-14
1.52501e-14
1.51564e-14
1.50622e-14
1.49675e-14
1.48723e-14
1.47766e-14
1.46804e-14
1.45839e-14
1.44869e-14
1.43895e-14
1.42917e-14
1.41936e-14
1.40951e-14
1.39963e-14
1.38972e-14
1.37978e-14
1.36981e-14
1.35982e-14
1.34981e-14
1.33977e-14
1.32971e-14
1.31964e-14
1.30955e-14
1.29944e-14
1.28932e-14
1.27919e-14
1.26905e-14
1.2589e-14
1.24875e-14
1.23858e-14
1.22842e-14
1.21825e-14
1.20809e-14
1.19792e-14
1.18776e-14
1.1776e-14
1.16745e-14
1.15731e-14
1.14717e-14
1.13704e-14
1.12693e-14
1.11682e-14
1.10674e-14
1.09666e-14
1.08661e-14
1.07657e-14
1.06655e-14
1.05656e-14
1.04658e-14
1.03663e-14
1.0267e-14
1.0168e-14
1.00692e-14
9.97077e-15
9.87259e-15
9.77471e-15
9.67715e-15
9.57991e-15
9.48301e-15
9.38645e-15
9.29025e-15
9.19441e-15
9.09895e-15
9.00388e-15
8.9092e-15
8.81492e-15
8.72106e-15
8.62762e-15
8.5346e-15
8.44203e-15
8.34991e-15
8.25824e-15
8.16703e-15
8.07629e-15
7.98603e-15
7.89626e-15
7.80697e-15
7.71819e-15
7.62992e-15
7.54215e-15
7.45491e-15
7.36818e-15
7.28199e-15
7.19634e-15
7.11123e-15
7.02666e-15
6.94265e-15
6.8592e-15
6.77631e-15
6.69398e-15
6.61223e-15
6.53105e-15
6.45045e-15
6.37044e-15
6.29101e-15
6.21218e-15
6.13394e-15
6.05629e-15
5.97925e-15
5.90282e-15
5.82698e-15
5.75176e-15
5.67715e-15
5.60316e-15
5.52978e-15
5.45702e-15
5.38488e-15
5.31336e-15
5.24247e-15
5.1722e-15
5.10256e-15
5.03354e-15
4.96516e-15
4.8974e-15
4.83027e-15
4.76378e-15
4.69791e-15
4.63268e-15
4.56807e-15
4.5041e-15
4.44077e-15
4.37806e-15
4.31598e-15
4.25454e-15
4.19373e-15
4.13354e-15
4.07399e-15
4.01507e-15
3.95677e-15
3.8991e-15
3.84205e-15
3.78563e-15
3.72984e-15
3.67466e-15
3.62011e-15
3.56617e-15
3.51286e-15
3.46015e-15
3.40806e-15
3.35659e-15
3.30572e-15
3.25546e-15
3.20581e-15
3.15676e-15
3.10832e-15
3.06047e-15
3.01322e-15
2.96657e-15
2.9205e-15
2.87503e-15
2.83014e-15
2.78584e-15
2.74212e-15
2.69898e-15
2.65642e-15
2.61443e-15
2.57301e-15
2.53216e-15
2.49188e-15
2.45215e-15
2.41299e-15
2.37438e-15
2.33633e-15
2.29883e-15
2.26187e-15
2.22546e-15
2.18959e-15
2.15425e-15
2.11946e-15
2.08519e-15
2.05145e-15
2.01824e-15
1.98555e-15
1.95338e-15
1.92172e-15
1.89058e-15
1.85995e-15
1.82982e-15
1.8002e-15
1.77107e-15
1.74245e-15
1.71431e-15
1.68667e-15
1.65951e-15
1.63284e-15
1.60665e-15
1.58094e-15
1.5557e-15
1.53093e-15
1.50663e-15
1.4828e-15
1.45943e-15
1.43652e-15
1.41407e-15
1.39207e-15
1.37052e-15
1.34942e-15
1.32876e-15
1.30855e-15
1.28877e-15
1.26943e-15
1.25053e-15
1.23206e-15
1.21401e-15
1.19639e-15
1.1792e-15
1.16242e-15
1.14607e-15
1.13013e-15
1.1146e-15
1.09948e-15
1.08478e-15
1.07048e-15
1.05658e-15
1.04309e-15
1.02999e-15
1.0173e-15
1.005e-15
9.93094e-16
9.81581e-16
9.70458e-16
9.59723e-16
9.49375e-16
9.39412e-16
9.29832e-16
9.20633e-16
9.11815e-16
9.03376e-16
8.95314e-16
8.87627e-16
8.80315e-16
8.73377e-16
8.66811e-16
8.60615e-16
8.5479e-16
8.49333e-16
8.44245e-16
8.39523e-16
8.35168e-16
8.31179e-16
8.27554e-16
8.24293e-16
8.21396e-16
8.18862e-16
8.16691e-16
8.14883e-16
8.13437e-16
8.12353e-16
8.1163e-16
8.11268e-16
)
;
    }
}


// ************************************************************************* //
