/*--------------------------------*- C++ -*----------------------------------*\
  =========                 |
  \\      /  F ield         | OpenFOAM: The Open Source CFD Toolbox
   \\    /   O peration     | Website:  https://openfoam.org
    \\  /    A nd           | Version:  10
     \\/     M anipulation  |
\*---------------------------------------------------------------------------*/
FoamFile
{
    format      ascii;
    class       volScalarField;
    location    "4.5";
    object      p;
}
// * * * * * * * * * * * * * * * * * * * * * * * * * * * * * * * * * * * * * //

dimensions      [1 -1 -2 0 0 0 0];

internalField   nonuniform List<scalar> 
5250
(
1
1.00003
1.00008
1.00022
1.00051
1.00136
1.00308
1.00829
1.01881
1.05038
1.11945
1.31697
1.84572
3.41662
7.99179
11.6929
11.2871
11.0413
11.1249
11.3543
11.5823
11.7216
11.8265
11.9091
11.9718
1.00001
1.00003
1.00008
1.00021
1.0005
1.00132
1.00311
1.00788
1.01931
1.04787
1.1201
1.30864
1.8332
3.37085
7.87712
11.7066
11.2867
11.0315
11.116
11.3464
11.5743
11.7139
11.8204
11.9044
11.9685
1.00001
1.00003
1.00008
1.00019
1.00052
1.0012
1.00316
1.00737
1.01899
1.0458
1.11661
1.2962
1.80273
3.27505
7.61956
11.7339
11.2825
11.0015
11.0846
11.3127
11.5387
11.6765
11.7825
11.866
11.9306
1
1.00003
1.00007
1.0002
1.00046
1.00123
1.00278
1.00748
1.01696
1.04535
1.10732
1.28361
1.75128
3.13535
7.22231
11.7735
11.2771
10.9521
11.0306
11.2523
11.4752
11.6094
11.7125
11.7942
11.8601
1
1.00002
1.00007
1.00017
1.00046
1.00105
1.00282
1.00635
1.01717
1.03932
1.10408
1.25651
1.69646
2.95129
6.70101
11.8099
11.2703
10.8863
10.9567
11.1669
11.3861
11.5149
11.6128
11.6918
11.7603
1
1.00002
1.00007
1.00015
1.00042
1.00096
1.00258
1.00586
1.01556
1.03629
1.09407
1.2337
1.62656
2.74503
6.07732
11.793
11.2508
10.8047
10.8631
11.0541
11.2665
11.3861
11.4747
11.5469
11.6172
1
1.00002
1.00005
1.00016
1.00035
1.00096
1.00214
1.00579
1.01304
1.03491
1.08183
1.21472
1.55587
2.55147
5.48331
11.6342
11.1754
10.7017
10.747
10.9106
11.1094
11.2139
11.2854
11.3419
11.4088
1
1.00002
1.00005
1.00014
1.00033
1.00084
1.00205
1.00499
1.0126
1.03026
1.07683
1.19177
1.50478
2.39487
5.03825
11.1885
10.9808
10.5864
10.6117
10.732
10.9066
10.9873
11.0293
11.0509
11.0939
1
1.00002
1.00005
1.00012
1.0003
1.00076
1.0018
1.0047
1.01085
1.02864
1.0675
1.17574
1.45184
2.25019
4.59786
10.4844
10.6973
10.5124
10.4662
10.527
10.655
10.6971
10.6874
10.6358
10.5859
1
1.00001
1.00004
1.0001
1.00028
1.00064
1.00173
1.0039
1.01051
1.02391
1.0635
1.1525
1.40595
2.09985
4.15834
9.60533
10.5384
10.4127
10.2864
10.3078
10.361
10.3443
10.2545
10.0338
9.69391
1
1.00001
1.00004
1.0001
1.00023
1.00062
1.00139
1.00374
1.00855
1.02247
1.05322
1.13736
1.34899
1.95465
3.70858
8.56801
10.4276
10.3142
10.0994
10.0676
10.0432
9.94939
9.69158
9.09014
7.53169
1
1.00001
1.00003
1.00008
1.00021
1.00049
1.00129
1.00302
1.00767
1.01867
1.04639
1.11594
1.29732
1.79836
3.25088
7.37297
10.3449
10.2165
9.93182
9.81991
9.73104
9.53641
9.12069
8.28855
6.64047
1
1.00001
1.00003
1.00007
1.00018
1.00041
1.00108
1.00245
1.00659
1.01482
1.03992
1.09313
1.24612
1.64073
2.7912
6.07082
10.2356
10.1099
9.7901
9.57869
9.42298
9.14542
8.62751
7.76595
6.42231
1
1.00001
1.00002
1.00005
1.00014
1.00034
1.00085
1.00208
1.00503
1.01272
1.03035
1.07719
1.19106
1.50062
2.36074
4.79424
9.91951
9.90636
9.6778
9.35754
9.12859
8.80335
8.268
7.46908
6.39375
1
1.00001
1.00002
1.00005
1.00011
1.00029
1.00066
1.00176
1.00399
1.01058
1.02444
1.06337
1.15411
1.40474
2.09008
4.07019
9.02381
9.6317
9.47911
9.15327
8.86614
8.51746
8.00398
7.2888
6.3918
1
1
1.00001
1.00003
1.0001
1.00022
1.00058
1.0013
1.00349
1.00791
1.02095
1.04898
1.12673
1.31853
1.86272
3.40427
7.5495
9.35587
9.26254
8.9971
8.64859
8.28151
7.79849
7.1601
6.3877
1
1
1.00001
1.00003
1.00007
1.00018
1.00044
1.00105
1.00272
1.0062
1.0165
1.03793
1.09947
1.24455
1.65584
2.79979
5.99144
9.16614
9.11878
8.89296
8.48119
8.08948
7.63185
7.05775
6.38032
1
1
1.00001
1.00002
1.00005
1.00014
1.00032
1.00084
1.00192
1.00506
1.0114
1.03043
1.07026
1.18342
1.46406
2.25134
4.37944
8.75115
8.98016
8.79602
8.38188
7.94225
7.49574
6.9737
6.37139
1
1
1.00001
1.00002
1.00004
1.0001
1.00026
1.00059
1.00158
1.00355
1.00941
1.02164
1.05608
1.13526
1.35254
1.93404
3.57737
7.68458
8.72759
8.60764
8.28394
7.82197
7.38206
6.90198
6.36131
1
1
1
1.00001
1.00003
1.00008
1.00018
1.00048
1.00108
1.0029
1.00652
1.01736
1.03991
1.10431
1.25583
1.68575
2.86482
6.04361
8.45493
8.41277
8.19633
7.74548
7.29371
6.84087
6.35042
1
1
1
1.00001
1.00002
1.00005
1.00014
1.00032
1.00086
1.00191
1.00511
1.01145
1.03038
1.0704
1.18267
1.4603
2.22831
4.24611
7.9997
8.27542
8.11593
7.7261
7.23954
6.79499
6.34193
1
1
1
1.00001
1.00002
1.00004
1.00009
1.00025
1.00057
1.00149
1.00344
1.00875
1.02098
1.05198
1.12863
1.32717
1.86245
3.32616
6.91167
8.04992
7.95941
7.68521
7.21434
6.76695
6.33838
1
1
1
1
1.00001
1.00003
1.00007
1.00018
1.0004
1.00107
1.00239
1.00641
1.01431
1.03823
1.08849
1.23182
1.59133
2.59731
5.2239
7.7185
7.7482
7.60013
7.22864
6.76805
6.34106
1
1
1
1
1.00001
1.00002
1.00005
1.00012
1.0003
1.00068
1.00178
1.00402
1.0106
1.02397
1.0629
1.14855
1.38651
1.99792
3.59831
7.01796
7.61663
7.51418
7.22766
6.78268
6.35239
1
1
1
1
1.00001
1.00001
1.00003
1.00008
1.0002
1.00047
1.00122
1.00276
1.00727
1.01635
1.0433
1.1005
1.262
1.66865
2.78264
5.57122
7.36497
7.3523
7.20388
6.83861
6.38165
1
1
1
1
1
1.00001
1.00002
1.00006
1.00013
1.00033
1.00077
1.00191
1.00463
1.01107
1.02774
1.06611
1.16637
1.41811
2.08166
3.74396
6.83392
7.24889
7.15015
6.885
6.44034
1
1
1
1
1
1.00001
1.00001
1.00004
1.00008
1.00022
1.0005
1.00131
1.00297
1.00762
1.01791
1.04457
1.10878
1.27364
1.70484
2.84448
5.62283
7.02674
7.01635
6.87476
6.54145
1
1
1
1
1
1
1.00001
1.00002
1.00006
1.00014
1.00033
1.00084
1.00192
1.00499
1.01123
1.02956
1.06767
1.175
1.43263
2.1227
3.82986
6.52413
6.90495
6.82377
6.59379
1
1
1
1
1
1
1.00001
1.00001
1.00004
1.00009
1.00022
1.00052
1.00128
1.00312
1.00738
1.01861
1.04347
1.11079
1.26945
1.69899
2.789
5.38816
6.67474
6.68765
6.57813
1
1
1
1
1
1
1
1.00001
1.00002
1.00006
1.00013
1.00034
1.0008
1.00193
1.00476
1.01117
1.02813
1.06634
1.16679
1.41477
2.05686
3.62404
6.15136
6.57704
6.52294
1
1
1
1
1
1
1
1.00001
1.00001
1.00004
1.00008
1.00022
1.00048
1.00125
1.00284
1.00724
1.01697
1.04187
1.10188
1.25321
1.64186
2.63303
4.98249
6.3322
6.40521
1
1
1
1
1
1
1
1
1.00001
1.00002
1.00005
1.00013
1.0003
1.00074
1.00172
1.00439
1.0099
1.02569
1.05846
1.14981
1.36188
1.91233
3.20285
5.7667
6.2915
1
1
1
1
1
1
1
1
1.00001
1.00001
1.00003
1.00008
1.00019
1.00045
1.00106
1.00269
1.00607
1.01576
1.03562
1.09215
1.21798
1.56194
2.40923
4.48109
5.99144
1
1
1
1
1
1
1
1
1
1.00001
1.00002
1.00004
1.00012
1.00026
1.00067
1.00149
1.00385
1.0087
1.02214
1.05141
1.12865
1.31291
1.78336
2.90549
5.27901
1
1
1
1
1
1
1
1
1
1
1.00001
1.00003
1.00007
1.00016
1.00039
1.0009
1.00228
1.00513
1.01331
1.02983
1.07748
1.1804
1.46248
2.14183
3.78864
1
1
1
1
1
1
1
1
1
1
1.00001
1.00002
1.00004
1.00009
1.00022
1.00055
1.00125
1.00319
1.00717
1.01852
1.0418
1.10713
1.25421
1.63961
2.56097
1
1
1
1
1
1
1
1
1
1
1
1.00001
1.00002
1.00005
1.00013
1.0003
1.00076
1.00169
1.00437
1.00966
1.02505
1.05628
1.14378
1.34016
1.84029
1
1
1
1
1
1
1
1
1
1
1
1.00001
1.00001
1.00003
1.00007
1.00018
1.00041
1.00103
1.00239
1.00575
1.014
1.03276
1.08146
1.19418
1.48525
1
1
1
1
1
1
1
1
1
1
1
1
1.00001
1.00002
1.00004
1.0001
1.00023
1.00058
1.0013
1.00334
1.0074
1.01916
1.04283
1.10974
1.25745
1
1
1
1
1
1
1
1
1
1
1
1
1
1.00001
1.00002
1.00005
1.00013
1.0003
1.00077
1.0017
1.00438
1.00966
1.02498
1.05574
1.14212
1
1
1
1
1
1
1
1
1
1
1
1
1
1.00001
1.00001
1.00003
1.00007
1.00017
1.00043
1.00095
1.00244
1.00538
1.01391
1.03079
1.07946
1
1
1
1
1
1
1
1
1
1
1
1
1
1
1.00001
1.00002
1.00004
1.0001
1.00022
1.00056
1.00125
1.00318
1.00712
1.01797
1.04115
1
1
1
1
1
1
1
1
1
1
1
1
1
1
1
1.00001
1.00002
1.00005
1.00013
1.00029
1.00076
1.00167
1.00428
1.00952
1.02413
1
1
1
1
1
1
1
1
1
1
1
1
1
1
1
1.00001
1.00001
1.00003
1.00008
1.00019
1.00048
1.00106
1.00275
1.00607
1.01581
1
1
1
1
1
1
1
1
1
1
1
1
1
1
1
1
1.00001
1.00002
1.00006
1.00014
1.00036
1.00086
1.00206
1.00514
1.01201
1
1
1
1
1
1
1
1
1
1
1
1
1
1
1
1
1.00001
1.00002
1.00005
1.00013
1.0003
1.00079
1.00178
1.00476
1.01081
1
1
1
1
1
1
1
1
1
1
1
1
1
1
1
1
1.00001
1.00002
1.00005
1.00012
1.00029
1.00073
1.00175
1.0045
1.01049
1
1
1
1
1
1
1
1
1
1
1
1
1
1
1
1
1.00001
1.00002
1.00005
1.00011
1.0003
1.00069
1.0018
1.00426
1.01075
1
1
1
1
1
1
1
1
1
1
1
1
1
1
1
1
1.00001
1.00002
1.00005
1.00011
1.0003
1.00067
1.00182
1.00411
1.01106
1
1
1
1
1
1
1
1
1
1
1
1
1
1
1
1
1.00001
1.00002
1.00005
1.00012
1.00028
1.0007
1.00176
1.00421
1.01087
3.02715
1.53342
1.03858
0.948867
0.979049
1.0728
1.27081
1.46433
1.59495
1.78066
2.17463
2.93739
3.25797
3.35412
3.38482
3.35547
3.29731
3.24428
3.21141
3.18489
3.15298
3.1155
3.07671
3.03876
2.99886
2.97011
2.95752
2.95423
2.96395
3.00554
3.08497
3.19926
3.33756
3.48887
3.63822
3.77737
3.90323
4.01476
4.11411
4.19947
4.27042
4.3292
4.3781
4.4205
4.45154
4.47171
4.48357
4.48863
4.48751
4.48215
4.46959
4.45056
4.4275
4.40166
4.37228
4.34024
4.3053
4.26838
4.22924
4.18872
4.14653
4.10339
4.059
4.01394
3.96795
3.92146
3.87427
3.82672
3.77867
3.73041
3.68181
3.63315
3.58433
3.53559
3.48687
3.43835
3.39004
3.34208
3.29449
3.24739
3.20082
3.15485
3.10956
3.06497
3.02116
2.97814
2.93599
2.89469
2.85436
2.81499
2.77673
2.7396
2.70385
2.66955
2.63709
2.60682
2.57948
2.55614
2.53801
2.53033
3.73091
2.33938
1.74621
1.49825
1.38563
1.31823
1.3248
1.36114
1.45726
1.6676
2.09825
2.86826
3.26925
3.37495
3.37168
3.34218
3.2828
3.23927
3.22191
3.19631
3.16159
3.11853
3.07212
3.03095
2.995
2.96704
2.95351
2.94974
2.9587
2.99573
3.0714
3.18396
3.31988
3.47146
3.62082
3.7589
3.8842
3.99467
4.09761
4.18479
4.25634
4.31656
4.36647
4.40903
4.4405
4.46177
4.4743
4.47975
4.47905
4.47489
4.46387
4.44381
4.42065
4.39516
4.36641
4.33482
4.30034
4.26372
4.22497
4.18467
4.14279
4.0998
4.05564
4.01068
3.96486
3.91846
3.87142
3.82397
3.77607
3.72789
3.67944
3.63086
3.58218
3.53351
3.48491
3.43646
3.38825
3.34035
3.29286
3.24582
3.19934
3.15345
3.10826
3.06375
3.02005
2.97711
2.93507
2.89387
2.85367
2.81444
2.77634
2.73938
2.70382
2.66973
2.63749
2.60743
2.58027
2.55707
2.53877
2.53204
4.55989
3.2634
2.4468
1.93115
1.60064
1.39896
1.31576
1.32737
1.38163
1.52581
1.85407
2.56285
3.17088
3.34582
3.34329
3.32583
3.28545
3.24096
3.212
3.18301
3.14875
3.10989
3.06914
3.0326
2.99725
2.96826
2.94733
2.93834
2.94154
2.97626
3.05016
3.16109
3.29231
3.44565
3.59733
3.73749
3.8648
3.97812
4.08021
4.16744
4.24034
4.3015
4.35229
4.39415
4.42603
4.4482
4.46153
4.46741
4.46698
4.46384
4.4548
4.43588
4.41171
4.38594
4.35775
4.32679
4.29297
4.25682
4.21854
4.17859
4.13708
4.09434
4.05046
4.00568
3.96007
3.91381
3.86696
3.81965
3.77193
3.72391
3.67565
3.62722
3.57871
3.53019
3.48173
3.43341
3.38534
3.33757
3.29022
3.24331
3.197
3.15126
3.10625
3.06192
3.0184
2.97568
2.93386
2.8929
2.85292
2.81396
2.77619
2.7396
2.70442
2.67075
2.63898
2.60944
2.58283
2.56025
2.54224
2.53694
5.01764
3.84183
2.97222
2.3668
1.96295
1.69287
1.52882
1.4601
1.47038
1.5252
1.68816
2.07297
2.86974
3.26735
3.33041
3.3217
3.29568
3.25044
3.21476
3.1827
3.14574
3.10808
3.06856
3.02984
2.99338
2.96557
2.94737
2.93951
2.94624
2.9781
3.04765
3.15339
3.28215
3.42425
3.57141
3.70996
3.83599
3.9491
4.05014
4.13822
4.2129
4.27565
4.32767
4.37011
4.40284
4.42616
4.44062
4.4474
4.44725
4.44515
4.43833
4.42285
4.39789
4.37161
4.34384
4.31369
4.28079
4.2454
4.20782
4.16843
4.12745
4.08514
4.04167
3.99724
3.95196
3.906
3.85945
3.81241
3.76498
3.71722
3.66924
3.62106
3.57281
3.5245
3.47628
3.42816
3.38031
3.33274
3.28562
3.23894
3.19289
3.14742
3.10272
3.0587
3.01542
2.97306
2.93164
2.8911
2.85164
2.81318
2.77597
2.74001
2.70554
2.67267
2.64181
2.61328
2.58777
2.56654
2.54956
2.54664
5.29343
4.26172
3.42346
2.79116
2.32945
1.99601
1.75767
1.59497
1.52738
1.54078
1.60866
1.80681
2.26152
3.04524
3.29077
3.31755
3.30596
3.27413
3.22842
3.18991
3.15158
3.11356
3.07513
3.03836
3.00672
2.98408
2.97195
2.97293
2.98427
3.01936
3.08958
3.17936
3.28865
3.41398
3.54199
3.67215
3.79565
3.90917
4.01118
4.10075
4.17739
4.24203
4.29566
4.33927
4.3732
4.39787
4.41376
4.42181
4.42235
4.42101
4.41612
4.40439
4.38091
4.35452
4.32678
4.29721
4.26522
4.23078
4.19407
4.15543
4.11511
4.07337
4.03042
3.98644
3.9416
3.89603
3.84987
3.8032
3.75614
3.70874
3.6611
3.61325
3.56532
3.51731
3.46938
3.42155
3.37399
3.32672
3.27993
3.23359
3.18792
3.14285
3.09855
3.05499
3.01241
2.9705
2.92958
2.88961
2.85076
2.81304
2.77665
2.74162
2.70823
2.67661
2.64719
2.6203
2.59666
2.57754
2.56297
2.56302
5.47996
4.58291
3.80559
3.17527
2.68469
2.30837
2.02461
1.81603
1.66877
1.62712
1.64755
1.73484
1.97638
2.52158
3.13251
3.29782
3.30488
3.2923
3.25921
3.20898
3.16615
3.12841
3.09122
3.06005
3.03806
3.02712
3.02886
3.04062
3.07351
3.13349
3.19316
3.25617
3.33119
3.41843
3.51555
3.62011
3.73457
3.85052
3.9577
4.05169
4.13169
4.19881
4.25431
4.29949
4.33499
4.36141
4.37919
4.38906
4.39121
4.39032
4.38686
4.37811
4.35971
4.33374
4.30593
4.27671
4.24554
4.21212
4.17644
4.13873
4.09924
4.05823
4.01594
3.97255
3.92827
3.88321
3.83755
3.79135
3.74475
3.69778
3.65057
3.60312
3.55557
3.50791
3.46034
3.41286
3.36569
3.3188
3.27246
3.2265
3.18139
3.13692
3.09327
3.05032
3.00829
2.96707
2.92688
2.8877
2.84979
2.81314
2.77797
2.74429
2.71252
2.68277
2.65555
2.63119
2.6106
2.59438
2.58568
2.58668
5.60872
4.82913
4.11773
3.51053
3.01158
2.61162
2.2943
2.04747
1.86125
1.7289
1.71055
1.73786
1.84171
2.11511
2.70341
3.17709
3.29132
3.29008
3.27692
3.2442
3.19346
3.15119
3.11552
3.09417
3.087
3.09048
3.10684
3.15043
3.23922
3.31505
3.35829
3.38822
3.41861
3.45201
3.50551
3.56379
3.6471
3.76235
3.87964
3.98444
4.0729
4.14555
4.20442
4.25178
4.28915
4.31757
4.33761
4.34984
4.35448
4.35404
4.35188
4.34593
4.3328
4.3093
4.28214
4.25325
4.22271
4.19022
4.15562
4.11897
4.08047
4.04034
3.99885
3.95618
3.91257
3.86814
3.82308
3.77744
3.73139
3.68494
3.63822
3.59123
3.54412
3.49691
3.44977
3.40273
3.35604
3.30962
3.26388
3.2188
3.17436
3.13058
3.08763
3.0454
3.00413
2.96375
2.92454
2.88648
2.84988
2.81463
2.7811
2.74938
2.71988
2.69278
2.66866
2.64788
2.63148
2.61985
2.61745
2.61914
5.70174
5.01633
4.36992
3.79489
3.30343
2.8933
2.55641
2.28344
2.06506
1.90042
1.78631
1.78898
1.82564
1.94654
2.23615
2.83354
3.19809
3.27824
3.27596
3.26268
3.23069
3.1846
3.14951
3.14122
3.14573
3.16495
3.21651
3.32983
3.4818
3.56329
3.58001
3.57542
3.55873
3.52353
3.52433
3.53946
3.5777
3.65479
3.77096
3.88763
3.99095
4.07589
4.14286
4.19511
4.23559
4.26643
4.28893
4.30383
4.31158
4.31226
4.31122
4.30758
4.29878
4.28058
4.25494
4.2267
4.19677
4.16509
4.13153
4.09599
4.0586
4.01949
3.97894
3.93713
3.89432
3.85063
3.80627
3.76128
3.71586
3.66998
3.62382
3.57735
3.53074
3.48401
3.43738
3.39087
3.34478
3.29924
3.2543
3.20996
3.16635
3.12336
3.08123
3.03989
2.99962
2.96037
2.92248
2.88595
2.85103
2.8177
2.78644
2.75738
2.73099
2.70755
2.68763
2.67168
2.66052
2.65607
2.65688
2.66043
5.76977
5.16052
4.5729
4.03423
3.55868
3.14923
2.8027
2.51303
2.27344
2.08113
1.93122
1.84879
1.8554
1.9004
2.03326
2.33021
2.92454
3.2053
3.26546
3.26315
3.25209
3.22611
3.1966
3.1988
3.21388
3.26077
3.37149
3.59931
3.79978
3.86002
3.85161
3.81712
3.73551
3.62195
3.55301
3.54456
3.55642
3.5892
3.65607
3.76288
3.87673
3.97809
4.06042
4.12398
4.17193
4.20755
4.23358
4.25154
4.26236
4.26612
4.26566
4.2636
4.25807
4.24596
4.2238
4.1971
4.16802
4.13716
4.10455
4.0701
4.03385
3.99587
3.9564
3.91559
3.8737
3.83086
3.78729
3.74305
3.69832
3.6531
3.60756
3.56166
3.51562
3.46945
3.42345
3.37774
3.33259
3.28794
3.24393
3.20045
3.15773
3.11569
3.0746
3.03442
2.99548
2.95776
2.92167
2.8871
2.85434
2.82366
2.79547
2.77003
2.74782
2.72918
2.71467
2.70471
2.70035
2.70088
2.70332
2.71055
5.82048
5.27361
4.73756
4.23542
3.78051
3.37895
3.03008
2.73142
2.4778
2.26605
2.09367
1.96178
1.90422
1.91514
1.96749
2.1106
2.42341
2.97814
3.20383
3.25479
3.25814
3.25493
3.25139
3.26061
3.29734
3.3939
3.60564
3.96858
4.17751
4.18951
4.16394
4.08544
3.91971
3.74766
3.62896
3.56815
3.56182
3.57135
3.59861
3.65483
3.74614
3.8513
3.94845
4.0287
4.0907
4.13669
4.1697
4.19246
4.20713
4.21466
4.21553
4.21466
4.21155
4.20398
4.18813
4.16384
4.13616
4.10636
4.07474
4.04134
4.00623
3.96944
3.93115
3.89147
3.85064
3.80878
3.76611
3.7227
3.67875
3.63425
3.58937
3.5441
3.49869
3.45326
3.40822
3.36355
3.31942
3.27573
3.23269
3.19021
3.14857
3.10771
3.06796
3.0293
2.99211
2.95646
2.92264
2.89053
2.86076
2.8336
2.80949
2.7888
2.77196
2.75928
2.75115
2.74815
2.74875
2.75101
2.75651
2.76919
5.86135
5.36442
4.87306
4.40492
3.97284
3.5831
3.23779
2.93553
2.67384
2.44932
2.25994
2.10599
1.99048
1.95467
1.9701
2.02934
2.18456
2.51584
3.0066
3.20053
3.25124
3.26979
3.28707
3.32487
3.41045
3.5967
3.9812
4.41486
4.56977
4.55544
4.49258
4.34257
4.10056
3.89292
3.74075
3.64165
3.58896
3.57801
3.5844
3.60453
3.6476
3.72099
3.81452
3.90521
3.98349
4.04548
4.09133
4.12341
4.1445
4.15664
4.16157
4.16133
4.1598
4.15541
4.14556
4.12577
4.10061
4.0724
4.04199
4.00971
3.97576
3.94018
3.90313
3.86467
3.82502
3.78425
3.7426
3.70013
3.65704
3.61332
3.56918
3.5246
3.48011
3.43579
3.3919
3.34834
3.30531
3.2627
3.22081
3.17955
3.13926
3.09992
3.06191
3.02526
2.99043
2.95745
2.92634
2.89766
2.87191
2.84945
2.83065
2.81599
2.8057
2.79968
2.79887
2.7997
2.80221
2.80784
2.81633
2.8338
5.89401
5.43911
4.98591
4.54947
4.14024
3.76494
3.42633
3.12481
2.85893
2.62646
2.42549
2.25491
2.11747
2.01735
1.99882
2.01807
2.08404
2.24931
2.59411
3.02744
3.20511
3.26654
3.31892
3.3999
3.56581
3.90596
4.50493
4.90698
4.95908
4.92283
4.80775
4.56251
4.28258
4.05397
3.87981
3.75213
3.66426
3.61128
3.58956
3.59238
3.60401
3.6326
3.68983
3.7681
3.85222
3.92836
3.9907
4.03758
4.07009
4.09026
4.10118
4.10396
4.10332
4.1009
4.09485
4.082
4.06039
4.03444
4.00572
3.97484
3.94218
3.90788
3.87213
3.83497
3.79658
3.75701
3.71651
3.67509
3.63297
3.59012
3.54682
3.50335
3.46011
3.41706
3.37441
3.33207
3.29027
3.24897
3.20847
3.16877
3.13021
3.09287
3.05714
3.02324
2.99145
2.96154
2.9343
2.91028
2.88981
2.87341
2.86118
2.85373
2.85059
2.85107
2.85277
2.85683
2.86367
2.8722
2.87913
2.89373
5.92176
5.50083
5.08176
4.67434
4.28736
3.92742
3.59767
3.29962
3.0327
2.79564
2.58687
2.40522
2.25079
2.1283
2.04173
2.04082
2.06285
2.13436
2.30665
2.66194
3.05702
3.23523
3.35285
3.5003
3.79754
4.4016
5.10965
5.37787
5.35917
5.2737
5.06962
4.74751
4.45929
4.22474
4.03748
3.88887
3.77298
3.68671
3.62826
3.59416
3.59124
3.59457
3.61025
3.64677
3.71512
3.79009
3.86395
3.9274
3.9762
4.01001
4.03054
4.0405
4.04175
4.04076
4.03749
4.02987
4.01423
3.99151
3.9651
3.93609
3.90506
3.87224
3.83791
3.80212
3.7651
3.72684
3.68761
3.64736
3.60632
3.5645
3.52251
3.48047
3.43867
3.397
3.35574
3.3148
3.27449
3.23481
3.19607
3.15838
3.12209
3.08742
3.05483
3.02445
2.99612
2.97065
2.94876
2.93081
2.917
2.90812
2.90319
2.90356
2.90504
2.90818
2.91455
2.92264
2.92936
2.93412
2.93693
2.94309
5.95113
5.55776
5.16782
4.78539
4.41893
4.07356
3.75371
3.46035
3.19464
2.95527
2.74165
2.55236
2.38697
2.24752
2.13508
2.07179
2.07546
2.1034
2.18508
2.36856
2.74219
3.12641
3.36087
3.63511
4.15759
5.09872
5.71075
5.78186
5.73192
5.57814
5.25968
4.9215
4.63642
4.4013
4.20521
4.04039
3.90268
3.78988
3.70094
3.63544
3.59391
3.57789
3.57525
3.58144
3.60316
3.65081
3.71947
3.79079
3.8549
3.90603
3.94215
3.9636
3.97395
3.97437
3.97317
3.9693
3.96048
3.94274
3.9194
3.89275
3.86373
3.83271
3.80005
3.76582
3.73031
3.69349
3.65566
3.6167
3.57694
3.53663
3.4963
3.4559
3.41569
3.37563
3.33597
3.29676
3.25828
3.22066
3.18421
3.14918
3.11596
3.08497
3.0564
3.02996
3.00674
2.98744
2.97235
2.96209
2.95597
2.95574
2.95683
2.95986
2.96646
2.97577
2.98346
2.98846
2.9889
2.98747
2.98327
2.97756
5.98763
5.61434
5.2467
4.88597
4.53737
4.20618
3.89574
3.60858
3.345
3.10551
2.88883
2.6946
2.52188
2.37058
2.24463
2.14206
2.10257
2.1117
2.14961
2.24819
2.45943
2.88478
3.33807
3.81418
4.77265
5.85244
6.20021
6.16977
6.05068
5.78092
5.41349
5.08829
4.81394
4.57951
4.37625
4.19864
4.04374
3.91013
3.79733
3.70514
3.63404
3.58421
3.55985
3.54512
3.5467
3.55788
3.5862
3.64352
3.70857
3.77226
3.82535
3.86405
3.88867
3.90037
3.90172
3.90048
3.89637
3.88697
3.86814
3.84448
3.8178
3.78886
3.75817
3.72579
3.69201
3.65686
3.62059
3.58314
3.5451
3.50669
3.46822
3.42967
3.39128
3.35312
3.31543
3.27839
3.24227
3.20733
3.17394
3.14248
3.11356
3.08708
3.06309
3.04248
3.0264
3.01488
3.00796
3.00678
3.00787
3.0111
3.01826
3.0286
3.03839
3.04525
3.04634
3.04487
3.04049
3.03025
3.01003
2.99032
6.03895
5.67294
5.32097
4.97801
4.64442
4.32622
4.02529
3.74464
3.48463
3.24612
3.02834
2.83102
2.65324
2.49498
2.35703
2.2436
2.15601
2.147
2.16404
2.22134
2.36211
2.65535
3.25132
4.03058
5.59299
6.49846
6.55019
6.47803
6.27614
5.90143
5.55219
5.25014
4.98669
4.75316
4.54426
4.35684
4.18912
4.03999
3.90888
3.79574
3.70079
3.62463
3.568
3.53347
3.5115
3.50165
3.50619
3.5232
3.56092
3.61929
3.67899
3.73328
3.7762
3.80511
3.82027
3.82382
3.82275
3.81883
3.80962
3.79104
3.7675
3.74088
3.71227
3.68189
3.65007
3.61686
3.5824
3.54694
3.51103
3.47477
3.43838
3.40196
3.36574
3.32991
3.29471
3.26043
3.2274
3.19602
3.1668
3.14033
3.11651
3.09528
3.07811
3.06559
3.05812
3.05609
3.05721
3.06049
3.06792
3.08031
3.0923
3.10136
3.10562
3.10474
3.10121
3.09262
3.07467
3.04712
3.01701
2.99006
6.10788
5.73382
5.39081
5.0612
4.74259
4.4354
4.1442
3.86989
3.61458
3.37772
3.16047
2.96107
2.78053
2.61733
2.47205
2.35023
2.24661
2.20795
2.21694
2.25856
2.37495
2.63769
3.19518
4.32243
6.30813
6.89577
6.84743
6.69136
6.36947
6.01194
5.68955
5.40399
5.148
4.91623
4.705
4.51196
4.33563
4.17527
4.03035
3.90097
3.78734
3.6899
3.60918
3.54602
3.50257
3.47365
3.45219
3.45266
3.46012
3.48089
3.52418
3.57921
3.63443
3.6806
3.71367
3.73327
3.74089
3.74027
3.73714
3.72909
3.71241
3.68944
3.66296
3.63447
3.60463
3.57352
3.54133
3.50839
3.47492
3.44109
3.40713
3.37325
3.33971
3.30678
3.27479
3.24409
3.21523
3.18863
3.16532
3.14437
3.12681
3.11336
3.10528
3.10274
3.10387
3.10734
3.11529
3.1295
3.1436
3.15651
3.16394
3.16379
3.16172
3.15588
3.14201
3.11559
3.0837
3.0484
3.0129
2.98039
6.17807
5.79771
5.45785
5.13822
4.83139
4.53591
4.25365
3.98624
3.73581
3.50158
3.2857
3.08549
2.90349
2.73728
2.58808
2.46191
2.35273
2.31049
2.32027
2.36103
2.47655
2.75239
3.36229
4.65468
6.5743
7.03586
6.97814
6.81135
6.47894
6.14533
5.83758
5.55957
5.30791
5.07794
4.86573
4.66878
4.48565
4.31598
4.15985
4.01735
3.88863
3.77391
3.67374
3.58869
3.51949
3.46785
3.43142
3.40352
3.38894
3.39185
3.40368
3.43088
3.47952
3.53021
3.57759
3.61531
3.64036
3.65341
3.65383
3.65203
3.64611
3.63301
3.61043
3.58433
3.55644
3.52756
3.49791
3.46767
3.43698
3.406
3.37499
3.3442
3.31401
3.28475
3.25694
3.23102
3.2078
3.18796
3.17086
3.15721
3.14865
3.14585
3.14706
3.15074
3.15925
3.1751
3.19175
3.20757
3.21919
3.22306
3.22185
3.21749
3.20679
3.1847
3.15376
3.11825
3.07961
3.03933
3.00084
2.96558
6.29989
5.88457
5.53004
5.2135
4.91559
4.62958
4.35612
4.09515
3.84981
3.61854
3.40454
3.20481
3.02216
2.85541
2.7051
2.58096
2.47636
2.46373
2.48088
2.54182
2.70357
3.05712
3.78704
4.92262
6.23799
6.86895
6.87533
6.81546
6.65277
6.32352
6.00693
5.72286
5.46847
5.23715
5.02298
4.82237
4.63362
4.45649
4.29126
4.13821
3.99753
3.86938
3.75396
3.65162
3.56277
3.48844
3.4288
3.3871
3.35057
3.32492
3.32377
3.3286
3.34368
3.3762
3.42308
3.47099
3.51213
3.54232
3.56014
3.5658
3.56483
3.56075
3.55086
3.53086
3.50639
3.47993
3.45262
3.42503
3.39742
3.36987
3.34254
3.31572
3.28989
3.26547
3.24329
3.22383
3.20845
3.19549
3.18671
3.18402
3.18536
3.18954
3.19913
3.21643
3.23554
3.25456
3.27069
3.27935
3.27885
3.27621
3.26925
3.25316
3.2229
3.18867
3.14986
3.10832
3.06592
3.0235
2.98418
2.9486
6.3432
5.97509
5.60979
5.29028
4.99709
4.71886
4.45269
4.19818
3.95763
3.72994
3.51781
3.31991
3.13789
2.97285
2.8279
2.71008
2.65048
2.65995
2.70443
2.82768
3.10738
3.68074
4.37221
4.96785
5.67948
6.3715
6.69033
6.68147
6.62396
6.48298
6.20517
5.91068
5.64241
5.40048
5.17877
4.9719
4.77712
4.59339
4.42093
4.25963
4.10966
3.97091
3.84357
3.72768
3.62356
3.5316
3.45262
3.38682
3.3378
3.2949
3.26397
3.24867
3.25057
3.25886
3.27864
3.31832
3.36227
3.4049
3.43978
3.46282
3.47556
3.47551
3.47363
3.46754
3.45418
3.43159
3.407
3.38207
3.35758
3.33371
3.31072
3.28895
3.26888
3.25112
3.23658
3.22618
3.2181
3.21591
3.21752
3.22233
3.23335
3.25263
3.27434
3.29665
3.31622
3.33111
3.33441
3.3329
3.32762
3.31525
3.29058
3.25787
3.2195
3.17789
3.13451
3.0904
3.04689
3.00462
2.96617
2.9321
6.32276
6.10004
5.71324
5.37587
5.07912
4.80479
4.54463
4.29594
4.05998
3.8362
3.62679
3.43179
3.25307
3.09456
2.9624
2.87864
2.88331
2.91828
3.0256
3.27609
3.79215
4.38706
4.74931
4.9849
5.2915
5.77122
6.24549
6.49941
6.50331
6.46526
6.35492
6.12032
5.84163
5.57829
5.33891
5.11949
4.91561
4.72478
4.54594
4.3781
4.2209
4.07399
3.93737
3.811
3.69495
3.5895
3.49506
3.41226
3.34185
3.28581
3.23855
3.20075
3.17431
3.1723
3.17582
3.18735
3.21266
3.25348
3.29614
3.33402
3.36321
3.381
3.38873
3.38808
3.38493
3.37691
3.36038
3.3406
3.31998
3.30007
3.2819
3.26642
3.25366
3.24521
3.23973
3.23981
3.24191
3.24757
3.2603
3.28215
3.30671
3.33247
3.35695
3.37539
3.3863
3.38554
3.3821
3.37333
3.355
3.32363
3.28719
3.24599
3.20222
3.15732
3.11249
3.06838
3.02589
2.98549
2.94908
2.91779
6.26245
6.12762
5.8322
5.47477
5.16581
4.8903
4.63372
4.38982
4.15821
3.93897
3.73334
3.54335
3.37283
3.23018
3.13044
3.13291
3.16479
3.26927
3.51753
4.03216
4.60458
4.88424
4.98031
5.02622
5.1252
5.32521
5.66592
6.06292
6.32171
6.36906
6.34072
6.24738
6.04701
5.777
5.51433
5.27466
5.05584
4.8545
4.66774
4.49331
4.32961
4.176
4.03194
3.89731
3.77194
3.65599
3.54967
3.45343
3.36782
3.29356
3.23202
3.18066
3.13625
3.1049
3.09098
3.09228
3.09864
3.1146
3.14714
3.18713
3.22773
3.26212
3.28683
3.30172
3.30735
3.3068
3.30418
3.29769
3.28448
3.27093
3.2598
3.25216
3.2495
3.25058
3.25402
3.26266
3.28009
3.30316
3.33026
3.36033
3.38912
3.41321
3.43071
3.43393
3.43218
3.42637
3.41293
3.38619
3.35182
3.31132
3.2678
3.22278
3.17697
3.13174
3.08783
3.04567
3.00578
2.96846
2.93486
2.90707
6.16393
6.09998
5.92421
5.57721
5.25719
4.97658
4.72087
4.48071
4.25354
4.03928
3.84035
3.65998
3.50924
3.39916
3.40083
3.43369
3.54327
3.80514
4.34819
4.92312
5.17811
5.17672
5.15069
5.08332
5.08155
5.12197
5.24775
5.51818
5.91444
6.18586
6.24873
6.22431
6.14131
5.96007
5.70268
5.44408
5.20537
4.98842
4.79008
4.60679
4.4358
4.27562
4.12511
3.98366
3.85085
3.72663
3.61107
3.50446
3.40711
3.31954
3.24228
3.17641
3.12113
3.0725
3.0354
3.01214
3.00981
3.01272
3.02243
3.04413
3.08237
3.12375
3.16267
3.19447
3.21826
3.23304
3.24174
3.24576
3.24587
3.24614
3.24711
3.24983
3.25598
3.26731
3.28647
3.31209
3.3426
3.37679
3.41113
3.44192
3.46407
3.47773
3.47695
3.47302
3.46326
3.44353
3.41143
3.37299
3.33051
3.28513
3.23908
3.19312
3.14863
3.10554
3.0643
3.0251
2.98827
2.95441
2.92382
2.90003
6.00005
6.0038
5.91909
5.70783
5.36857
5.07037
4.80931
4.57077
4.34828
4.14145
3.95353
3.79619
3.68098
3.68291
3.71911
3.83972
4.12611
4.7181
5.30812
5.52611
5.51116
5.44264
5.28964
5.1134
5.03773
5.04643
5.09037
5.2061
5.45001
5.79572
6.04009
6.10792
6.08826
6.01821
5.86119
5.62107
5.36893
5.1347
4.92064
4.7244
4.54321
4.37478
4.21725
4.06919
3.92984
3.79871
3.67574
3.56098
3.45452
3.35667
3.26772
3.18831
3.11896
3.06086
3.00879
2.9668
2.93853
2.92771
2.92921
2.9357
2.95154
2.98384
3.02542
3.06903
3.10962
3.14386
3.17074
3.19156
3.20873
3.22433
3.2412
3.25991
3.28158
3.30848
3.34271
3.38106
3.42043
3.45727
3.48771
3.5086
3.51419
3.51253
3.50658
3.49275
3.46522
3.42955
3.38812
3.3435
3.29748
3.2518
3.20692
3.16313
3.12099
3.08066
3.04243
3.00655
2.97313
2.94324
2.91616
2.89737
5.57945
5.9011
5.87246
5.75
5.48571
5.1729
4.90195
4.66323
4.4469
4.25231
4.08924
3.97406
3.97745
4.02015
4.15791
4.48002
5.14076
5.74752
5.92549
5.90028
5.80242
5.59273
5.35683
5.17043
5.05126
5.02597
5.03652
5.07683
5.17529
5.37824
5.65722
5.87267
5.94932
5.93543
5.88124
5.75492
5.53115
5.29265
5.06348
4.85097
4.65587
4.47631
4.30982
4.1542
4.00809
3.87049
3.74107
3.61957
3.50588
3.4
3.3021
3.21249
3.1318
3.06029
2.99978
2.94584
2.90119
2.86862
2.85089
2.85154
2.85626
2.86906
2.89614
2.93945
2.98933
3.04034
3.08887
3.13253
3.172
3.2093
3.24687
3.28529
3.32708
3.37106
3.41611
3.45969
3.49804
3.52594
3.54374
3.54295
3.53911
3.52986
3.51057
3.47867
3.4398
3.39657
3.35161
3.30621
3.26123
3.21715
3.17452
3.13346
3.09429
3.0572
3.02244
2.99045
2.96115
2.93615
2.91347
2.90037
4.63068
5.66627
5.7792
5.72775
5.58289
5.28899
5.00646
4.76529
4.55828
4.38864
4.27694
4.28326
4.33592
4.49803
4.86808
5.61753
6.24123
6.36451
6.32822
6.20185
5.93993
5.66856
5.44455
5.27167
5.14248
5.0585
5.0246
5.02899
5.0532
5.12183
5.26896
5.49476
5.68667
5.77563
5.76754
5.72845
5.6314
5.43594
5.21307
4.98782
4.77723
4.58364
4.40556
4.24056
4.08651
3.94197
3.80617
3.6786
3.55871
3.44633
3.34133
3.24404
3.1547
3.07377
3.00171
2.93954
2.8856
2.83981
2.80542
2.7838
2.78411
2.7881
2.79973
2.82529
2.8733
2.93382
3.0004
3.06919
3.13692
3.20239
3.26523
3.32668
3.38543
3.44079
3.48936
3.52893
3.55463
3.5633
3.56178
3.55619
3.54302
3.51664
3.48229
3.44191
3.39887
3.35468
3.3104
3.26657
3.22386
3.18241
3.1427
3.10484
3.06919
3.03594
3.0054
2.9781
2.9539
2.93486
2.91694
2.91036
2.96965
5.10709
5.65416
5.65646
5.58995
5.42346
5.13765
4.89091
4.69936
4.58927
4.60007
4.66745
4.86274
5.2955
6.1582
6.75459
6.82486
6.77825
6.62594
6.31596
6.0147
5.76824
5.57148
5.40896
5.27028
5.15308
5.06379
5.00974
4.99549
5.00467
5.0435
5.13561
5.31622
5.48371
5.58865
5.58474
5.55761
5.48617
5.33655
5.12352
4.90351
4.69655
4.50593
4.32996
4.16648
4.01386
3.87124
3.73751
3.61177
3.49363
3.38281
3.27958
3.18383
3.09593
3.01605
2.94479
2.88253
2.83004
2.78599
2.75288
2.7333
2.73435
2.73983
2.75421
2.78477
2.84119
2.91545
3.0029
3.09756
3.19369
3.28553
3.36957
3.44291
3.50116
3.54351
3.56903
3.57086
3.5684
3.56088
3.54429
3.51413
3.47703
3.43671
3.39464
3.3519
3.30918
3.26715
3.22603
3.18635
3.14825
3.11215
3.07819
3.04678
3.01815
2.99277
2.97105
2.95344
2.93982
2.92866
2.92879
2.18697
3.84843
5.30234
5.57345
5.55908
5.48045
5.29771
5.05654
4.91863
4.93384
5.02053
5.26388