/*--------------------------------*- C++ -*----------------------------------*\
  =========                 |
  \\      /  F ield         | OpenFOAM: The Open Source CFD Toolbox
   \\    /   O peration     | Website:  https://openfoam.org
    \\  /    A nd           | Version:  10
     \\/     M anipulation  |
\*---------------------------------------------------------------------------*/
FoamFile
{
    format      ascii;
    class       volScalarField;
    location    "4.5";
    object      T;
}
// * * * * * * * * * * * * * * * * * * * * * * * * * * * * * * * * * * * * * //

dimensions      [0 0 0 1 0 0 0];

internalField   nonuniform List<scalar> 
5250
(
1
1.00002
1.00004
1.0001
1.00026
1.00065
1.00156
1.00404
1.00941
1.02501
1.0607
1.16332
1.43588
2.09652
2.64817
2.76091
2.74272
2.73706
2.749
2.76474
2.77845
2.78535
2.7929
2.79774
2.79957
1
1.00002
1.00004
1.00011
1.00023
1.0007
1.00142
1.00415
1.00906
1.02474
1.0595
1.16094
1.42783
2.08295
2.64315
2.76063
2.74193
2.73593
2.74789
2.76359
2.77724
2.78414
2.79171
2.79651
2.79827
1
1.00001
1.00004
1.00009
1.00027
1.00055
1.00167
1.00339
1.00994
1.02189
1.06022
1.15168
1.41501
2.04908
2.63167
2.75921
2.73942
2.73261
2.74464
2.76024
2.77368
2.78089
2.78815
2.79305
2.79519
1
1.00001
1.00004
1.00009
1.00023
1.00059
1.0014
1.00366
1.00845
1.02254
1.05431
1.14589
1.38872
1.99971
2.61278
2.75632
2.73501
2.72688
2.73854
2.75463
2.76827
2.77495
2.78293
2.7872
2.78898
1
1.00001
1.00003
1.00009
1.00022
1.00053
1.00138
1.00315
1.00852
1.01952
1.05244
1.13223
1.35974
1.93068
2.58609
2.75082
2.72797
2.71834
2.73055
2.74577
2.76008
2.76722
2.7742
2.7795
2.78142
1
1.00001
1.00003
1.00008
1.00021
1.00046
1.00132
1.00275
1.00803
1.01744
1.04811
1.11901
1.3247
1.84511
2.5498
2.74027
2.7167
2.70591
2.71789
2.73457
2.74857
2.75563
2.76373
2.76767
2.76954
1
1.00001
1.00003
1.00008
1.00017
1.00048
1.00104
1.00292
1.00627
1.01772
1.04044
1.11027
1.28724
1.76165
2.50703
2.72677
2.70298
2.69158
2.7038
2.71833
2.73428
2.74065
2.74735
2.75162
2.75229
1
1.00001
1.00002
1.00007
1.00015
1.00044
1.00094
1.00262
1.00588
1.01567
1.03742
1.09921
1.26015
1.69499
2.45854
2.7113
2.69098
2.68069
2.68939
2.7027
2.71464
2.72169
2.72628
2.72832
2.72528
1
1.00001
1.00003
1.00006
1.00016
1.00035
1.00095
1.0022
1.00561
1.01374
1.03458
1.08834
1.23566
1.62735
2.38901
2.6842
2.68128
2.67385
2.6756
2.68488
2.69507
2.69683
2.69844
2.69442
2.67998
1
1.00001
1.00002
1.00005
1.00014
1.00032
1.00086
1.00189
1.0053
1.01162
1.03212
1.07709
1.21063
1.55775
2.29729
2.64779
2.67373
2.66581
2.66199
2.66589
2.6712
2.67011
2.66197
2.64082
2.58049
1
1.00001
1.00002
1.00005
1.00011
1.00031
1.00066
1.00192
1.00402
1.01159
1.02578
1.07058
1.17981
1.48883
2.17959
2.60001
2.66485
2.6559
2.64787
2.64707
2.64552
2.63769
2.61636
2.56614
2.45261
1
1.00001
1.00002
1.00004
1.00011
1.00022
1.00068
1.00138
1.00403
1.00875
1.02396
1.05733
1.15482
1.41003
2.03606
2.53736
2.65167
2.64233
2.63182
2.62687
2.61987
2.60338
2.56806
2.49722
2.36506
1
1.00001
1.00001
1.00004
1.00008
1.00021
1.00052
1.00124
1.0032
1.00738
1.01981
1.04689
1.12592
1.33173
1.86211
2.45704
2.62786
2.62098
2.6112
2.60273
2.5921
2.56912
2.5269
2.45022
2.33035
1
1
1.00001
1.00003
1.00008
1.00015
1.00045
1.00095
1.00264
1.00592
1.0157
1.03743
1.09865
1.25615
1.67529
2.35811
2.59055
2.59194
2.5844
2.57517
2.56115
2.5369
2.49234
2.42183
2.31677
1
1
1.00001
1.00002
1.00005
1.00015
1.00032
1.0009
1.00188
1.00544
1.01163
1.03235
1.07714
1.20972
1.54914
2.24755
2.5473
2.56762
2.55873
2.54723
2.53285
2.50615
2.46362
2.40065
2.31004
1
1
1.00001
1.00002
1.00005
1.00011
1.00029
1.00062
1.00178
1.00373
1.01074
1.02371
1.0648
1.16346
1.44201
2.07458
2.47599
2.54745
2.53952
2.52483
2.50649
2.48043
2.43915
2.38251
2.30516
1
1
1.00001
1.00002
1.00003
1.00009
1.0002
1.00054
1.00128
1.00318
1.0079
1.0193
1.04915
1.12651
1.33685
1.86537
2.37952
2.51988
2.51844
2.50561
2.48202
2.45682
2.4173
2.36748
2.2988
1
1
1
1.00001
1.00003
1.00006
1.00017
1.00039
1.00098
1.00241
1.00577
1.01473
1.03556
1.09196
1.23923
1.62485
2.25294
2.47377
2.48848
2.47869
2.45795
2.43229
2.39706
2.35148
2.29339
1
1
1
1.00001
1.00002
1.00005
1.00013
1.00029
1.0008
1.00168
1.00483
1.01024
1.02864
1.06714
1.18214
1.47322
2.10549
2.41873
2.46217
2.4535
2.43505
2.40858
2.37713
2.33597
2.28551
1
1
1
1.00001
1.00002
1.00004
1.00009
1.00024
1.00053
1.00146
1.00311
1.00882
1.0193
1.05299
1.13046
1.35262
1.88508
2.32177
2.43093
2.42971
2.4142
2.38918
2.3578
2.32161
2.27635
1
1
1
1
1.00001
1.00003
1.00007
1.00016
1.00042
1.00093
1.00256
1.00548
1.01534
1.03443
1.09295
1.23526
1.61786
2.18582
2.38219
2.39993
2.38996
2.36785
2.33876
2.30543
2.26646
1
1
1
1
1.00001
1.00002
1.00005
1.00013
1.00026
1.00078
1.00157
1.00456
1.0098
1.02668
1.06329
1.16887
1.43744
2.01942
2.32005
2.37147
2.36482
2.3464
2.31979
2.28964
2.25473
1
1
1
1
1.00001
1.00001
1.00004
1.00008
1.0002
1.00052
1.00117
1.00318
1.00693
1.01917
1.04382
1.11828
1.30348
1.77764
2.21238
2.33299
2.33831
2.32666
2.30326
2.27418
2.24199
1
1
1
1
1
1.00001
1.00002
1.00006
1.00014
1.00035
1.00084
1.00203
1.00509
1.01199
1.03078
1.0753
1.19606
1.51059
2.05426
2.27358
2.30751
2.30214
2.28426
2.25812
2.22856
1
1
1
1
1
1.00001
1.00002
1.00004
1.00009
1.00024
1.00057
1.00141
1.00346
1.00822
1.02107
1.05073
1.13238
1.34333
1.83977
2.18528
2.27298
2.27706
2.26625
2.24312
2.21531
1
1
1
1
1
1
1.00001
1.00003
1.00006
1.00017
1.00035
1.001
1.00212
1.00574
1.01297
1.03384
1.08198
1.21468
1.55104
2.04317
2.22278
2.24849
2.24367
2.22612
2.20107
1
1
1
1
1
1
1.00001
1.00002
1.00004
1.00011
1.00023
1.00067
1.00136
1.00394
1.00833
1.02281
1.05297
1.14049
1.35904
1.85135
2.14826
2.21706
2.22027
2.20963
2.1881
1
1
1
1
1
1
1.00001
1.00001
1.00003
1.00006
1.00017
1.00039
1.00098
1.00236
1.00564
1.01425
1.03395
1.08714
1.2215
1.57031
2.01488
2.17123
2.19374
2.18896
2.1724
1
1
1
1
1
1
1
1.00001
1.00002
1.00004
1.00012
1.00024
1.00067
1.00143
1.0038
1.00871
1.02216
1.05385
1.13838
1.35648
1.8228
2.09511
2.16065
2.16561
2.15686
1
1
1
1
1
1
1
1.00001
1.00001
1.00003
1.00006
1.00018
1.00036
1.001
1.00218
1.00575
1.01319
1.03375
1.0821
1.21263
1.53979
1.96094
2.11417
2.13934
2.13712
1
1
1
1
1
1
1
1
1.00001
1.00002
1.00004
1.00011
1.00023
1.00064
1.0013
1.00373
1.00785
1.02139
1.04923
1.1296
1.32805
1.76369
2.0337
2.10595
2.11434
1
1
1
1
1
1
1
1
1
1.00001
1.00003
1.00006
1.00016
1.00034
1.00088
1.00205
1.00498
1.01223
1.0293
1.0736
1.18484
1.47162
1.88897
2.05684
2.08706
1
1
1
1
1
1
1
1
1
1.00001
1.00002
1.00003
1.0001
1.00021
1.00054
1.00126
1.00306
1.00749
1.01782
1.04491
1.11066
1.28612
1.6808
1.97438
2.05658
1
1
1
1
1
1
1
1
1
1
1.00001
1.00002
1.00006
1.00012
1.00033
1.0007
1.00196
1.00398
1.01135
1.02418
1.06527
1.15654
1.40834
1.8136
1.99911
1
1
1
1
1
1
1
1
1
1
1.00001
1.00001
1.00003
1.00008
1.00018
1.00046
1.00106
1.00259
1.00631
1.01488
1.03763
1.09106
1.23466
1.57301
1.89536
1
1
1
1
1
1
1
1
1
1
1
1.00001
1.00002
1.00004
1.00011
1.00026
1.00063
1.00151
1.00356
1.00888
1.02068
1.05249
1.12859
1.33091
1.71287
1
1
1
1
1
1
1
1
1
1
1
1
1.00001
1.00003
1.00006
1.00015
1.00036
1.00083
1.00212
1.00463
1.01235
1.02718
1.07156
1.17219
1.43676
1
1
1
1
1
1
1
1
1
1
1
1
1.00001
1.00002
1.00003
1.00009
1.00019
1.00053
1.00108
1.00296
1.00641
1.01672
1.03869
1.09884
1.24602
1
1
1
1
1
1
1
1
1
1
1
1
1
1.00001
1.00002
1.00005
1.00012
1.00027
1.00065
1.00159
1.00361
1.00929
1.02085
1.05409
1.12946
1
1
1
1
1
1
1
1
1
1
1
1
1
1
1.00001
1.00003
1.00006
1.00015
1.00036
1.00084
1.00211
1.00466
1.0122
1.027
1.07028
1
1
1
1
1
1
1
1
1
1
1
1
1
1
1.00001
1.00002
1.00003
1.00009
1.0002
1.00047
1.00116
1.00261
1.00676
1.01483
1.03916
1
1
1
1
1
1
1
1
1
1
1
1
1
1
1
1.00001
1.00002
1.00005
1.0001
1.00028
1.00058
1.00161
1.00324
1.00914
1.01913
1
1
1
1
1
1
1
1
1
1
1
1
1
1
1
1
1.00001
1.00003
1.00006
1.00014
1.00037
1.00078
1.00214
1.00436
1.01216
1
1
1
1
1
1
1
1
1
1
1
1
1
1
1
1
1.00001
1.00002
1.00004
1.00009
1.00022
1.00053
1.00131
1.00293
1.00769
1
1
1
1
1
1
1
1
1
1
1
1
1
1
1
1
1.00001
1.00001
1.00003
1.00006
1.00019
1.00039
1.00107
1.00234
1.00617
1
1
1
1
1
1
1
1
1
1
1
1
1
1
1
1
1
1.00001
1.00002
1.00006
1.00014
1.00039
1.00085
1.0024
1.00511
1
1
1
1
1
1
1
1
1
1
1
1
1
1
1
1
1
1.00001
1.00003
1.00005
1.00015
1.00033
1.00092
1.00207
1.00543
1
1
1
1
1
1
1
1
1
1
1
1
1
1
1
1
1
1.00001
1.00003
1.00005
1.00015
1.00031
1.00095
1.00193
1.00563
1
1
1
1
1
1
1
1
1
1
1
1
1
1
1
1
1
1.00001
1.00002
1.00005
1.00015
1.00033
1.00092
1.00195
1.00564
1
1
1
1
1
1
1
1
1
1
1
1
1
1
1
1
1
1.00001
1.00002
1.00006
1.00013
1.00037
1.0008
1.0022
1.00506
2.23581
2.07027
2.01987
2.05159
2.11576
2.1921
2.27755
2.33719
2.39999
2.50144
2.65551
2.83091
2.87191
2.89057
2.8874
2.8921
2.89754
2.87863
2.85421
2.84439
2.83249
2.82041
2.81157
2.79731
2.78563
2.77581
2.76704
2.76316
2.76214
2.76704
2.7791
2.79851
2.82062
2.84457
2.86528
2.88276
2.89842
2.90903
2.91834
2.92397
2.92647
2.92763
2.925
2.92409
2.92005
2.91685
2.90958
2.90544
2.89671
2.89164
2.88097
2.87482
2.86315
2.85625
2.84446
2.83687
2.82466
2.81685
2.80422
2.79649
2.78361
2.7757
2.76263
2.75458
2.74173
2.73368
2.72102
2.71262
2.69975
2.69118
2.67799
2.66938
2.65601
2.64736
2.63399
2.62538
2.61218
2.60366
2.59069
2.58234
2.56962
2.56153
2.5491
2.54131
2.52921
2.52175
2.50999
2.50287
2.49154
2.48475
2.47391
2.46761
2.45731
2.45174
2.44225
2.43774
2.42987
2.42728
2.42293
2.42326
2.22991
2.13232
2.07831
2.04314
2.00858
1.9903
1.9929
2.01724
2.07882
2.22289
2.4222
2.6699
2.7836
2.82659
2.85226
2.8759
2.8972
2.91404
2.92615
2.92849
2.93066
2.93193
2.92417
2.9033
2.89437
2.88771
2.88091
2.87877
2.88052
2.88461
2.89172
2.90315
2.91145
2.92118
2.92703
2.92982
2.92817
2.92552
2.91875
2.91077
2.89427
2.8863
2.87275
2.86322
2.85026
2.83962
2.82647
2.81572
2.80254
2.79188
2.77779
2.76599
2.7516
2.74047
2.72613
2.71507
2.70068
2.68958
2.6755
2.66466
2.6509
2.64002
2.62641
2.61558
2.60226
2.59152
2.57834
2.56791
2.55491
2.54473
2.53186
2.52184
2.50908
2.4992
2.48661
2.47688
2.4645
2.45499
2.44282
2.43362
2.42162
2.41278
2.40098
2.39245
2.38097
2.37267
2.36159
2.35352
2.34286
2.33513
2.32489
2.31762
2.3079
2.30135
2.29234
2.2868
2.27914
2.27551
2.27097
2.26986
2.22912
2.14105
2.06289
1.98636
1.92066
1.87112
1.85942
1.87076
1.90683
1.99982
2.15695
2.44648
2.59509
2.64662
2.70758
2.76747
2.78999
2.81098
2.8514
2.87973
2.90468
2.9261
2.93526
2.93979
2.93903
2.93637
2.93578
2.9386
2.94553
2.95311
2.9548
2.95476
2.94518
2.93659
2.92448
2.90608
2.88808
2.87095
2.85654
2.84065
2.82788
2.81445
2.80144
2.78917
2.77636
2.764
2.75083
2.73872
2.72569
2.71424
2.70119
2.68858
2.67477
2.66268
2.64985
2.63814
2.62548
2.61373
2.60113
2.58945
2.57707
2.56556
2.55344
2.54221
2.53024
2.51935
2.50756
2.497
2.48535
2.47509
2.46348
2.45343
2.44184
2.43193
2.42038
2.41064
2.39917
2.38969
2.37835
2.3692
2.358
2.34918
2.33821
2.32965
2.31899
2.31065
2.30033
2.29225
2.28226
2.27444
2.26475
2.25738
2.24808
2.24135
2.23275
2.2271
2.21981
2.21603
2.21179
2.2105
2.22091
2.13405
2.05278
1.98095
1.91389
1.86559
1.82794
1.82072
1.83013
1.86634
1.96447
2.16895
2.38897
2.50408
2.55908
2.58232
2.62043
2.6829
2.71931
2.73533
2.77199
2.81191
2.83796
2.86552
2.8889
2.90521
2.9184
2.92813
2.93228
2.93051
2.92076
2.90398
2.87924
2.85802
2.83329
2.81444
2.79394
2.7789
2.76251
2.74977
2.73606
2.72359
2.71056
2.69849
2.68548
2.67371
2.66079
2.64931
2.63687
2.62616
2.61378
2.60201
2.58863
2.57694
2.56415
2.55274
2.54031
2.52911
2.51693
2.50592
2.49377
2.48291
2.47072
2.46005
2.44789
2.43755
2.42554
2.41552
2.40368
2.39385
2.38217
2.37242
2.36091
2.35127
2.33994
2.33045
2.31929
2.31005
2.29899
2.29005
2.27912
2.27041
2.25973
2.25116
2.24083
2.23236
2.22239
2.21409
2.20446
2.19657
2.18734
2.17997
2.17121
2.16449
2.15643
2.15072
2.14395
2.14008
2.13632
2.13476
2.21865
2.1343
2.05642
1.98613
1.9235
1.86625
1.82329
1.78819
1.78359
1.79534
1.83831
1.95892
2.17192
2.32483
2.41154
2.4714
2.50203
2.52577
2.55818
2.60542
2.64311
2.65812
2.68854
2.73105
2.75765
2.78319
2.81118
2.82729
2.83653
2.83443
2.82168
2.79656
2.77023
2.74354
2.72234
2.70379
2.68836
2.67447
2.66175
2.65034
2.63884
2.62793
2.61654
2.6056
2.5943
2.58339
2.57214
2.56133
2.55039
2.54058
2.53019
2.51956
2.50783
2.49718
2.48616
2.47576
2.46494
2.45456
2.4438
2.43349
2.42268
2.41255
2.40178
2.39187
2.38117
2.3715
2.3609
2.35162
2.34126
2.33229
2.32213
2.31318
2.30308
2.29405
2.28389
2.27495
2.26481
2.25609
2.24619
2.23771
2.22819
2.21992
2.21073
2.20261
2.19354
2.18568
2.17681
2.1693
2.16077
2.15371
2.14564
2.1392
2.1316
2.12598
2.11897
2.11446
2.10854
2.10577
2.10277
2.10184
2.22038
2.14159
2.06464
1.99849
1.93494
1.88001
1.83007
1.79295
1.76542
1.76624
1.78297
1.83485
1.96613
2.17741
2.28258
2.33104
2.37874
2.42636
2.44764
2.46347
2.49162
2.53184
2.56691
2.58622
2.61483
2.64926
2.67984
2.69633
2.7161
2.71509
2.70093
2.67512
2.6463
2.62056
2.59765
2.58142
2.57046
2.5634
2.55675
2.55067
2.54307
2.53573
2.52733
2.5195
2.51092
2.50271
2.49358
2.48476
2.4751
2.4668
2.45813
2.44953
2.43933
2.42978
2.41972
2.41056
2.40034
2.39108
2.38083
2.37174
2.36152
2.35246
2.34211
2.33312
2.32275
2.31378
2.30343
2.29437
2.28409
2.27516
2.26502
2.25639
2.24637
2.23788
2.22791
2.21938
2.20946
2.20097
2.19111
2.18289
2.17309
2.16516
2.1556
2.14794
2.13891
2.13141
2.12284
2.11561
2.10726
2.10057
2.09235
2.08645
2.07865
2.07376
2.067
2.0633
2.05835
2.05636
2.05479
2.054
2.2246
2.14784
2.07971
2.01117
1.95329
1.89602
1.84736
1.8036
1.76928
1.75109
1.75296
1.77415
1.83456
1.96544
2.15418
2.24904
2.27567
2.30294
2.34091
2.37413
2.39154
2.40571
2.43595
2.47147
2.50611
2.52783
2.56128
2.59286
2.61991
2.619
2.60334
2.57483
2.54432
2.51345
2.49096
2.47417
2.46709
2.46469
2.46376
2.46203
2.45863
2.45476
2.44918
2.44382
2.4373
2.43113
2.42415
2.41763
2.41028
2.4037
2.39682
2.39021
2.38207
2.37361
2.36499
2.3568
2.34839
2.34012
2.33142
2.32318
2.31446
2.30636
2.29755
2.28927
2.28022
2.27185
2.26264
2.25433
2.24499
2.23666
2.22734
2.21901
2.20991
2.20166
2.19265
2.18451
2.17532
2.16735
2.15798
2.15017
2.14088
2.13335
2.12444
2.1172
2.10872
2.10185
2.09367
2.08725
2.07929
2.07339
2.06572
2.06048
2.05351
2.04915
2.04349
2.04044
2.03671
2.03612
2.03512
2.03498
2.22613
2.15782
2.08996
2.02914
1.96906
1.91668
1.86678
1.82165
1.78461
1.75306
1.7425
1.7477
1.77107
1.8385
1.96684
2.12162
2.20224
2.23255
2.24493
2.26766
2.30076
2.32549
2.34527
2.3649
2.40005
2.43541
2.47738
2.51626
2.54987
2.54951
2.53205
2.50197
2.46413
2.42969
2.40372
2.38316
2.37184
2.36966
2.37321
2.37688
2.37869
2.37855
2.37689
2.37461
2.37107
2.36757
2.36286
2.35839
2.35286
2.34794
2.34256
2.33787
2.33171
2.32509
2.31737
2.3106
2.30304
2.29635
2.28855
2.28149
2.27348
2.26631
2.2582
2.25089
2.24225
2.23454
2.22541
2.2175
2.20838
2.2005
2.19164
2.18388
2.17526
2.16777
2.15922
2.15191
2.14311
2.13568
2.12657
2.11904
2.10997
2.10258
2.09384
2.0869
2.07856
2.07222
2.06424
2.0585
2.05089
2.04556
2.03857
2.03367
2.02776
2.02371
2.01924
2.01693
2.01451
2.01479
2.01465
2.01407
2.22649
2.16496
2.10226
2.04247
1.9866
1.93427
1.88544
1.84256
1.80063
1.7689
1.74123
1.73746
1.74513
1.77186
1.84546
1.96254
2.08773
2.15541
2.18839
2.20081
2.21423
2.23649
2.27186
2.29574
2.32278
2.3556
2.41414
2.47487
2.50271
2.5006
2.47924
2.44566
2.40274
2.36339
2.33377
2.3143
2.30073
2.29283
2.29428
2.30034
2.30713
2.31192
2.31506
2.31587
2.31526
2.31367
2.31088
2.30803
2.30411
2.30057
2.29641
2.29313
2.28868
2.2838
2.27733
2.27102
2.26421
2.25774
2.25073
2.2441
2.23672
2.2301
2.22262
2.21608
2.20839
2.20141
2.19316
2.18561
2.17706
2.16944
2.16094
2.15359
2.14514
2.1381
2.12969
2.12282
2.1144
2.10746
2.09896
2.09176
2.0832
2.07603
2.06767
2.06106
2.05315
2.0474
2.04008
2.03505
2.02839
2.02386
2.01803
2.01405
2.00931
2.00619
2.0032
2.00138
2.00091
2.00131
2.00128
2.00079
2.22479
2.16855
2.11268
2.05625
2.0034
1.95194
1.90579
1.86061
1.82185
1.78439
1.75535
1.73278
1.73316
1.74291
1.77239
1.84821
1.96256
2.06057
2.1116
2.14557
2.1645
2.17547
2.1976
2.22956
2.26757
2.31546
2.38385
2.45179
2.47215
2.46521
2.44303
2.40391
2.35625
2.31263
2.2803
2.25918
2.24511
2.236
2.23054
2.23331
2.24045
2.24905
2.25588
2.26073
2.26363
2.26476
2.26448
2.26334
2.26101
2.25867
2.25565
2.2532
2.25022
2.24693
2.24193
2.23662
2.2303
2.22451
2.2178
2.21182
2.20492
2.19885
2.19196
2.18583
2.17885
2.1724
2.16488
2.15782
2.14962
2.14226
2.13381
2.1266
2.11823
2.11122
2.10295
2.09615
2.08812
2.08147
2.07344
2.06676
2.05851
2.05187
2.04364
2.03745
2.02984
2.02442
2.01786
2.01318
2.00773
2.00376
1.99958
1.99624
1.99362
1.99124
1.99005
1.98961
1.98967
1.9901
1.99137
1.99053
2.22054
2.17137
2.1184
2.06752
2.01651
1.96908
1.92274
1.88096
1.84054
1.80481
1.77175
1.74586
1.72848
1.72944
1.74145
1.77383
1.84817
1.96197
2.04161
2.07532
2.10874
2.13158
2.15106
2.17789
2.22347
2.29591
2.3821
2.44477
2.45272
2.44122
2.41339
2.36936
2.32008
2.27827
2.24476
2.21915
2.20286
2.19126
2.18508
2.18213
2.1852
2.19291
2.2019
2.21053
2.21658
2.22076
2.22283
2.22342
2.22271
2.22125
2.21888
2.21706
2.21459
2.21245
2.20838
2.20384
2.19778
2.19212
2.18554
2.1795
2.17272
2.16651
2.1597
2.15359
2.1468
2.14073
2.13358
2.1271
2.11923
2.11224
2.104
2.09703
2.08894
2.08227
2.07445
2.06802
2.06021
2.05393
2.04606
2.03993
2.03204
2.02598
2.01826
2.01239
2.00538
2.00009
1.99429
1.9898
1.9856
1.98221
1.97941
1.97751
1.97604
1.97544
1.97553
1.97572
1.97607
1.97692
1.97938
1.97789
2.21411
2.16998
2.12413
2.07598
2.0292
1.98321
1.93969
1.89778
1.85895
1.82245
1.7893
1.75983
1.73652
1.72503
1.72641
1.74003
1.77437
1.84585
1.95487
2.02633
2.05314
2.08287
2.11176
2.15153
2.20536
2.30454
2.39691
2.43975
2.43914
2.42355
2.38968
2.34286
2.29589
2.25516
2.22164
2.19513
2.17471
2.16072
2.15213
2.14772
2.14511
2.14738
2.15404
2.16242
2.17197
2.17799
2.18334
2.18481
2.18578
2.18514
2.18346
2.18213
2.17987
2.1782
2.17482
2.17091
2.16504
2.15949
2.15295
2.1471
2.14045
2.13446
2.12762
2.12153
2.11452
2.10847
2.10133
2.09515
2.08758
2.08096
2.07287
2.06598
2.0579
2.05141
2.0437
2.03763
2.03005
2.02412
2.0166
2.01079
2.00362
1.998
1.99146
1.98604
1.98032
1.97523
1.97051
1.9665
1.96325
1.9608
1.95922
1.95844
1.95856
1.95878
1.9592
1.96
1.96131
1.96201
1.96385
1.96251
2.20621
2.1662
2.12456
2.08123
2.03847
1.99497
1.95458
1.91399
1.87678
1.84043
1.80752
1.77648
1.7504
1.72923
1.72211
1.72495
1.73968
1.77695
1.84351
1.94776
2.01271
2.04473
2.07931
2.13328
2.21982
2.3347
2.42094
2.44037
2.43371
2.41157
2.37055
2.32284
2.27931
2.24176
2.20932
2.18231
2.15999
2.14235
2.1301
2.12222
2.11783
2.11572
2.11581
2.1201
2.12698
2.13477
2.14024
2.14536
2.14725
2.14869
2.14771
2.14628
2.1435
2.14134
2.1379
2.1345
2.12905
2.12398
2.11762
2.11229
2.10571
2.10026
2.09331
2.08758
2.08021
2.07429
2.06674
2.06077
2.05312
2.04697
2.03903
2.03266
2.02465
2.01839
2.01067
2.00476
1.99757
1.99185
1.98516
1.97941
1.97332
1.96781
1.96256
1.95772
1.95327
1.94926
1.94586
1.9431
1.94103
1.93987
1.93955
1.93973
1.94032
1.94103
1.9423
1.94322
1.94416
1.9445
1.94424
1.94312
2.19646
2.16152
2.12354
2.08509
2.04385
2.00541
1.96448
1.92844
1.89037
1.85689
1.823
1.79329
1.76446
1.74162
1.72275
1.72055
1.72505
1.74053
1.78185
1.84522
1.94554
2.01331
2.06212
2.13507
2.2663
2.38649
2.43839
2.43931
2.42745
2.39747
2.35456
2.31078
2.27145
2.23713
2.20627
2.17947
2.1554
2.1353
2.1187
2.10522
2.09668
2.09064
2.08625
2.08356
2.08413
2.08793
2.0936
2.09899
2.10374
2.10591
2.10704
2.10597
2.1036
2.10134
2.09806
2.09531
2.09081
2.08629
2.08041
2.07523
2.06896
2.06362
2.05699
2.05145
2.04436
2.03864
2.03122
2.02546
2.01796
2.01223
2.00492
1.99922
1.99212
1.98614
1.97925
1.97312
1.9667
1.96081
1.95503
1.94961
1.94445
1.93964
1.9352
1.93112
1.92768
1.92488
1.92283
1.92168
1.92103
1.92123
1.92176
1.92238
1.92372
1.92493
1.9261
1.92657
1.92617
1.92552
1.92408
1.92204
2.18591
2.15489
2.12089
2.08517
2.0486
2.01114
1.97511
1.93811
1.90441
1.86961
1.83851
1.80716
1.77961
1.75349
1.73225
1.7176
1.71813
1.72531
1.74433
1.79228
1.85946
1.96232
2.05478
2.16729
2.32535
2.4315
2.45322
2.44731
2.42694
2.3893
2.34581
2.30653
2.27097
2.23905
2.20996
2.18257
2.15699
2.13384
2.11245
2.09486
2.07966
2.0682
2.05908
2.05161
2.04619
2.04262
2.04383
2.04815
2.05329
2.0582
2.06085
2.06195
2.06134
2.05964
2.05663
2.05465
2.05138
2.04835
2.04323
2.03881
2.03276
2.0279
2.02137
2.01637
2.00954
2.00447
1.99754
1.99226
1.98534
1.97975
1.97322
1.9675
1.96137
1.95558
1.94967
1.9439
1.93821
1.9328
1.92768
1.92309
1.91893
1.91527
1.91209
1.90936
1.9075
1.90624
1.90569
1.90597
1.90662
1.90738
1.909
1.91064
1.91206
1.91298
1.91273
1.91207
1.91088
1.90871
1.90458
1.90163
2.17457
2.14603
2.11595
2.08311
2.05071
2.01454
1.98171
1.94643
1.91428
1.88139
1.85132
1.82051
1.79426
1.76569
1.74563
1.72371
1.71702
1.71884
1.72992
1.75605
1.81435
1.90878
2.03838
2.22883
2.39999
2.4614
2.46295
2.45164
2.42385
2.38446
2.34593
2.31034
2.27724
2.24667
2.21601
2.18688
2.15817
2.13143
2.10679
2.08389
2.06365
2.04591
2.03105
2.019
2.00969
2.00244
1.99909
1.99805
2.00088
2.00575
2.0102
2.01447
2.01639
2.01775
2.01681
2.01577
2.01369
2.01195
2.00829
2.00488
1.99932
1.99508
1.98906
1.98441
1.97837
1.97345
1.96763
1.96246
1.95681
1.95153
1.94595
1.94056
1.93507
1.92973
1.92447
1.9194
1.9145
1.90993
1.9057
1.90192
1.89862
1.89576
1.89375
1.89247
1.89224
1.89262
1.89364
1.89473
1.89679
1.89932
1.90145
1.90283
1.90331
1.90308
1.9022
1.90007
1.89644
1.89147
1.88635
1.88255
2.16219
2.13509
2.10871
2.07868
2.04852
2.01815
1.98451
1.95418
1.92092
1.89156
1.86028
1.83314
1.80408
1.78022
1.75454
1.73628
1.72156
1.72195
1.72954
1.74912
1.79576
1.87859
2.04594
2.27975
2.45203
2.48589
2.48019
2.46163
2.42679
2.38997
2.35371
2.31808
2.28298
2.24827
2.21488
2.18228
2.15138
2.12199
2.09393
2.06792
2.04399
2.02264
2.00426
1.98919
1.97745
1.96836
1.96197
1.9581
1.95608
1.95759
1.96212
1.96781
1.97345
1.97752
1.97993
1.98093
1.97988
1.97879
1.97645
1.97426
1.9699
1.96595
1.96101
1.95657
1.9516
1.94686
1.9417
1.93668
1.93155
1.92654
1.92153
1.91664
1.91182
1.90712
1.9026
1.89824
1.89426
1.8906
1.8875
1.88472
1.88262
1.88118
1.88057
1.88089
1.88167
1.88268
1.88454
1.88758
1.88987
1.89228
1.89302
1.89277
1.89192
1.89038
1.88736
1.88238
1.87657
1.87048
1.86427
1.86045
2.1489
2.12452
2.09843
2.07365
2.04386
2.01672
1.98678
1.95746
1.92757
1.89917
1.86885
1.84368
1.81386
1.79223
1.76543
1.74833
1.73238
1.73284
1.74064
1.75971
1.80342
1.8919
2.067
2.30935
2.45358
2.47252
2.46009
2.43869
2.40245
2.36363
2.32606
2.28965
2.25525
2.22157
2.18953
2.15822
2.12849
2.09948
2.07265
2.04744
2.02422
2.00302
1.9839
1.9676
1.95374
1.94297
1.93395
1.92683
1.92275
1.92099
1.92141
1.9249
1.93043
1.93605
1.9411
1.94429
1.94615
1.94599
1.9449
1.94377
1.94164
1.9387
1.93467
1.9305
1.92605
1.92154
1.91682
1.91209
1.90729
1.90254
1.89785
1.89328
1.88888
1.8847
1.88083
1.8773
1.87425
1.87175
1.86959
1.86819
1.86759
1.86795
1.86884
1.87041
1.87225
1.87615
1.87932
1.88204
1.88459
1.88451
1.88423
1.88338
1.88119
1.87702
1.8718
1.86573
1.85909
1.85244
1.84621
1.84232
2.13742
2.11333
2.08792
2.06494
2.0393
2.01304
1.9858
1.9594
1.92975
1.90538
1.87466
1.85188
1.82331
1.80131
1.77826
1.75994
1.75118
1.75387
1.76491
1.78933
1.84426
1.94523
2.09556
2.25345
2.36348
2.40145
2.3977
2.38626
2.36457
2.32992
2.29467
2.26111
2.23007
2.20018
2.17143
2.14294
2.11529
2.08815
2.06244
2.03774
2.01473
1.993
1.97312
1.9546
1.9384
1.92413
1.91297
1.90378
1.8962
1.89108
1.88862
1.88732
1.88895
1.89289
1.89904
1.90429
1.90898
1.91149
1.91264
1.91222
1.91132
1.90993
1.90755
1.90422
1.90049
1.89654
1.89254
1.8886
1.88472
1.88092
1.87719
1.87357
1.87008
1.86688
1.86401
1.86162
1.85995
1.85861
1.85811
1.85854
1.85945
1.8608
1.86279
1.86653
1.86987
1.87316
1.87563
1.87681
1.87667
1.87589
1.8742
1.87144
1.86612
1.8604
1.8538
1.84695
1.8397
1.83299
1.82662
1.82266
2.12247
2.10198
2.07849
2.05519
2.03259
2.00827
1.98293
1.95869
1.9315
1.90736
1.88081
1.85606
1.83263
1.80883
1.79074
1.77599
1.77603
1.78406
1.8026
1.84541
1.92062
2.02988
2.11902
2.1894
2.2719
2.32804
2.34569
2.3418
2.33147
2.31038
2.28069
2.24879
2.21847
2.18999
2.16171
2.13433
2.10659
2.08057
2.05504
2.03141
2.00842
1.9869
1.96581
1.9464
1.92801
1.91209
1.89783
1.88616
1.8763
1.86757
1.86145
1.85774
1.8567
1.85721
1.86051
1.86577
1.87195
1.87663
1.88055
1.88211
1.88273
1.88211
1.88134
1.87995
1.87733
1.87384
1.87014
1.86645
1.86286
1.85943
1.85622
1.8533
1.85072
1.84864
1.8471
1.84624
1.84593
1.84636
1.84751
1.84885
1.85161
1.85558
1.85954
1.8633
1.86637
1.86919
1.86876
1.8684
1.86747
1.86521
1.86067
1.85548
1.84907
1.8424
1.83525
1.82824
1.82103
1.81456
1.80842
1.80468
2.1079
2.09084
2.06931
2.04583
2.02468
2.0022
1.97866
1.95599
1.93113
1.90806
1.88352
1.86099
1.83816
1.81935
1.80357
1.8013
1.80841
1.82444
1.86044
1.92638
2.02399
2.08949
2.12227
2.14863
2.18779
2.24127
2.27904
2.29578
2.29355
2.28549
2.26961
2.24296
2.21271
2.18383
2.15555
2.1283
2.10121
2.07552
2.05047
2.02716
2.00417
1.98242
1.96101
1.94049
1.9213
1.90316
1.88705
1.87267
1.86013
1.84974
1.84022
1.83291
1.82815
1.82622
1.82597
1.82751
1.83177
1.83692
1.84279
1.84684
1.85039
1.85158
1.85247
1.85209
1.85132
1.84975
1.84726
1.84444
1.84163
1.83908
1.83685
1.83512
1.83394
1.83339
1.83354
1.83418
1.83551
1.83701
1.84006
1.84446
1.84882
1.85321
1.85726
1.85968
1.86156
1.86124
1.8603
1.85835
1.85518
1.85022
1.84406
1.8377
1.83049
1.82346
1.81617
1.80935
1.80243
1.79637
1.79057
1.78714
2.0881
2.07613
2.0593
2.03622
2.01567
1.99508
1.9732
1.95207
1.9293
1.90744
1.88559
1.86442
1.84587
1.83026
1.82748
1.83444
1.84945
1.88285
1.94733
2.0349
2.09468
2.11266
2.1167
2.11964
2.13203
2.16016
2.1997
2.23592
2.25369
2.25394
2.24747
2.23366
2.20944
2.1806
2.15178
2.12369
2.09657
2.07028
2.04575
2.02193
1.9997
1.97741
1.9561
1.9348
1.91459
1.89555
1.87802
1.86201
1.84776
1.83466
1.82372
1.81331
1.80511
1.79932
1.79656
1.79603
1.79657
1.79926
1.80468
1.80987
1.81581
1.81943
1.82289
1.82388
1.82484
1.8246
1.82405
1.82288
1.82121
1.81975
1.81872
1.81854
1.81896
1.81997
1.82119
1.8235
1.82756
1.83179
1.83667
1.84186
1.84631
1.85015
1.85285
1.8526
1.85225
1.85125
1.84866
1.84429
1.8386
1.83247
1.82535
1.81863
1.81125
1.80438
1.7973
1.7909
1.78443
1.7789
1.77368
1.77065
2.06758
2.06216
2.04752
2.02689
2.00646
1.98712
1.96673
1.94676
1.92628
1.90566
1.88611
1.86865
1.8545
1.85203
1.85941
1.87484
1.90993
1.97228
2.05652
2.11241
2.12533
2.11865
2.11236
2.09975
2.10036
2.10655
2.12625
2.1618
2.19794
2.21752
2.21953
2.21339
2.20105
2.17768
2.14946
2.12049
2.09253
2.06558
2.04075
2.01713
1.9948
1.97273
1.95096
1.92918
1.90829
1.88837
1.87002
1.85296
1.83712
1.82249
1.80892
1.79712
1.78655
1.77771
1.77124
1.76762
1.76644
1.7663
1.7678
1.7715
1.77785
1.78315
1.78931
1.79301
1.7967
1.79856
1.79993
1.80085
1.80142
1.80201
1.80271
1.80399
1.80561
1.80857
1.81279
1.81777
1.82324
1.82896
1.83456
1.83928
1.84206
1.84442
1.8438
1.8428
1.84073
1.83783
1.83233
1.82655
1.81978
1.81322
1.8059
1.79909
1.79201
1.78567
1.77911
1.7733
1.76747
1.76259
1.75808
1.75547
2.03797
2.04172
2.03441
2.01836
1.99781
1.97851
1.95973
1.94077
1.92239
1.90403
1.88765
1.87505
1.87347
1.88189
1.89856
1.93476
1.99989
2.08284
2.13722
2.14722
2.13872
2.12474
2.10116
2.08281
2.07595
2.07656
2.08212
2.09923
2.12933
2.16156
2.178
2.18048
2.17501
2.16402
2.14371
2.11809
2.08995
2.06182
2.03538
2.01103
1.98838
1.96655
1.94474
1.92329
1.90209
1.88227
1.8635
1.84573
1.829
1.81266
1.79757
1.78368
1.77149
1.76106
1.75184
1.74481
1.74021
1.73809
1.73777
1.73871
1.74173
1.74749
1.75417
1.76066
1.76673
1.77175
1.77567
1.7792
1.78217
1.78526
1.78859
1.79217
1.79646
1.80159
1.80772
1.81418
1.8205
1.82612
1.83086
1.83332
1.8339
1.83349
1.83232
1.82984
1.82494
1.81997
1.81329
1.80698
1.79972
1.79315
1.78611
1.77982
1.77323
1.76743
1.76152
1.75644
1.75135
1.74723
1.74348
1.74143
2.00247
2.02059
2.01904
2.00775
1.99001
1.97068
1.95237
1.93519
1.91846
1.90396
1.89259
1.89222
1.90195
1.92044
1.95868
2.02743
2.11147
2.16088
2.1687
2.15968
2.142
2.11469
2.08979
2.06955
2.05795
2.05374
2.05425
2.05842
2.07193
2.09523
2.12342
2.1376
2.14101
2.13649
2.12737
2.11114
2.08616
2.05802
2.03043
2.00574
1.9828
1.96085
1.93862
1.91668
1.89514
1.87517
1.85608
1.83811
1.82042
1.80351
1.78702
1.77223
1.75832
1.74667
1.73587
1.72654
1.71865
1.71317
1.71062
1.71062
1.71131
1.71399
1.71945
1.72697
1.73491
1.7429
1.75057
1.75736
1.76395
1.77026
1.77646
1.78317
1.79032
1.79763
1.80481
1.81169
1.81722
1.82107
1.8236
1.82303
1.8222
1.82055
1.81728
1.81281
1.80651
1.80043
1.79329
1.78691
1.77982
1.7736
1.76697
1.7612
1.75523
1.75009
1.74484
1.74045
1.73612
1.73284
1.73001
1.72857
1.92915
1.98825
1.99815
1.99427
1.9812
1.96361
1.94612
1.93025
1.91666
1.9077
1.90844
1.92001
1.94068
1.98236
2.05619
2.13981
2.18494
2.19022
2.18076
2.16016
2.13259
2.10432
2.08104
2.06196
2.04671
2.03683
2.03188
2.03142
2.03268
2.04114
2.05981
2.08207
2.0952
2.10059
2.09722
2.0904
2.07698
2.05259
2.02618
2.00122
1.97812
1.95509
1.93209
1.90933
1.88798
1.86797
1.8493
1.83076
1.81285
1.79486
1.77819
1.76218
1.74802
1.73448
1.72282
1.7116
1.70227
1.69404
1.68868
1.68587
1.68594
1.68655
1.68904
1.69461
1.70325
1.71322
1.72409
1.73525
1.74608
1.75662
1.76672
1.77641
1.78557
1.79398
1.80123
1.807
1.80981
1.81139
1.81089
1.80986
1.80752
1.80368
1.79831
1.79274
1.78594
1.77985
1.77296
1.76694
1.76028
1.75462
1.7485
1.74335
1.73792
1.73349
1.72892
1.72552
1.72211
1.71993
1.71807
1.71721
1.7914
1.94204
1.9725
1.97623
1.97063
1.95736
1.94129
1.92749
1.91949
1.92218
1.93554
1.9592
2.00585
2.0862
2.16833
2.20711
2.21016
2.20044
2.17954
2.14771
2.12058
2.09616
2.07539
2.05816
2.04017
2.02702
2.01443
2.00779
2.00416
2.00468
2.00858
2.02063
2.03919
2.05262
2.05978
2.0573
2.05146
2.03955
2.01966
1.99657
1.97307
1.94906
1.92499
1.9021
1.88084
1.86125
1.84218
1.8232
1.80436
1.78623
1.76904
1.75334
1.73813
1.72447
1.71063
1.69912
1.68753
1.67931
1.67123
1.66653
1.66414
1.66425
1.66508
1.66813
1.67514
1.68599
1.69903
1.71355
1.72853
1.74313
1.75692
1.7692
1.77967
1.78752
1.79352
1.79639
1.7969
1.79656
1.79544
1.79311
1.78839
1.78332
1.77731
1.77194
1.76526
1.75949
1.75291
1.74741
1.7412
1.7361
1.73046
1.72602
1.72126
1.71773
1.71407
1.71177
1.7094
1.7083
1.70757
1.70737
1.58274
1.85629
1.9429
1.95841
1.95876
1.95142
1.93925
1.92965
1.93305
1.9484
1.97856
2.02939
2.11829
2.1959
2.22929
2.22831
2.21802
2.19427
2.16393
2.13505
2.11052
2.09154
2.07063
2.05426
2.03514
2.01854
2.00349
1.98954
1.98214
1.97509