/*--------------------------------*- C++ -*----------------------------------*\
  =========                 |
  \\      /  F ield         | OpenFOAM: The Open Source CFD Toolbox
   \\    /   O peration     | Website:  https://openfoam.org
    \\  /    A nd           | Version:  10
     \\/     M anipulation  |
\*---------------------------------------------------------------------------*/
FoamFile
{
    format      ascii;
    class       volScalarField;
    location    "0.5";
    object      Ma;
}
// * * * * * * * * * * * * * * * * * * * * * * * * * * * * * * * * * * * * * //

dimensions      [0 0 0 0 0 0 0];

internalField   nonuniform List<scalar> 
5250
(
3.00001
3.00001
3
2.99999
2.99997
2.99992
2.99979
2.9994
2.99861
2.99607
2.99097
2.97489
2.93955
2.83889
2.58821
1.99834
0.987291
0.320224
0.164587
0.253966
0.2411
0.173895
0.120456
0.0646426
0.0312514
3.00001
3.00001
3
2.99999
2.99997
2.99992
2.99979
2.99942
2.99862
2.99618
2.99108
2.97539
2.94061
2.84185
2.59531
2.01264
1.00677
0.333156
0.168805
0.258588
0.246705
0.18195
0.132453
0.0843954
0.0582896
3.00001
3.00001
3
2.99999
2.99997
2.99992
2.9998
2.99945
2.99867
2.99633
2.9914
2.97633
2.94285
2.84785
2.61037
2.04386
1.05119
0.361643
0.180026
0.269883
0.261151
0.201425
0.158084
0.118667
0.0974462
3.00001
3.00001
3
3
2.99998
2.99993
2.99981
2.99948
2.99874
2.99655
2.99188
2.97769
2.94618
2.85668
2.6329
2.09166
1.1217
0.403733
0.197686
0.287341
0.283642
0.229867
0.19279
0.159524
0.14061
3.00001
3.00001
3
3
2.99998
2.99993
2.99982
2.99952
2.99882
2.99681
2.99248
2.97941
2.95038
2.86797
2.66201
2.15547
1.21964
0.457763
0.222332
0.310305
0.312289
0.264489
0.233471
0.20467
0.187159
3.00001
3.00001
3
3
2.99998
2.99994
2.99983
2.99956
2.99891
2.99712
2.99312
2.98141
2.95512
2.88111
2.69635
2.23466
1.3467
0.524359
0.254149
0.338646
0.346201
0.304458
0.28016
0.255308
0.239907
3.00001
3.00001
3
3
2.99998
2.99995
2.99985
2.99961
2.99901
2.99743
2.99375
2.98348
2.95993
2.89497
2.73305
2.32488
1.49993
0.602351
0.292857
0.373181
0.384195
0.349478
0.333421
0.313562
0.302426
3.00001
3.00001
3
3
2.99998
2.99995
2.99986
2.99965
2.9991
2.99771
2.99435
2.98531
2.96421
2.90723
2.76602
2.41117
1.65939
0.69158
0.343674
0.41354
0.424305
0.399935
0.393775
0.381184
0.380131
3.00001
3.00001
3
3
2.99999
2.99996
2.99988
2.9997
2.99919
2.99801
2.99493
2.98719
2.968
2.91852
2.79307
2.47952
1.78127
0.803777
0.414539
0.455379
0.463032
0.455888
0.461801
0.463279
0.485734
3.00001
3.00001
3
3
2.99999
2.99997
2.9999
2.99975
2.99931
2.99831
2.99565
2.98902
2.97245
2.92993
2.82191
2.54796
1.92659
0.954822
0.506041
0.491403
0.502594
0.516753
0.537922
0.571407
0.660401
3.00001
3.00001
3.00001
3
2.99999
2.99997
2.99992
2.99979
2.99943
2.9986
2.99639
2.99086
2.97709
2.94136
2.85133
2.61856
2.07887
1.14154
0.612081
0.526956
0.548466
0.581006
0.624465
0.70178
0.859817
3.00001
3.00001
3.00001
3
3
2.99998
2.99994
2.99982
2.99959
2.99879
2.99732
2.99226
2.9823
2.95178
2.88135
2.69029
2.23213
1.37867
0.737284
0.574975
0.603021
0.647451
0.707003
0.807413
0.978733
3.00001
3.00001
3.00001
3
3
2.99999
2.99995
2.99988
2.99964
2.99917
2.99769
2.99457
2.98545
2.96449
2.90743
2.76488
2.40161
1.67438
0.875331
0.636976
0.668438
0.711199
0.778474
0.881228
1.03131
3.00001
3.00001
3.00001
3
3
2.99999
2.99997
2.9999
2.99975
2.99933
2.9983
2.99573
2.98895
2.97267
2.92951
2.82121
2.54394
1.93403
1.03943
0.718665
0.735677
0.770653
0.835502
0.935537
1.06573
3.00001
3.00001
3.00001
3.00001
3
3
2.99998
2.99993
2.99982
2.99947
2.99883
2.99657
2.99233
2.97851
2.94878
2.86423
2.65615
2.15736
1.28581
0.843431
0.795824
0.823682
0.87959
0.972168
1.0872
3.00001
3.00001
3.00001
3.00001
3
3
2.99999
2.99995
2.99987
2.99965
2.99913
2.99769
2.99441
2.98499
2.96364
2.90388
2.75645
2.37979
1.64317
1.00388
0.858301
0.87495
0.920723
1.00119
1.103
3.00001
3.00001
3.00001
3.00001
3.00001
3
2.99999
2.99997
2.9999
2.99978
2.99936
2.99849
2.99593
2.99008
2.9742
2.93547
2.83382
2.57892
2.01445
1.20306
0.943086
0.934205
0.967533
1.03129
1.12167
3.00001
3.00001
3.00001
3.00001
3.00001
3
3
2.99998
2.99994
2.99984
2.99959
2.99896
2.99728
2.99336
2.98231
2.95685
2.88664
2.71219
2.28404
1.5005
1.07281
0.997405
1.01786
1.06459
1.1388
3.00001
3.00001
3.00001
3.00001
3.00001
3.00001
3
2.99999
2.99997
2.9999
2.99975
2.99931
2.99836
2.99547
2.98952
2.97122
2.93116
2.81849
2.5458
1.9444
1.26266
1.07977
1.07517
1.10435
1.159
3.00001
3.00001
3.00001
3.00001
3.00001
3.00001
3
3
2.99998
2.99994
2.99984
2.99958
2.99892
2.99732
2.99296
2.9828
2.95487
2.88728
2.70851
2.28484
1.54744
1.19775
1.13409
1.14856
1.18893
3.00001
3.00001
3.00001
3.00001
3.00001
3.00001
3.00001
3
2.99999
2.99997
2.9999
2.99977
2.99932
2.99849
2.99562
2.99012
2.97273
2.93469
2.82851
2.57227
2.00147
1.38411
1.21639
1.20537
1.23088
3.00001
3.00001
3.00001
3.00001
3.00001
3.00001
3.00001
3
3
2.99999
2.99995
2.99987
2.99961
2.99913
2.99744
2.99425
2.98391
2.96179
2.89854
2.74544
2.36378
1.69219
1.33753
1.26679
1.27575
3.00001
3.00001
3.00001
3.00001
3.00001
3.00001
3.00001
3.00001
3
2.99999
2.99998
2.99992
2.9998
2.99946
2.9987
2.99645
2.9917
2.97736
2.94584
2.858
2.64697
2.15835
1.55824
1.36367
1.33216
3.00001
3.00001
3.00001
3.00001
3.00001
3.00001
3.00001
3.00001
3
3
2.99999
2.99997
2.99989
2.99975
2.99924
2.99831
2.99516
2.98877
2.9696
2.92547
2.80593
2.51404
1.93397
1.49636
1.40374
3.00001
3.00001
3.00001
3.00001
3.00001
3.00001
3.00001
3.00001
3.00001
3
3
2.99998
2.99995
2.99985
2.99966
2.999
2.99777
2.99351
2.98526
2.95932
2.90046
2.74206
2.36255
1.77755
1.51622
3.00001
3.00001
3.00001
3.00001
3.00001
3.00001
3.00001
3.00001
3.00001
3.00001
3
3
2.99998
2.99993
2.99984
2.99951
2.99888
2.99683
2.99258
2.9799
2.95118
2.87276
2.68354
2.24149
1.74293
3.00001
3.00001
3.00001
3.00001
3.00001
3.00001
3.00001
3.00001
3.00001
3.00001
3.00001
3
2.99999
2.99998
2.99992
2.9998
2.99941
2.99866
2.99614
2.99128
2.97556
2.9422
2.84689
2.61945
2.13967
3.00001
3.00001
3.00001
3.00001
3.00001
3.00001
3.00001
3.00001
3.00001
3.00001
3.00001
3.00001
3
2.99999
2.99997
2.9999
2.99976
2.99933
2.99845
2.99558
2.98989
2.97168
2.93236
2.82087
2.55352
3.00001
3.00001
3.00001
3.00001
3.00001
3.00001
3.00001
3.00001
3.00001
3.00001
3.00001
3.00001
3.00001
3
2.99999
2.99996
2.99991
2.99971
2.99935
2.99805
2.99573
2.98739
2.97126
2.92008
2.80497
3.00001
3.00001
3.00001
3.00001
3.00001
3.00001
3.00001
3.00001
3.00001
3.00001
3.00001
3.00001
3.00001
3
3
2.99999
2.99997
2.99989
2.99973
2.99925
2.99811
2.99514
2.98743
2.96813
2.91758
3.00001
3.00001
3.00001
3.00001
3.00001
3.00001
3.00001
3.00001
3.00001
3.00001
3.00001
3.00001
3.00001
3.00001
3
3
2.99999
2.99997
2.99989
2.99974
2.99922
2.99823
2.99488
2.98799
2.96695
3.00001
3.00001
3.00001
3.00001
3.00001
3.00001
3.00001
3.00001
3.00001
3.00001
3.00001
3.00001
3.00001
3.00001
3.00001
3.00001
3
2.99999
2.99997
2.9999
2.99974
2.99931
2.99825
2.99528
2.98852
3.00001
3.00001
3.00001
3.00001
3.00001
3.00001
3.00001
3.00001
3.00001
3.00001
3.00001
3.00001
3.00001
3.00001
3.00001
3.00001
3.00001
3
2.99999
2.99997
2.99992
2.99976
2.99942
2.99838
2.99597
3.00001
3.00001
3.00001
3.00001
3.00001
3.00001
3.00001
3.00001
3.00001
3.00001
3.00001
3.00001
3.00001
3.00001
3.00001
3.00001
3.00001
3.00001
3
3
2.99998
2.99994
2.99979
2.99954
2.99858
3.00001
3.00001
3.00001
3.00001
3.00001
3.00001
3.00001
3.00001
3.00001
3.00001
3.00001
3.00001
3.00001
3.00001
3.00001
3.00001
3.00001
3.00001
3.00001
3
3
2.99998
2.99995
2.99985
2.99963
3.00001
3.00001
3.00001
3.00001
3.00001
3.00001
3.00001
3.00001
3.00001
3.00001
3.00001
3.00001
3.00001
3.00001
3.00001
3.00001
3.00001
3.00001
3.00001
3.00001
3.00001
3
2.99999
2.99997
2.9999
3.00001
3.00001
3.00001
3.00001
3.00001
3.00001
3.00001
3.00001
3.00001
3.00001
3.00001
3.00001
3.00001
3.00001
3.00001
3.00001
3.00001
3.00001
3.00001
3.00001
3.00001
3.00001
3
3
2.99998
3.00001
3.00001
3.00001
3.00001
3.00001
3.00001
3.00001
3.00001
3.00001
3.00001
3.00001
3.00001
3.00001
3.00001
3.00001
3.00001
3.00001
3.00001
3.00001
3.00001
3.00001
3.00001
3.00001
3
3
3.00001
3.00001
3.00001
3.00001
3.00001
3.00001
3.00001
3.00001
3.00001
3.00001
3.00001
3.00001
3.00001
3.00001
3.00001
3.00001
3.00001
3.00001
3.00001
3.00001
3.00001
3.00001
3.00001
3.00001
3.00001
3.00001
3.00001
3.00001
3.00001
3.00001
3.00001
3.00001
3.00001
3.00001
3.00001
3.00001
3.00001
3.00001
3.00001
3.00001
3.00001
3.00001
3.00001
3.00001
3.00001
3.00001
3.00001
3.00001
3.00001
3.00001
3.00001
3.00001
3.00001
3.00001
3.00001
3.00001
3.00001
3.00001
3.00001
3.00001
3.00001
3.00001
3.00001
3.00001
3.00001
3.00001
3.00001
3.00001
3.00001
3.00001
3.00001
3.00001
3.00001
3.00001
3.00001
3.00001
3.00001
3.00001
3.00001
3.00001
3.00001
3.00001
3.00001
3.00001
3.00001
3.00001
3.00001
3.00001
3.00001
3.00001
3.00001
3.00001
3.00001
3.00001
3.00001
3.00001
3.00001
3.00001
3.00001
3.00001
3.00001
3.00001
3.00001
3.00001
3.00001
3.00001
3.00001
3.00001
3.00001
3.00001
3.00001
3.00001
3.00001
3.00001
3.00001
3.00001
3.00001
3.00001
3.00001
3.00001
3.00001
3.00001
3.00001
3.00001
3.00001
3.00001
3.00001
3.00001
3.00001
3.00001
3.00001
3.00001
3.00001
3.00001
3.00001
3.00001
3.00001
3.00001
3.00001
3.00001
3.00001
3.00001
3.00001
3.00001
3.00001
3.00001
3.00001
3.00001
3.00001
3.00001
3.00001
3.00001
3.00001
3.00001
3.00001
3.00001
3.00001
3.00001
3.00001
3.00001
3.00001
3.00001
3.00001
3.00001
3.00001
3.00001
3.00001
3.00001
3.00001
3.00001
3.00001
3.00001
3.00001
3.00001
3.00001
3.00001
3.00001
3.00001
3.00001
3.00001
3.00001
3.00001
3.00001
3.00001
3.00001
3.00001
3.00001
3.00001
3.00001
3.00001
3.00001
3.00001
3.00001
3.00001
3.00001
3.00001
3.00001
3.00001
3.00001
3.00001
3.00001
3.00001
3.00001
3.00001
3.00001
3.00001
3.00001
3.00001
3.00001
3.00001
3.00001
3.00001
3.00001
3.00001
3.00001
3.00001
3.00001
3.00001
3.00001
3.00001
3.00001
3.00001
3.00001
3.00001
3.00001
3.00001
3.00001
3.00001
3.00001
3.00001
3.00001
3.00001
3.00001
3.00001
3.00001
3.00001
3.00001
3.00001
3.00001
3.00001
3.00001
3.00001
3.00001
3.00001
3.00001
3.00001
3.00001
3.00001
3.00001
3.00001
3.00001
3.00001
3.00001
3.00001
3.00001
3.00001
3.00001
3.00001
3.00001
3.00001
3.00001
3.00001
3.00001
3.00001
3.00001
3.00001
3.00001
3.00001
3.00001
3.00001
3.00001
3.00001
3.00001
3.00001
3.00001
3.00001
3.00001
3.00001
3.00001
3.00001
3.00001
3.00001
3.00001
3.00001
3.00001
3.00001
3.00001
3.00001
3.00001
3.00001
3.00001
3.00001
3.00001
3.00001
3.00001
3.00001
3.00001
3.00001
3.00001
3.00001
1.11404
1.32998
1.41834
1.4095
1.35839
1.30394
1.25425
1.23077
1.23483
1.24653
1.26297
1.28654
1.30887
1.32556
1.34074
1.3564
1.37338
1.39187
1.41167
1.43228
1.45291
1.47286
1.49188
1.51014
1.5279
1.54543
1.56298
1.58053
1.59771
1.61385
1.62838
1.64083
1.65084
1.6589
1.66592
1.67122
1.67458
1.67782
1.68168
1.68652
1.69204
1.69806
1.70648
1.72247
1.75179
1.79032
1.83645
1.88972
1.94925
2.01372
2.08169
2.15173
2.22242
2.29236
2.36027
2.42503
2.48575
2.54182
2.59285
2.6387
2.67947
2.71539
2.74678
2.77407
2.79783
2.81874
2.83752
2.85482
2.87108
2.8866
2.9015
2.91578
2.92942
2.94227
2.95404
2.9644
2.97311
2.9803
2.98631
2.99169
2.99694
3.00062
3.0041
3.00648
3.0073
3.00711
3.00634
3.00531
3.00428
3.00337
3.00251
3.00175
3.0012
3.0008
3.00053
3.00034
3.00022
3.00013
3.00008
3.00005
1.13852
1.26192
1.34265
1.40092
1.45791
1.51314
1.55152
1.56426
1.56626
1.56593
1.56621
1.56804
1.57374
1.58589
1.60306
1.6201
1.63619
1.65198
1.66786
1.68372
1.69929
1.71456
1.72958
1.74432
1.75852
1.77209
1.78516
1.79804
1.81096
1.82404
1.83714
1.84979
1.86122
1.87074
1.87805
1.88358
1.88814
1.89203
1.89458
1.89598
1.89809
1.90102
1.90424
1.90903
1.91944
1.93987
1.97105
2.00877
2.0526
2.10195
2.15601
2.21361
2.27347
2.3343
2.39492
2.45434
2.51175
2.56641
2.61771
2.66509
2.70819
2.74681
2.78103
2.81114
2.83751
2.86052
2.88054
2.89801
2.91346
2.92738
2.94017
2.952
2.96288
2.97266
2.98113
2.98816
2.99366
2.99788
3.00118
3.00399
3.00641
3.00911
3.01144
3.01211
3.0116
3.01038
3.00884
3.0073
3.0059
3.00446
3.00322
3.00229
3.0016
3.0011
3.00074
3.00049
3.00032
3.00021
3.00013
3.00009
1.1552
1.25906
1.35778
1.45651
1.55179
1.63393
1.69508
1.72641
1.73398
1.73511
1.73328
1.73104
1.73404
1.73884
1.7469
1.75962
1.77532
1.79155
1.80713
1.82199
1.83605
1.84966
1.86269
1.87524
1.88727
1.899
1.91037
1.92145
1.93237
1.9431
1.95355
1.964
1.97458
1.98455
1.99297
2.00019
2.00689
2.01264
2.01731
2.02106
2.02425
2.02727
2.03025
2.03464
2.04335
2.06008
2.08584
2.11817
2.15669
2.20082
2.24973
2.30239
2.35762
2.4142
2.47097
2.52688
2.58108
2.63279
2.68134
2.72609
2.76647
2.80217
2.83315
2.85963
2.88203
2.90093
2.9169
2.93046
2.94212
2.95236
2.96163
2.97023
2.97821
2.98537
2.99147
2.99633
2.99997
3.00263
3.00471
3.00648
3.00815
3.01087
3.01255
3.01274
3.01192
3.01051
3.00887
3.0073
3.00583
3.00434
3.00312
3.00221
3.00153
3.00105
3.0007
3.00046
3.0003
3.00019
3.00012
3.00008
1.18349
1.28688
1.3844
1.4774
1.56247
1.6379
1.70052
1.75125
1.79184
1.81909
1.83716
1.84523
1.84823
1.85099
1.85331
1.85782
1.86517
1.87654
1.89234
1.90965
1.92588
1.94079
1.95391
1.96626
1.97782
1.98903
1.99964
2.01
2.02013
2.03016
2.04005
2.05002
2.06055
2.07139
2.08139
2.09029
2.09862
2.10594
2.1118
2.11618
2.11953
2.12257
2.1254
2.12964
2.13768
2.15483
2.18231
2.21724
2.25864
2.30543
2.35619
2.40944
2.4637
2.51764
2.57014
2.62026
2.66731
2.71084
2.75063
2.78661
2.81878
2.84716
2.87182
2.89291
2.91078
2.92589
2.93877
2.94989
2.95968
2.96843
2.97632
2.98355
2.99022
2.99628
3.00146
3.00552
3.00833
3.01013
3.01118
3.01183
3.01321
3.01527
3.01594
3.01535
3.01392
3.01205
3.0101
3.00829
3.00646
3.00475
3.00344
3.00245
3.00172
3.00119
3.00081
3.00054
3.00035
3.00023
3.00015
3.0001
1.19831
1.29762
1.38898
1.47444
1.55545
1.63082
1.69921
1.76209
1.8185
1.86566
1.90114
1.92436
1.93315
1.93771
1.93937
1.94059
1.94436
1.95057
1.95944
1.97178
1.98692
2.00152
2.01604
2.0289
2.04099
2.05206
2.06259
2.07261
2.08264
2.09269
2.10262
2.11262
2.12314
2.13414
2.14457
2.15432
2.16389
2.17256
2.17962
2.18499
2.18943
2.19379
2.19967
2.21064
2.22933
2.25462
2.28613
2.32313
2.36469
2.40969
2.45695
2.50522
2.55346
2.60075
2.64635
2.68964
2.73011
2.76738
2.80127
2.83174
2.85888
2.88282
2.9036
2.92134
2.93622
2.94859
2.9589
2.96765
2.97529
2.98216
2.98845
2.99424
2.99949
3.0041
3.0079
3.01068
3.01237
3.01318
3.01332
3.01379
3.01488
3.01645
3.01666
3.01572
3.01405
3.01203
3.01003
3.00816
3.00623
3.00456
3.00329
3.00234
3.00163
3.00112
3.00076
3.0005
3.00033
3.00021
3.00013
3.00009
1.20821
1.30585
1.39428
1.47614
1.55251
1.6243
1.69318
1.75669
1.81411
1.86503
1.90712
1.94098
1.96689
1.98441
1.99479
2.00188
2.00666
2.0116
2.01745
2.0253
2.03607
2.04879
2.06213
2.07587
2.08915
2.10211
2.11456
2.12612
2.13693
2.14758
2.15818
2.16876
2.17996
2.19193
2.20309
2.21315
2.22288
2.23237
2.24079
2.24775
2.2544
2.26309
2.27564
2.29361
2.31765
2.34743
2.38207
2.42056
2.4619
2.50505
2.54898
2.59278
2.63564
2.67702
2.71654
2.75371
2.78812
2.81947
2.84759
2.87247
2.89431
2.91338
2.9299
2.94401
2.95588
2.96573
2.9739
2.98081
2.98687
2.99245
2.9977
3.00262
3.00711
3.01103
3.01418
3.01631
3.01725
3.01735
3.01735
3.01738
3.01789
3.01897
3.01872
3.01732
3.01524
3.01294
3.01076
3.00863
3.00647
3.00476
3.00345
3.00246
3.00172
3.00119
3.00081
3.00054
3.00036
3.00023
3.00015
3.0001
1.21638
1.30775
1.39336
1.47335
1.54849
1.61953
1.6873
1.75143
1.81108
1.86431
1.91118
1.94987
1.98255
2.00994
2.03244
2.05084
2.06478
2.07478
2.08258
2.08875
2.095
2.10228
2.11147
2.12245
2.13444
2.14697
2.15949
2.17141
2.183
2.19442
2.20613
2.21778
2.22966
2.24202
2.25348
2.26335
2.27297
2.28318
2.2941
2.30525
2.31724
2.33171
2.35023
2.37403
2.40312
2.43667
2.47346
2.51214
2.55173
2.59128
2.63058
2.66869
2.70541
2.74036
2.7731
2.80355
2.83184
2.85794
2.88157
2.90239
2.92049
2.93621
2.94977
2.96137
2.97119
2.9794
2.98621
2.99192
2.9969
3.00148
3.00585
3.01004
3.01387
3.01705
3.01931
3.0203
3.02025
3.02008
3.01954
3.01919
3.01945
3.0201
3.01934
3.01757
3.01528
3.01288
3.01064
3.00837
3.00623
3.00457
3.0033
3.00234
3.00164
3.00113
3.00076
3.00051
3.00033
3.00021
3.00014
3.00009
1.22409
1.31036
1.39296
1.47104
1.54532
1.61611
1.68268
1.74502
1.80208
1.85413
1.90035
1.94244
1.98017
2.01485
2.04659
2.07397
2.09701
2.11526
2.12863
2.13884
2.1471
2.15429
2.16155
2.16973
2.17898
2.18862
2.19889
2.21033
2.22229
2.23484
2.24773
2.26074
2.27341
2.28612
2.2987
2.31022
2.32157
2.33435
2.34962
2.36685
2.38528
2.4056
2.42908
2.45667
2.48832
2.52302
2.55953
2.59658
2.63321
2.66877
2.70296
2.73565
2.76671
2.79602
2.82341
2.84869
2.8718
2.89292
2.91208
2.92854
2.94282
2.95605
2.96723
2.97634
2.98399
2.99046
2.99595
3.00065
3.00473
3.00846
3.01211
3.01578
3.01927
3.02209
3.02362
3.02371
3.02364
3.02297
3.02212
3.02156
3.02188
3.02186
3.02052
3.01836
3.0158
3.01327
3.01088
3.00841
3.00626
3.00459
3.00332
3.00237
3.00166
3.00115
3.00078
3.00052
3.00034
3.00023
3.00015
3.0001
1.23519
1.31256
1.39117
1.46742
1.54008
1.6088
1.67404
1.7345
1.79077
1.84165
1.88862
1.93228
1.97386
2.01373
2.0508
2.08485
2.11448
2.13991
2.16149
2.1788
2.19329
2.20543
2.21468
2.22231
2.2292
2.23634
2.24392
2.25262
2.26271
2.27432
2.28685
2.30001
2.31321
2.32658
2.34065
2.3552
2.37033
2.38758
2.40766
2.43041
2.45474
2.48042
2.50819
2.53844
2.57099
2.60521
2.64004
2.67446
2.70756
2.73884
2.768
2.79515
2.82054
2.84447
2.86702
2.88775
2.9065
2.92344
2.93863
2.95205
2.96349
2.97289
2.98105
2.989
2.99533
3.00017
3.00449
3.0084
3.0119
3.01504
3.01799
3.02093
3.02375
3.0259
3.02661
3.02692
3.02635
3.0252
3.02398
3.02318
3.02347
3.02275
3.02094
3.01847
3.01574
3.01315
3.01063
3.00806
3.00599
3.00439
3.00316
3.00225
3.00157
3.00108
3.00073
3.00049
3.00032
3.00021
3.00013
3.00009
1.25127
1.32314
1.39422
1.4658
1.53549
1.60177
1.66407
1.72211
1.77631
1.82713
1.87548
1.92153
1.96615
2.00841
2.04831
2.08456
2.11774
2.14768
2.17433
2.19882
2.21955
2.23679
2.2513
2.26243
2.271
2.27895
2.28658
2.29456
2.30375
2.3142
2.3258
2.33875
2.35286
2.36788
2.38452
2.40313
2.42359
2.44592
2.47059
2.49726
2.52555
2.55453
2.58421
2.61482
2.6461
2.67808
2.71015
2.74155
2.77147
2.79918
2.82395
2.84617
2.86711
2.88682
2.90527
2.92229
2.93761
2.95114
2.96304
2.97348
2.98249
2.98993
2.99583
3.00084
3.00594
3.00981
3.01276
3.0158
3.01882
3.02156
3.02398
3.02614
3.02785
3.0287
3.0295
3.02975
3.02884
3.02742
3.02604
3.02516
3.02509
3.02382
3.02157
3.01878
3.01588
3.01317
3.01045
3.00788
3.00585
3.00428
3.00309
3.0022
3.00154
3.00106
3.00072
3.00048
3.00032
3.00021
3.00013
3.00009
1.27466
1.33658
1.40402
1.46969
1.53395
1.5964
1.65572
1.71156
1.76408
1.81418
1.8623
1.90937
1.95484
1.99863
2.03968
2.07791
2.11353
2.14667
2.17799
2.20656
2.23287
2.25612
2.27551
2.29255
2.30683
2.31882
2.33038
2.34146
2.35226
2.36398
2.37662
2.3902
2.40563
2.42272
2.44112
2.4618
2.48521
2.51069
2.53731
2.5648
2.59371
2.62353
2.65349
2.68305
2.7121
2.74117
2.77031
2.79882
2.82572
2.84973
2.87024
2.88866
2.90563
2.92131
2.93598
2.94967
2.96215
2.97324
2.98281
2.9909
2.99778
3.00351
3.00807
3.01164
3.01474
3.01793
3.02
3.02232
3.02506
3.02774
3.02998
3.03154
3.03212
3.03214
3.03243
3.03203
3.03069
3.02894
3.02743
3.02636
3.02599
3.02431
3.02168
3.01863
3.01564
3.01283
3.00998
3.00749
3.00555
3.00405
3.00291
3.00206
3.00144
3.00099
3.00067
3.00045
3.00029
3.00019
3.00012
3.00008
1.30687
1.35667
1.41632
1.47819
1.5387
1.59597
1.65167
1.70494
1.7559
1.8053
1.85343
1.90027
1.94531
1.98851
2.02924
2.06835
2.10481
2.14072
2.17406
2.20644
2.23594
2.26298
2.28762
2.30938
2.32934
2.34805
2.3646
2.3811
2.39696
2.41208
2.42797
2.44478
2.46229
2.48149
2.50183
2.52358
2.54791
2.57466
2.60188
2.62904
2.6572
2.68635
2.71527
2.74288
2.76961
2.79591
2.82214
2.84796
2.87191
2.89195
2.90829
2.92295
2.93614
2.94825
2.95941
2.96975
2.97935
2.98813
2.99584
3.00241
3.00791
3.01238
3.016
3.01893
3.02129
3.02369
3.02531
3.02701
3.02958
3.0324
3.03477
3.03584
3.03598
3.0362
3.0356
3.0341
3.03211
3.03004
3.02836
3.02761
3.02686
3.02461
3.02159
3.01834
3.01531
3.01241
3.0095
3.00713
3.00528
3.00385
3.00277
3.00196
3.00137
3.00094
3.00064
3.00043
3.00028
3.00019
3.00012
3.00008
1.34752
1.3824
1.43589
1.49165
1.54707
1.60194
1.65322
1.70365
1.75277
1.80081
1.84791
1.89397
1.93824
1.98043
2.02057
2.05936
2.0968
2.1333
2.16878
2.20307
2.23504
2.26564
2.29328
2.31974
2.34451
2.36812
2.39142
2.4134
2.43488
2.45652
2.4767
2.49743
2.51885
2.5403
2.56293
2.58688
2.61179
2.6382
2.66575
2.69305
2.71971
2.7468
2.77387
2.79987
2.82455
2.84775
2.87054
2.89364
2.91443
2.93025
2.94308
2.95402
2.96335
2.97168
2.9795
2.98698
2.99386
3.00004
3.00565
3.01073
3.01492
3.01825
3.0209
3.023
3.02497
3.02707
3.02849
3.02985
3.03196
3.03497
3.03748
3.03874
3.03974
3.03935
3.03774
3.03545
3.03294
3.03064
3.0293
3.02911
3.02727
3.02441
3.0211
3.01778
3.01473
3.01174
3.00892
3.00668
3.00493
3.00358
3.00257
3.00181
3.00126
3.00087
3.00059
3.00039
3.00026
3.00017
3.00011
3.00008
1.39752
1.42046
1.45879
1.5098
1.56104
1.61119
1.66172
1.70984
1.75683
1.80295
1.84783
1.89144
1.93384
1.97477
2.01437
2.05297
2.09111
2.12859
2.16545
2.20064
2.23485
2.26629
2.29755
2.32637
2.35505
2.3831
2.41001
2.43735
2.46379
2.48978
2.51646
2.54187
2.567
2.59336
2.61859
2.6444
2.6713
2.69781
2.7245
2.75192
2.77863
2.80435
2.83032
2.8554
2.87887
2.89987
2.91981
2.94055
2.95901
2.97146
2.98121
2.98871
2.99441
2.99921
3.00351
3.00752
3.01126
3.01451
3.0175
3.02
3.02228
3.02446
3.02619
3.0274
3.02846
3.02988
3.03123
3.03219
3.03369
3.03601
3.03837
3.04088
3.04214
3.04121
3.03891
3.03612
3.03342
3.03152
3.03122
3.02979
3.02721
3.02397
3.02047
3.01711
3.01404
3.01099
3.00831
3.00621
3.00457
3.00332
3.00238
3.00168
3.00117
3.0008
3.00054
3.00036
3.00024
3.00016
3.0001
3.00007
1.45915
1.46595
1.4908
1.52922
1.57718
1.62631
1.67367
1.72058
1.76672
1.81103
1.85395
1.89524
1.93487
1.97366
2.0122
2.05058
2.08906
2.12714
2.16452
2.2007
2.23546
2.26895
2.3012
2.33278
2.36403
2.39436
2.42549
2.45517
2.48545
2.51554
2.54487
2.57554
2.60541
2.63458
2.66458
2.6933
2.72128
2.74988
2.7771
2.80309
2.82942
2.85528
2.87964
2.90444
2.92814
2.94878
2.96688
2.98548
3.00337
3.0141
3.02169
3.02693
3.03014
3.03224
3.03378
3.03485
3.03545
3.03562
3.03551
3.03525
3.03494
3.03465
3.03441
3.03427
3.03444
3.03453
3.03512
3.03568
3.03648
3.03758
3.03957
3.04276
3.0439
3.0426
3.03986
3.0368
3.03405
3.03258
3.03181
3.02977
3.02677
3.02324
3.01962
3.01628
3.01317
3.01013
3.00764
3.00569
3.00418
3.00302
3.00216
3.00152
3.00105
3.00072
3.00049
3.00033
3.00022
3.00014
3.00009
3.00006
1.55686
1.52126
1.53226
1.55774
1.59739
1.64311
1.68938
1.73451
1.77855
1.82197
1.86349
1.90302
1.94128
1.97881
2.0161
2.05371
2.09164
2.12948
2.16684
2.20322
2.23853
2.27285
2.30639
2.33963
2.37236
2.4053
2.43753
2.47029
2.50232
2.53457
2.56718
2.59892
2.63168
2.66427
2.69595
2.72836
2.7587
2.78768
2.81688
2.84448
2.87032
2.8964
2.92121
2.94475
2.9681
2.98911
3.00541
3.02095
3.03783
3.0493
3.05533
3.05979
3.06206
3.06303
3.06323
3.06267
3.0613
3.05923
3.05676
3.05412
3.05149
3.04895
3.04663
3.04468
3.04291
3.04183
3.04138
3.04109
3.04091
3.04112
3.04227
3.04483
3.04552
3.04397
3.04099
3.03766
3.03471
3.03319
3.03194
3.02942
3.02602
3.02227
3.01857
3.01526
3.01212
3.00924
3.00695
3.00516
3.00377
3.00272
3.00194
3.00136
3.00094
3.00065
3.00044
3.00029
3.00019
3.00013
3.00008
3.00006
1.71246
1.60341
1.58156
1.59708
1.62394
1.66375
1.70682
1.75102
1.79404
1.83524
1.87508
1.91384
1.95113
1.98755
2.0241
2.06102
2.09826
2.13551
2.17239
2.20854
2.24399
2.27878
2.31321
2.3474
2.38144
2.41542
2.4492
2.48293
2.51653
2.5501
2.58365
2.6175
2.65069
2.68441
2.71731
2.74956
2.78213
2.81273
2.8418
2.87125
2.89864
2.92437
2.95033
2.97427
2.99538
3.01641
3.03386
3.04726
3.06131
3.0745
3.08015
3.08377
3.08543
3.08571
3.0853
3.08404
3.08175
3.07857
3.0749
3.07105
3.06726
3.06343
3.05938
3.05585
3.05292
3.05063
3.04908
3.04799
3.04697
3.04628
3.04637
3.04777
3.04753
3.04541
3.04203
3.03843
3.03526
3.03355
3.03179
3.02873
3.02495
3.02101
3.01733
3.01407
3.01096
3.00831
3.00623
3.00461
3.00336
3.00242
3.00172
3.0012
3.00083
3.00057
3.00038
3.00026
3.00017
3.00011
3.00007
3.00005
2.06569
1.72953
1.65528
1.64277
1.65999
1.68772
1.7274
1.76822
1.81024
1.85131
1.89012
1.92716
1.96339
1.99944
2.03533
2.07138
2.10771
2.14417
2.18042
2.21623
2.25159
2.28661
2.32148
2.35625
2.391
2.42562
2.46011
2.49443
2.5286
2.56278
2.59688
2.63103
2.66498
2.69829
2.73144
2.76348
2.79455
2.82561
2.85551
2.88478
2.9135
2.94038
2.96537
2.98989
3.01138
3.02968
3.04746
3.06087
3.07158
3.08514
3.09478
3.09738
3.09939
3.09987
3.09968
3.09858
3.09613
3.09258
3.08861
3.0845
3.08002
3.0749
3.07011
3.06586
3.06216
3.05908
3.05668
3.0548
3.053
3.05158
3.05105
3.05098
3.04952
3.04656
3.04262
3.03877
3.03562
3.03374
3.03129
3.0276
3.02346
3.01944
3.01587
3.01268
3.00974
3.00737
3.00551
3.00406
3.00295
3.00211
3.0015
3.00105
3.00072
3.00049
3.00033
3.00022
3.00015
3.0001
3.00006
3.00005
2.49966
2.04083
1.76851
1.70917
1.70488
1.72158
1.74929
1.78795
1.82676
1.86675
1.90594
1.94303
1.97848
2.01334
2.04831
2.08375
2.11948
2.15517
2.19063
2.22596
2.26109
2.29611
2.3311
2.36608
2.40104
2.43584
2.47044
2.50479
2.53902
2.57319
2.60725
2.64123
2.67472
2.7078
2.74
2.77159
2.80231
2.83225
2.86198
2.89032
2.91831
2.94567
2.97077
2.9937
3.01509
3.03308
3.0487
3.06293
3.0734
3.08228
3.09386
3.10049
3.10203
3.10308
3.10344
3.103
3.1011
3.09789
3.09435
3.09039
3.08588
3.08084
3.07608
3.07176
3.06797
3.06472
3.06201
3.05962
3.05736
3.05573
3.05486
3.05332
3.05059
3.0468
3.04245
3.03854
3.03567
3.03371
3.03014
3.02583
3.0215
3.01757
3.01418
3.01118
3.00854
3.00643
3.00478
3.00351
3.00254
3.00182
3.00128
3.00089
3.00062
3.00042
3.00028
3.00019
3.00013
3.00009
3.00006
3.00004
2.79072
2.48001
2.05293
1.81638
1.76512
1.76583
1.78198
1.80862
1.84553
1.88248
1.92056
1.95807
1.99393
2.02856
2.06281
2.09727
2.13208
2.16725
2.20248
2.23748
2.27222
2.30683
2.34151
2.37627
2.41101
2.44557
2.47991
2.51397
2.5479
2.58165
2.61523
2.64847
2.68125
2.71341
2.74486
2.77573
2.80585
2.83562
2.86449
2.89259
2.91949
2.94467
2.96814
2.98941
3.00844
3.02613
3.04085
3.0541
3.06578
3.07395
3.08244
3.0915
3.09566
3.09691
3.09791
3.09828
3.09738
3.09494
3.09198
3.08867
3.08475
3.08046
3.0763
3.07254
3.06921
3.06627
3.06365
3.06113
3.05919
3.05777
3.05592
3.05329
3.04963
3.04536
3.04124
3.03818
3.03621
3.03241
3.02791
3.02339
3.01918
3.01549
3.01237
3.00967
3.00734
3.0055
3.00407
3.00298
3.00215
3.00153
3.00108
3.00075
3.00052
3.00035
3.00024
3.00016
3.00011
3.00007
3.00005
3.00004
2.91895
2.78858
2.48693
2.09196
1.86986
1.82277
1.82542
1.84074
1.86578
1.9003
1.93573
1.9725
2.00855
2.04342
2.0776
2.11171
2.14597
2.18035
2.21476
2.24911
2.28343
2.31775
2.3521
2.38645
2.42072
2.45476
2.48854
2.52201
2.55527
2.58826
2.62099
2.6533
2.68514
2.71638
2.74712
2.77737
2.80713
2.83632
2.86455
2.89168
2.91698
2.94039
2.96146
2.98071
2.99811
3.01364
3.02765
3.03964
3.05079
3.06
3.06696
3.07482
3.08149
3.08408
3.0855
3.08667
3.08673
3.08538
3.08312
3.08065
3.07763
3.07437
3.07132
3.06851
3.06594
3.0635
3.06136
3.05977
3.05807
3.05616
3.05364
3.05026
3.04638
3.04295
3.04155
3.03827
3.03401
3.02945
3.02491
3.02061
3.01669
3.01331
3.01051
3.00815
3.00616
3.00459
3.00338
3.00246
3.00177
3.00126
3.00088
3.00061
3.00042
3.00029
3.00019
3.00013
3.00009
3.00006
3.00004
3.00003
2.96861
2.92324
2.79966
2.51513
2.15035
1.92876
1.8819
1.8833
1.89781
1.92091
1.95278
1.98713
2.02296
2.05796
2.09202
2.12574
2.15949
2.19333
2.22721
2.26097
2.29455
2.32806
2.36163
2.3953
2.42894
2.46237
2.49549
2.52826
2.56074
2.59293
2.62479
2.65618
2.68716
2.71765
2.74782
2.77758
2.80684
2.83519
2.8622
2.88733
2.91036
2.93147
2.95082
2.96866
2.98467
2.99941
3.01246
3.02398
3.03433
3.04338
3.0506
3.05654
3.06309
3.06753
3.06915
3.07067
3.07157
3.07136
3.07025
3.06853
3.06666
3.06465
3.06266
3.06071
3.05908
3.05768
3.05642
3.05504
3.0534
3.05113
3.04828
3.04616
3.04528
3.04257
3.03891
3.0347
3.03024
3.02577
3.02151
3.01758
3.01408
3.01107
3.00861
3.00663
3.00499
3.0037
3.00271
3.00197
3.00141
3.001
3.0007
3.00049
3.00034
3.00023
3.00016
3.00011
3.00007
3.00005
3.00003
3.00003
2.98937
2.97283
2.92999
2.82236
2.5649
2.22392
1.99361
1.94234
1.93959
1.95369
1.97475
2.00362
2.03733
2.07181
2.10531
2.1384
2.17165
2.20512
2.23855
2.27175
2.3047
2.33749
2.37028
2.40311
2.43589
2.46848
2.50076
2.53271
2.56437
2.59574
2.6268
2.65749
2.68789
2.71793
2.74753
2.77649
2.8045
2.83101
2.85568
2.87849
2.89971
2.91934
2.93748
2.95414
2.96939
2.98319
2.99571
3.00694
3.01663
3.02563
3.03308
3.03878
3.04428
3.04924
3.05187
3.05357
3.05501
3.05553
3.05523
3.05444
3.05354
3.05254
3.05165
3.05086
3.05011
3.04944
3.04859
3.04736
3.04584
3.04562
3.04537
3.04377
3.04129
3.03803
3.03419
3.03002
3.02575
3.0216
3.01775
3.01431
3.01134
3.00884
3.00678
3.00515
3.00387
3.00286
3.00209
3.00151
3.00108
3.00077
3.00054
3.00037
3.00026
3.00018
3.00012
3.00008
3.00006
3.00004
3.00003
3.00002
2.99682
2.99065
2.97817
2.93977
2.85261
2.63191
2.31409
2.06802
2.00285
1.99388
2.00847
2.02864
2.05388
2.08543
2.1173
2.14927
2.18181
2.2148
2.24781
2.28062
2.31315
2.34531
2.37726
2.40919
2.44111
2.4729
2.50445
2.5357
2.56671
2.59751
2.62808
2.65823
2.68787
2.7169
2.74516
2.7723
2.79811
2.82248
2.8454
2.8668
2.88669
2.90513
2.92224
2.93802
2.95253
2.96578
2.97781
2.98868
2.99832
3.00678
3.01445
3.0205
3.02534
3.03041
3.03345
3.03561
3.03733
3.0385
3.03896
3.03909
3.03922
3.03918
3.03932
3.03931
3.03931
3.03913
3.03929
3.04038
3.04071
3.04052
3.03968
3.03797
3.03541
3.03216
3.02847
3.02459
3.02074
3.01712
3.01386
3.01102
3.00863
3.00666
3.00508
3.00383
3.00284
3.0021
3.00153
3.00111
3.00079
3.00056
3.00039
3.00027
3.00019
3.00013
3.00009
3.00006
3.00004
3.00003
3.00002
3.00002
2.99892
2.99747
2.99273
2.98299
2.95217
2.88531
2.70604
2.42232
2.15907
2.06277
2.0485
2.0624
2.08071
2.103
2.13055
2.15992
2.19082
2.22268
2.25508
2.28737
2.3193
2.35085
2.38215
2.41342
2.44477
2.47607
2.50713
2.53789
2.56836
2.59851
2.62824
2.65736
2.68561
2.71282
2.73909
2.76442
2.78869
2.81167
2.8332
2.85325
2.8719
2.88931
2.90554
2.92063
2.93458
2.94738
2.95907
2.96967
2.97915
2.98752
2.99493
3.00126
3.0062
3.01081
3.01502
3.01718
3.01901
3.02066
3.02199
3.02309
3.02413
3.02509
3.02597
3.02714
3.02857
3.03
3.03145
3.03276
3.03361
3.03367
3.03281
3.03105
3.02853
3.0255
3.02219
3.01882
3.01559
3.01266
3.0101
3.00793
3.00615
3.00471
3.00356
3.00267
3.00198
3.00146
3.00106
3.00077