/*--------------------------------*- C++ -*----------------------------------*\
  =========                 |
  \\      /  F ield         | OpenFOAM: The Open Source CFD Toolbox
   \\    /   O peration     | Website:  https://openfoam.org
    \\  /    A nd           | Version:  10
     \\/     M anipulation  |
\*---------------------------------------------------------------------------*/
FoamFile
{
    format      ascii;
    class       surfaceScalarField;
    location    "0.5";
    object      phi;
}
// * * * * * * * * * * * * * * * * * * * * * * * * * * * * * * * * * * * * * //

dimensions      [1 0 -1 0 0 0 0];

internalField   nonuniform List<scalar> 
10325
(
0.00840003
5.03065e-12
0.00840003
2.50969e-11
0.00840003
1.02766e-10
0.00840002
2.56373e-10
0.00840005
8.40203e-10
0.00839993
1.74152e-09
0.00840013
5.73665e-09
0.00839941
1.18755e-08
0.00840058
3.77719e-08
0.00839637
7.63214e-08
0.00840189
2.61019e-07
0.00838194
5.07182e-07
0.00839306
1.68738e-06
0.00833337
3.96811e-06
0.00829679
1.26625e-05
0.00812578
4.25452e-05
0.00756342
0.000185557
0.00571785
0.000948989
0.00531786
0.000811954
0.00454816
0.000746994
0.00365179
0.000795507
0.00266254
0.000890125
0.00159886
0.000942795
0.000716389
0.000898241
0.000859981
0.00840003
8.28135e-12
0.00840003
5.21057e-11
0.00840003
1.80836e-10
0.00840002
5.34959e-10
0.00840004
1.42383e-09
0.00839994
3.86352e-09
0.00840011
9.96643e-09
0.00839942
2.60376e-08
0.00840062
6.77626e-08
0.00839623
1.7422e-07
0.00840268
4.55422e-07
0.00838062
1.16858e-06
0.00839547
3.10093e-06
0.00833217
8.40967e-06
0.00829754
2.50371e-05
0.00812427
8.55667e-05
0.00756849
0.000366336
0.00572715
0.00187389
0.0053223
0.00163779
0.00457462
0.00147758
0.00367993
0.00159276
0.00269754
0.00177526
0.00165059
0.00187143
0.000759817
0.00180211
0.00175954
0.00840003
1.16384e-11
0.00840003
7.55632e-11
0.00840003
2.57882e-10
0.00840002
7.63856e-10
0.00840004
2.03921e-09
0.00839995
5.48488e-09
0.0084001
1.41421e-08
0.00839945
3.72431e-08
0.00840057
9.62667e-08
0.00839643
2.51428e-07
0.00840251
6.52209e-07
0.00838132
1.69908e-06
0.00839558
4.48514e-06
0.00833366
1.22483e-05
0.00829986
3.63687e-05
0.00813044
0.000124078
0.00759457
0.000526972
0.00580471
0.00270774
0.00540047
0.00248389
0.00466443
0.00221033
0.00377554
0.00239119
0.00279464
0.00266272
0.00174152
0.00281431
0.000813376
0.00273513
0.00270455
0.00840003
1.43378e-11
0.00840003
9.47597e-11
0.00840003
3.18547e-10
0.00840002
9.48951e-10
0.00840004
2.50677e-09
0.00839996
6.72104e-09
0.0084001
1.72887e-08
0.0083995
4.54493e-08
0.00840053
1.17647e-07
0.00839669
3.08346e-07
0.00840242
8.02247e-07
0.00838231
2.10692e-06
0.00839627
5.57591e-06
0.00833611
1.52891e-05
0.00830472
4.53584e-05
0.00814353
0.000154209
0.00764025
0.000650375
0.0059709
0.00337362
0.0055678
0.00335179
0.0048325
0.00296264
0.00394445
0.00319989
0.00295969
0.00356261
0.00187663
0.00380233
0.000887815
0.00371464
0.00370971
0.00840003
1.64196e-11
0.00840003
1.09059e-10
0.00840003
3.62886e-10
0.00840002
1.0915e-09
0.00840004
2.82831e-09
0.00839997
7.52736e-09
0.00840009
1.93655e-08
0.00839957
4.99073e-08
0.00840049
1.30616e-07
0.00839704
3.37955e-07
0.00840232
8.90617e-07
0.00838386
2.33358e-06
0.00839731
6.23632e-06
0.00834019
1.71319e-05
0.00831233
5.09538e-05
0.00816451
0.000172376
0.00769662
0.000723443
0.00626242
0.00377346
0.00584211
0.00425298
0.0050748
0.00376539
0.00417604
0.00403777
0.0031864
0.00447891
0.00206549
0.00484326
0.000991611
0.00476483
0.00480417
0.00840003
1.88488e-11
0.00840003
1.23278e-10
0.00840003
4.08464e-10
0.00840002
1.21231e-09
0.00840003
3.07094e-09
0.00839998
8.17174e-09
0.00840008
2.01665e-08
0.00839965
5.25107e-08
0.00840043
1.33858e-07
0.00839753
3.42436e-07
0.00840216
9.04513e-07
0.00838613
2.34058e-06
0.00839901
6.33762e-06
0.00834713
1.73093e-05
0.00832537
5.1759e-05
0.00819859
0.000172996
0.00777796
0.000718541
0.00673968
0.00377709
0.0062315
0.00515593
0.00539401
0.00468198
0.00446781
0.0049221
0.00347151
0.0054032
0.00230496
0.005941
0.00113347
0.00590065
0.00602724
0.00840003
2.11803e-11
0.00840003
1.37354e-10
0.00840003
4.57678e-10
0.00840003
1.34072e-09
0.00840003
3.40324e-09
0.00839999
8.89145e-09
0.00840006
2.17575e-08
0.00839972
5.55998e-08
0.00840038
1.37078e-07
0.008398
3.4913e-07
0.00840216
8.74588e-07
0.00838884
2.25161e-06
0.00840214
5.85146e-06
0.00835751
1.5721e-05
0.00834619
4.59882e-05
0.00824773
0.000150545
0.00791806
0.000607084
0.0074362
0.00322546
0.00676838
0.00612285
0.00577495
0.00573491
0.0048067
0.00584365
0.00380872
0.00634129
0.00262171
0.00706747
0.001332
0.00713839
0.00743416
0.00840003
2.28826e-11
0.00840003
1.49694e-10
0.00840003
4.99156e-10
0.00840003
1.47751e-09
0.00840003
3.74687e-09
0.0084
9.91995e-09
0.00840005
2.39658e-08
0.00839977
6.10675e-08
0.00840029
1.4807e-07
0.00839833
3.72249e-07
0.00840182
9.22748e-07
0.00839095
2.29831e-06
0.00840384
5.86967e-06
0.00836856
1.50272e-05
0.00837296
4.19738e-05
0.00831465
0.000127574
0.00815078
0.000462301
0.00830239
0.00229614
0.00732188
0.00717948
0.00613105
0.00690538
0.00518383
0.00674909
0.00419348
0.00731312
0.00302701
0.00819166
0.00162109
0.00847168
0.00910942
0.00840003
2.36024e-11
0.00840003
1.52789e-10
0.00840003
5.16959e-10
0.00840003
1.50026e-09
0.00840002
3.90672e-09
0.00840002
1.01916e-08
0.0084
2.52391e-08
0.00839989
6.47526e-08
0.00840005
1.58353e-07
0.00839878
4.03443e-07
0.00840083
9.8807e-07
0.00839305
2.50781e-06
0.00840111
6.25542e-06
0.0083757
1.61076e-05
0.0083739
4.35035e-05
0.00832136
0.000129169
0.00816757
0.000433044
0.00827467
0.00189656
0.00748465
0.00754279
0.00643389
0.00781439
0.0056131
0.00755121
0.00468642
0.00823758
0.00362447
0.0092249
0.00212456
0.00989259
0.0112664
0.00840003
2.25932e-11
0.00840003
1.5046e-10
0.00840003
4.9749e-10
0.00840003
1.47294e-09
0.00840002
3.81839e-09
0.00840002
1.00046e-08
0.00840001
2.50941e-08
0.0083999
6.45557e-08
0.00840003
1.59734e-07
0.00839895
4.07633e-07
0.00840066
1.00478e-06
0.00839392
2.55621e-06
0.00840109
6.36285e-06
0.00837816
1.63627e-05
0.00837917
4.35021e-05
0.00833131
0.000127052
0.00826487
0.000418594
0.00828642
0.0016965
0.00750592
0.00774583
0.00689548
0.00830639
0.00609391
0.00834798
0.00536519
0.00894503
0.00448303
0.0101041
0.00292854
0.0113676
0.0142159
0.00840003
2.01398e-11
0.00840003
1.31531e-10
0.00840003
4.52744e-10
0.00840003
1.31682e-09
0.00840002
3.46066e-09
0.00840002
9.29669e-09
0.00840001
2.26328e-08
0.00839992
6.14867e-08
0.00840003
1.43289e-07
0.0083991
4.01824e-07
0.0084006
9.03779e-07
0.00839439
2.57569e-06
0.00840179
5.86459e-06
0.00837849
1.63593e-05
0.00838512
4.12824e-05
0.00833855
0.000120983
0.00830486
0.000393818
0.00834485
0.00157032
0.00792469
0.00750393
0.00730174
0.00886477
0.00665876
0.008947
0.00616647
0.00943582
0.00577012
0.0105216
0.00560181
0.0114743
0.011433
0.00838449
0.00840003
1.7521e-11
0.00840003
1.16052e-10
0.00840003
3.82055e-10
0.00840003
1.16254e-09
0.00840004
2.96605e-09
0.0084
7.99288e-09
0.00840006
2.01578e-08
0.00839988
5.14979e-08
0.00840018
1.35544e-07
0.00839918
3.25538e-07
0.00840072
9.01963e-07
0.0083954
2.09258e-06
0.00840141
5.8841e-06
0.0083813
1.40831e-05
0.00838763
3.94421e-05
0.00834295
0.000108644
0.00832304
0.000353745
0.00844821
0.00138398
0.00862559
0.00652287
0.00805979
0.00940755
0.00738609
0.00958638
0.00713255
0.00974807
0.0070812
0.0105722
0.00731404
0.0111931
0.0106881
0.00802459
0.00840003
1.42742e-11
0.00840003
9.90468e-11
0.00840003
3.24365e-10
0.00840003
9.8655e-10
0.00840002
2.48578e-09
0.00840004
6.85612e-09
0.0084
1.62583e-08
0.00840003
4.51866e-08
0.00839991
1.02478e-07
0.00839981
2.94544e-07
0.00839972
6.48768e-07
0.00839822
1.89137e-06
0.00839846
4.22255e-06
0.00839222
1.20393e-05
0.00838707
2.93661e-05
0.00837474
8.48537e-05
0.00838779
0.000256867
0.00862912
0.000966845
0.00968499
0.00452427
0.00904298
0.00999385
0.00829293
0.0103538
0.00810157
0.0100984
0.0082428
0.0105076
0.00852924
0.0108654
0.0102988
0.00887195
0.00840003
1.40126e-11
0.00840003
7.71296e-11
0.00840003
2.97371e-10
0.00840003
7.65135e-10
0.00840003
2.27209e-09
0.00840003
5.31359e-09
0.00840001
1.49867e-08
0.00840003
3.45937e-08
0.00839987
9.58619e-08
0.00840016
2.24185e-07
0.00839882
6.05342e-07
0.00840132
1.44808e-06
0.00839339
3.82158e-06
0.00840401
9.42892e-06
0.00837924
2.47343e-05
0.00839503
6.57816e-05
0.00839092
0.000193703
0.00858736
0.000662039
0.00992178
0.00285437
0.00968533
0.0100431
0.00935625
0.0106282
0.00897256
0.0106516
0.00911601
0.010487
0.00940519
0.0105557
0.0100151
0.00963173
0.00840003
1.01958e-11
0.00840003
6.52138e-11
0.00840003
2.22051e-10
0.00840003
6.52398e-10
0.00840003
1.72571e-09
0.00840002
4.49961e-09
0.00840005
1.16668e-08
0.00839996
2.92821e-08
0.00840011
7.71704e-08
0.00839966
1.88162e-07
0.00840044
5.05143e-07
0.00839794
1.20977e-06
0.00840147
3.26954e-06
0.00839059
7.86094e-06
0.00840006
2.11831e-05
0.00837035
5.45262e-05
0.00838609
0.000157347
0.00843095
0.0005103
0.00900959
0.00209385
0.00999059
0.00840424
0.00994852
0.0106455
0.00973084
0.0108892
0.00973617
0.0105436
0.00995377
0.0102743
0.00971838
0.010122
0.00840003
7.3566e-12
0.00840003
5.11439e-11
0.00840003
1.6472e-10
0.00840003
5.10849e-10
0.00840003
1.26907e-09
0.00840003
3.52019e-09
0.00840003
8.47466e-09
0.00839999
2.27862e-08
0.00840008
5.53725e-08
0.00839976
1.45288e-07
0.00840047
3.6043e-07
0.00839822
9.3159e-07
0.0084028
2.34942e-06
0.00839042
6.04037e-06
0.00840806
1.55866e-05
0.00837208
4.09211e-05
0.00840584
0.000114809
0.00844537
0.000356067
0.00898993
0.0013624
0.0106525
0.00583627
0.0106486
0.0105928
0.0104437
0.0111033
0.0102653
0.0108273
0.0103836
0.0101583
0.00951233
0.0105049
0.00840003
5.73414e-12
0.00840003
3.71902e-11
0.00840003
1.2767e-10
0.00840003
3.72636e-10
0.00840003
9.75256e-10
0.00840003
2.61267e-09
0.00840002
6.38212e-09
0.00840004
1.72362e-08
0.00839999
4.06295e-08
0.0084
1.12084e-07
0.00839997
2.59265e-07
0.00839949
7.19756e-07
0.00840025
1.66464e-06
0.00839683
4.6037e-06
0.00840115
1.08855e-05
0.00839314
2.97284e-05
0.00841063
7.70267e-05
0.00848015
0.000227673
0.00891457
0.000772092
0.0112186
0.00321259
0.0112709
0.0103385
0.0113963
0.0110258
0.011164
0.0111122
0.0108856
0.0104232
0.00946381
0.0108469
0.00840003
4.49884e-12
0.00840003
2.53788e-11
0.00840003
9.59639e-11
0.00840003
2.52401e-10
0.00840003
7.38416e-10
0.00840003
1.74248e-09
0.00840003
4.91734e-09
0.00840004
1.1342e-08
0.00839999
3.18737e-08
0.00840009
7.35866e-08
0.00839973
2.04652e-07
0.00840057
4.80255e-07
0.00839806
1.31527e-06
0.00840344
3.1514e-06
0.00839007
8.51885e-06
0.00841071
2.11907e-05
0.00837835
5.74429e-05
0.00843084
0.000160152
0.0085673
0.000515021
0.00953667
0.00205673
0.0115877
0.00757473
0.0118194
0.0107807
0.0116959
0.0112346
0.0112701
0.0108383
0.00951102
0.0111456
0.00840003
2.72031e-12
0.00840003
1.89518e-11
0.00840003
6.12872e-11
0.00840003
1.90146e-10
0.00840003
4.69826e-10
0.00840003
1.32157e-09
0.00840003
3.09979e-09
0.00840002
8.61347e-09
0.00840005
2.00068e-08
0.00839995
5.53249e-08
0.00840022
1.28994e-07
0.00839952
3.51812e-07
0.00840133
8.35405e-07
0.00839718
2.23529e-06
0.00840745
5.41346e-06
0.00838857
1.43321e-05
0.00842594
3.59988e-05
0.00840805
9.90064e-05
0.00857997
0.000289078
0.00930304
0.00102754
0.011942
0.00402999
0.0121798
0.0104525
0.0124674
0.010997
0.0121619
0.0111593
0.0100559
0.0115941
0.00840003
1.91162e-12
0.00840003
1.20485e-11
0.00840003
4.17124e-11
0.00840003
1.20484e-10
0.00840003
3.22647e-10
0.00840003
8.28528e-10
0.00840003
2.16534e-09
0.00840003
5.36459e-09
0.00840002
1.41001e-08
0.00840005
3.44214e-08
0.00839994
9.13328e-08
0.00840025
2.21247e-07
0.00839939
5.8817e-07
0.00840166
1.4306e-06
0.00839635
3.79888e-06
0.00840854
9.32086e-06
0.0083883
2.48708e-05
0.00842892
6.38778e-05
0.00844672
0.00018253
0.00880959
0.000581822
0.0102864
0.00229368
0.0125025
0.00758998
0.0127017
0.0107534
0.0127536
0.0111082
0.0107491
0.0121084
0.00840003
1.21813e-12
0.00840003
7.50453e-12
0.00840003
2.67344e-11
0.00840003
7.53598e-11
0.00840003
2.06405e-10
0.00840003
5.26212e-10
0.00840003
1.37429e-09
0.00840004
3.44885e-09
0.00840002
8.90856e-09
0.00840006
2.23168e-08
0.00839997
5.73051e-08
0.0084002
1.44124e-07
0.00839976
3.66414e-07
0.00840096
9.24783e-07
0.00839887
2.33902e-06
0.00840475
5.9206e-06
0.00839797
1.50444e-05
0.00842368
3.87185e-05
0.00843689
0.000103939
0.00864865
0.000303688
0.00958717
0.00106801
0.0124266
0.00389789
0.013046
0.0100201
0.0134116
0.010764
0.0111586
0.0130101
0.00840003
7.5625e-13
0.00840003
4.39901e-12
0.00840003
1.64384e-11
0.00840003
4.4262e-11
0.00840003
1.27269e-10
0.00840003
3.11366e-10
0.00840003
8.46942e-10
0.00840003
2.05276e-09
0.00840002
5.47486e-09
0.00840005
1.33675e-08
0.0084
3.50494e-08
0.00840014
8.66917e-08
0.00839989
2.23753e-07
0.00840054
5.61065e-07
0.00839955
1.42572e-06
0.0084021
3.64623e-06
0.00839949
9.16384e-06
0.00841031
2.38895e-05
0.00841532
6.18855e-05
0.00850121
0.00017346
0.00889811
0.000545048
0.0104925
0.00205419
0.0131522
0.00661716
0.0133965
0.0104057
0.0107435
0.0137428
0.00840003
3.94338e-13
0.00840003
2.72764e-12
0.00840003
8.93305e-12
0.00840003
2.75592e-11
0.00840003
6.93877e-11
0.00840003
1.92768e-10
0.00840003
4.66141e-10
0.00840003
1.26757e-09
0.00840003
3.04849e-09
0.00840002
8.21523e-09
0.00840005
1.98121e-08
0.00839999
5.28837e-08
0.0084002
1.29065e-07
0.00839975
3.39326e-07
0.00840124
8.40667e-07
0.00839851
2.17164e-06
0.00840741
5.46828e-06
0.00839542
1.39552e-05
0.00843423
3.58674e-05
0.00844376
9.48332e-05
0.00868605
0.000270415
0.00967832
0.000908709
0.0127335
0.00312666
0.0137974
0.0089615
0.0103955
0.0140135
0.00840003
2.39982e-13
0.00840003
1.3952e-12
0.00840003
5.23767e-12
0.00840003
1.41262e-11
0.00840003
4.08171e-11
0.00840003
1.00215e-10
0.00840003
2.74144e-10
0.00840003
6.67289e-10
0.00840003
1.78912e-09
0.00840004
4.37598e-09
0.00840002
1.15502e-08
0.00840007
2.86403e-08
0.0084
7.40198e-08
0.00840025
1.86066e-07
0.00839996
4.71991e-07
0.00840095
1.20712e-06
0.00840056
2.99924e-06
0.00840402
7.82784e-06
0.00840712
1.94147e-05
0.00843074
5.16292e-05
0.00849542
0.000138176
0.00888056
0.000419923
0.0101937
0.00149845
0.0132971
0.00483041
0.00951469
0.0140013
0.00840003
1.156e-13
0.00840003
7.69962e-13
0.00840003
2.61239e-12
0.00840003
7.82728e-12
0.00840003
2.05064e-11
0.00840003
5.54269e-11
0.00840003
1.39024e-10
0.00840003
3.68784e-10
0.00840003
9.16508e-10
0.00840003
2.41689e-09
0.00840004
5.99237e-09
0.00840002
1.57022e-08
0.00840009
3.8966e-08
0.00839997
1.01387e-07
0.0084004
2.52207e-07
0.00839977
6.5125e-07
0.00840217
1.62981e-06
0.00839888
4.19161e-06
0.00841091
1.05975e-05
0.00840428
2.74495e-05
0.00845892
7.1832e-05
0.00858147
0.000201799
0.00931561
0.000645653
0.0116539
0.00222447
0.00642402
0.014083
0.00840003
5.63179e-14
0.00840003
3.89175e-13
0.00840003
1.28027e-12
0.00840003
3.97353e-12
0.00840003
1.01573e-11
0.00840003
2.81223e-11
0.00840003
6.97767e-11
0.00840003
1.87423e-10
0.00840003
4.65088e-10
0.00840003
1.22862e-09
0.00840003
3.07775e-09
0.00840003
7.99501e-09
0.00840006
2.0208e-08
0.00840002
5.18741e-08
0.00840015
1.32267e-07
0.00840011
3.34273e-07
0.00840049
8.64585e-07
0.00840118
2.14857e-06
0.00840273
5.63743e-06
0.00840915
1.39883e-05
0.00842721
3.70356e-05
0.0084891
9.66312e-05
0.00878688
0.000278219
0.00998168
0.000913415
0.00282603
0.0130851
0.00840003
2.93191e-14
0.00840003
1.71678e-13
0.00840003
6.46693e-13
0.00840003
1.76589e-12
0.00840003
5.11321e-12
0.00840003
1.27325e-11
0.00840003
3.51131e-11
0.00840003
8.60289e-11
0.00840003
2.34376e-10
0.00840003
5.73171e-10
0.00840003
1.54627e-09
0.00840004
3.79149e-09
0.00840002
1.01397e-08
0.00840008
2.48927e-08
0.0084
6.61169e-08
0.00840031
1.63155e-07
0.00839991
4.28993e-07
0.00840174
1.06834e-06
0.0083999
2.76745e-06
0.00841011
6.97384e-06
0.00840495
1.79068e-05
0.008457
4.61479e-05
0.00851389
0.000123966
0.00898877
0.000363592
0.00121183
0.0102095
0.00840003
1.20111e-14
0.00840003
7.92142e-14
0.00840003
2.73836e-13
0.00840003
8.18444e-13
0.00840003
2.19655e-12
0.00840003
5.94999e-12
0.00840003
1.52816e-11
0.00840003
4.06903e-11
0.00840003
1.03161e-10
0.00840003
2.7276e-10
0.00840003
6.8778e-10
0.00840003
1.81261e-09
0.00840004
4.55509e-09
0.00840003
1.19756e-08
0.00840008
3.00724e-08
0.0084
7.84758e-08
0.00840039
1.97064e-07
0.00839992
5.11715e-07
0.00840232
1.28142e-06
0.00839988
3.32112e-06
0.0084134
8.3458e-06
0.00840514
2.16506e-05
0.00847366
5.57509e-05
0.008558
0.000153033
0.000460633
0.00921674
0.00840003
4.82467e-15
0.00840003
3.35633e-14
0.00840003
1.11822e-13
0.00840003
3.48509e-13
0.00840003
9.08417e-13
0.00840003
2.54614e-12
0.00840003
6.423e-12
0.00840003
1.75495e-11
0.00840003
4.39754e-11
0.00840003
1.18976e-10
0.00840003
2.96852e-10
0.00840003
7.98032e-10
0.00840003
1.98602e-09
0.00840003
5.3046e-09
0.00840005
1.32101e-08
0.00840002
3.50047e-08
0.00840018
8.74307e-08
0.00840004
2.29022e-07
0.00840094
5.75423e-07
0.00840033
1.48649e-06
0.00840543
3.7693e-06
0.00840334
9.67436e-06
0.00843196
2.48949e-05
0.00845105
6.5253e-05
0.000180713
0.00867829
0.00840003
2.03348e-15
0.00840003
1.23195e-14
0.00840003
4.56297e-14
0.00840003
1.29399e-13
0.00840003
3.70403e-13
0.00840003
9.73326e-13
0.00840003
2.6191e-12
0.00840003
6.87029e-12
0.00840003
1.81038e-11
0.00840003
4.73451e-11
0.00840003
1.24259e-10
0.00840003
3.20499e-10
0.00840003
8.45151e-10
0.00840003
2.14436e-09
0.00840003
5.67988e-09
0.00840004
1.4252e-08
0.00840005
3.78198e-08
0.00840013
9.41255e-08
0.00840015
2.50485e-07
0.00840089
6.173e-07
0.00840048
1.64919e-06
0.0084062
4.04086e-06
0.00840421
1.08515e-05
0.00843753
2.69751e-05
7.34595e-05
0.00847385
0.00840003
5.81403e-16
0.00840003
4.63616e-15
0.00840003
1.59085e-14
0.00840003
4.85828e-14
0.00840003
1.33366e-13
0.00840003
3.61478e-13
0.00840003
9.73927e-13
0.00840003
2.54526e-12
0.00840003
6.89235e-12
0.00840003
1.76658e-11
0.00840003
4.79366e-11
0.00840003
1.22201e-10
0.00840003
3.28307e-10
0.00840003
8.38093e-10
0.00840003
2.21947e-09
0.00840004
5.67026e-09
0.00840004
1.48693e-08
0.00840009
3.78839e-08
0.00840008
9.87584e-08
0.00840037
2.52409e-07
0.00840053
6.49922e-07
0.0084018
1.67727e-06
0.00840398
4.27303e-06
0.00841161
1.11473e-05
2.85946e-05
0.0084309
0.00840003
2.44813e-16
0.00840003
1.40906e-15
0.00840003
5.63457e-15
0.00840003
1.64129e-14
0.00840003
4.5414e-14
0.00840003
1.27375e-13
0.00840003
3.29905e-13
0.00840003
9.20973e-13
0.00840003
2.33579e-12
0.00840003
6.52449e-12
0.00840003
1.64091e-11
0.00840003
4.54602e-11
0.00840003
1.1442e-10
0.00840003
3.14146e-10
0.00840003
7.88677e-10
0.00840003
2.15226e-09
0.00840004
5.3681e-09
0.00840004
1.45899e-08
0.00840009
3.61238e-08
0.00840007
9.77887e-08
0.00840047
2.41077e-07
0.00840027
6.5037e-07
0.00840307
1.603e-06
0.00840179
4.3119e-06
1.07203e-05
0.00842026
0.00840003
1.33601e-16
0.00840003
5.56819e-16
0.00840003
1.72583e-15
0.00840003
5.34661e-15
0.00840003
1.48927e-14
0.00840003
3.98383e-14
0.00840003
1.10986e-13
0.00840003
2.87917e-13
0.00840003
8.02069e-13
0.00840003
2.05522e-12
0.00840003
5.71539e-12
0.00840003
1.4572e-11
0.00840003
4.01047e-11
0.00840003
1.02546e-10
0.00840003
2.78618e-10
0.00840003
7.14322e-10
0.00840003
1.91874e-09
0.00840004
4.90856e-09
0.00840004
1.30989e-08
0.00840008
3.32837e-08
0.00840012
8.85772e-08
0.00840036
2.23331e-07
0.00840053
5.95259e-07
0.0084025
1.48856e-06
3.9876e-06
0.00840305
0.00840003
6.96329e-17
0.00840003
2.1825e-16
0.00840003
6.3583e-16
0.00840003
1.74725e-15
0.00840003
4.43881e-15
0.00840003
1.25014e-14
0.00840003
3.275e-14
0.00840003
9.09432e-14
0.00840003
2.36206e-13
0.00840003
6.60389e-13
0.00840003
1.69709e-12
0.00840003
4.7249e-12
0.00840003
1.21653e-11
0.00840003
3.32419e-11
0.00840003
8.67208e-11
0.00840003
2.31146e-10
0.00840003
6.10958e-10
0.00840003
1.59863e-09
0.00840003
4.23857e-09
0.00840005
1.09718e-08
0.00840005
2.90017e-08
0.00840017
7.46874e-08
0.00840021
1.96148e-07
0.00840092
5.05814e-07
1.31512e-06
0.00840147
0.00840003
-2.11419e-18
0.00840003
-1.32815e-18
0.00840003
-1.53686e-17
0.00840003
3.36157e-16
0.00840003
1.10288e-15
0.00840003
3.20417e-15
0.00840003
9.30595e-15
0.00840003
2.46428e-14
0.00840003
6.94835e-14
0.00840003
1.81726e-13
0.00840003
5.11014e-13
0.00840003
1.32219e-12
0.00840003
3.66062e-12
0.00840003
9.58662e-12
0.00840003
2.58121e-11
0.00840003
6.88613e-11
0.00840003
1.80522e-10
0.00840003
4.87915e-10
0.00840003
1.25322e-09
0.00840003
3.41517e-09
0.00840005
8.651e-09
0.00840004
2.35605e-08
0.00840019
5.92868e-08
0.00840013
1.60648e-07
4.03249e-07
0.00840108
0.00840003
-1.59269e-16
0.00840003
-1.40431e-16
0.00840003
-4.09557e-17
0.00840003
7.09881e-17
0.00840003
3.54019e-16
0.00840003
8.84058e-16
0.00840003
2.37744e-15
0.00840003
6.85275e-15
0.00840003
1.83209e-14
0.00840003
5.09279e-14
0.00840003
1.32884e-13
0.00840003
3.71591e-13
0.00840003
9.70965e-13
0.00840003
2.66255e-12
0.00840003
7.08149e-12
0.00840003
1.88482e-11
0.00840003
5.09746e-11
0.00840003
1.32631e-10
0.00840003
3.62326e-10
0.00840003
9.27785e-10
0.00840003
2.54179e-09
0.00840005
6.44431e-09
0.00840005
1.7638e-08
0.00840014
4.44314e-08
1.21007e-07
0.00840015
0.00840003
1.36311e-16
0.00840003
1.56179e-16
0.00840003
1.41055e-16
0.00840003
9.44882e-17
0.00840003
6.40763e-17
0.00840003
1.04327e-16
0.00840003
4.94911e-16
0.00840003
1.40654e-15
0.00840003
4.19573e-15
0.00840003
1.21909e-14
0.00840003
3.42218e-14
0.00840003
9.11593e-14
0.00840003
2.5452e-13
0.00840003
6.68918e-13
0.00840003
1.82815e-12
0.00840003
4.89298e-12
0.00840003
1.29716e-11
0.00840003
3.52724e-11
0.00840003
9.16009e-11
0.00840003
2.50966e-10
0.00840003
6.434e-10
0.00840003
1.76282e-09
0.00840004
4.49612e-09
0.00840005
1.2232e-08
3.12228e-08
0.0084001
0.00840003
-9.02598e-18
0.00840003
-3.16045e-17
0.00840003
-4.38018e-17
0.00840003
-6.18808e-17
0.00840003
1.3417e-17
0.00840003
1.59513e-16
0.00840003
2.58691e-16
0.00840003
5.10903e-16
0.00840003
1.19447e-15
0.00840003
3.0169e-15
0.00840003
8.31578e-15
0.00840003
2.26851e-14
0.00840003
5.93803e-14
0.00840003
1.65488e-13
0.00840003
4.34861e-13
0.00840003
1.18195e-12
0.00840003
3.17988e-12
0.00840003
8.38282e-12
0.00840003
2.29236e-11
0.00840003
5.93096e-11
0.00840003
1.62659e-10
0.00840003
4.1782e-10
0.00840003
1.14039e-09
0.00840004
2.92992e-09
7.87556e-09
0.00840005
0.00840003
1.44226e-16
0.00840003
1.91524e-16
0.00840003
2.25677e-16
0.00840003
2.76011e-16
0.00840003
2.63515e-16
0.00840003
2.07516e-16
0.00840003
2.32399e-16
0.00840003
3.08212e-16
0.00840003
4.28558e-16
0.00840003
8.74734e-16
0.00840003
2.09725e-15
0.00840003
5.11302e-15
0.00840003
1.4158e-14
0.00840003
3.65456e-14
0.00840003
1.01135e-13
0.00840003
2.67058e-13
0.00840003
7.22718e-13
0.00840003
1.93911e-12
0.00840003
5.12846e-12
0.00840003
1.39184e-11
0.00840003
3.62002e-11
0.00840003
9.85202e-11
0.00840003
2.54148e-10
0.00840003
6.88059e-10
1.77979e-09
0.00840003
0.00840003
-6.71392e-17
0.00840003
5.84656e-17
0.00840003
1.23762e-16
0.00840003
1.49457e-16
0.00840003
9.09104e-17
0.00840003
1.02457e-16
0.00840003
2.1272e-16
0.00840003
3.30004e-16
0.00840003
4.45038e-16
0.00840003
4.6599e-16
0.00840003
6.46781e-16
0.00840003
1.34148e-15
0.00840003
3.04292e-15
0.00840003
8.27921e-15
0.00840003
2.14405e-14
0.00840003
5.85656e-14
0.00840003
1.54337e-13
0.00840003
4.21501e-13
0.00840003
1.10717e-12
0.00840003
2.97923e-12
0.00840003
7.92814e-12
0.00840003
2.07922e-11
0.00840003
5.60107e-11
0.00840003
1.44646e-10
3.88912e-10
0.00840003
0.00840003
-2.70779e-17
0.00840003
-2.76743e-17
0.00840003
-5.85469e-18
0.00840003
1.76725e-17
0.00840003
6.13116e-17
0.00840003
8.68717e-17
0.00840003
8.18031e-17
0.00840003
1.68187e-16
0.00840003
2.98915e-16
0.00840003
3.18647e-16
0.00840003
3.12142e-16
0.00840003
4.02781e-16
0.00840003
8.31963e-16
0.00840003
1.67713e-15
0.00840003
4.53321e-15
0.00840003
1.198e-14
0.00840003
3.24565e-14
0.00840003
8.50835e-14
0.00840003
2.31276e-13
0.00840003
6.06824e-13
0.00840003
1.61571e-12
0.00840003
4.30496e-12
0.00840003
1.1191e-11
0.00840003
3.00528e-11
7.729e-11
0.00840003
0.00840003
7.44576e-17
0.00840003
1.57209e-18
0.00840003
6.17995e-18
0.00840003
-3.15503e-17
0.00840003
-1.32815e-17
0.00840003
-6.16911e-17
0.00840003
-1.22352e-16
0.00840003
-1.18368e-16
0.00840003
-1.92337e-16
0.00840003
-1.10805e-16
0.00840003
-5.61075e-18
0.00840003
8.69259e-17
0.00840003
2.65521e-16
0.00840003
6.41333e-16
0.00840003
1.24377e-15
0.00840003
2.76775e-15
0.00840003
6.68432e-15
0.00840003
1.76027e-14
0.00840003
4.48862e-14
0.00840003
1.20697e-13
0.00840003
3.15428e-13
0.00840003
8.30333e-13
0.00840003
2.20788e-12
0.00840003
5.69494e-12
1.51895e-11
0.00840003
0.00840003
6.54587e-17
0.00840003
1.79002e-16
0.00840003
1.7293e-16
0.00840003
9.40545e-17
0.00840003
9.69819e-17
0.00840003
9.37835e-17
0.00840003
5.67038e-17
0.00840003
3.81639e-17
0.00840003
1.95156e-17
0.00840003
5.01715e-17
0.00840003
8.06646e-17
0.00840003
1.84992e-16
0.00840003
1.65964e-16
0.00840003
1.63389e-16
0.00840003
3.5204e-16
0.00840003
7.07062e-16
0.00840003
1.50975e-15
0.00840003
3.3967e-15
0.00840003
8.77797e-15
0.00840003
2.25976e-14
0.00840003
5.92994e-14
0.00840003
1.56513e-13
0.00840003
4.03979e-13
0.00840003
1.07321e-12
2.74172e-12
0.00840003
0.00840003
-2.0112e-17
0.00840003
-7.95533e-17
0.00840003
-9.50574e-17
0.00840003
-6.91179e-18
0.00840003
4.49944e-18
0.00840003
8.87962e-17
0.00840003
2.66632e-16
0.00840003
2.05511e-16
0.00840003
2.12992e-16
0.00840003
2.54435e-16
0.00840003
1.7949e-16
0.00840003
1.5599e-16
0.00840003
1.9494e-16
0.00840003
2.44189e-16
0.00840003
2.95526e-16
0.00840003
3.071e-16
0.00840003
4.07552e-16
0.00840003
7.70651e-16
0.00840003
1.72448e-15
0.00840003
4.27176e-15
0.00840003
1.08953e-14
0.00840003
2.82768e-14
0.00840003
7.26805e-14
0.00840003
1.88355e-13
4.91584e-13
0.00840003
0.00840003
-8.1532e-17
0.00840003
-4.98191e-17
0.00840003
-1.25767e-17
0.00840003
1.12215e-17
0.00840003
3.67002e-17
0.00840003
3.4315e-17
0.00840003
-1.47994e-17
0.00840003
8.4893e-17
0.00840003
1.40079e-16
0.00840003
8.10712e-17
0.00840003
1.35823e-16
0.00840003
1.49918e-16
0.00840003
1.82851e-16
0.00840003
2.10335e-16
0.00840003
1.55149e-16
0.00840003
1.59811e-16
0.00840003
2.69126e-16
0.00840003
3.90503e-16
0.00840003
5.76362e-16
0.00840003
9.81311e-16
0.00840003
2.21326e-15
0.00840003
5.11944e-15
0.00840003
1.28315e-14
0.00840003
3.28445e-14
8.35282e-14
0.00840003
0.00840003
1.62901e-17
0.00840003
-5.69206e-18
0.00840003
-5.63785e-18
0.00840003
6.27482e-17
0.00840003
4.99817e-17
0.00840003
2.46656e-17
0.00840003
1.2902e-17
0.00840003
9.35124e-18
0.00840003
6.61092e-17
0.00840003
1.51111e-16
0.00840003
2.13994e-16
0.00840003
1.83284e-16
0.00840003
2.37007e-16
0.00840003
2.60778e-16
0.00840003
3.61419e-16
0.00840003
3.38569e-16
0.00840003
3.74944e-16
0.00840003
4.07579e-16
0.00840003
5.06837e-16
0.00840003
6.1084e-16
0.00840003
7.79704e-16
0.00840003
1.37718e-15
0.00840003
2.52229e-15
0.00840003
6.00174e-15
1.43725e-14
0.00840003
0.00840003
-6.6814e-17
0.00840003
-1.4466e-16
0.00840003
-1.46123e-16
0.00840003
-1.91904e-16
0.00840003
-2.1375e-16
0.00840003
-1.53794e-16
0.00840003
-2.09251e-16
0.00840003
-1.41543e-16
0.00840003
3.03848e-17
0.00840003
6.41577e-17
0.00840003
1.09965e-16
0.00840003
2.49394e-16
0.00840003
3.00595e-16
0.00840003
3.33609e-16
0.00840003
3.49303e-16
0.00840003
5.44568e-16
0.00840003
5.89372e-16
0.00840003
5.49365e-16
0.00840003
5.35298e-16
0.00840003
4.49293e-16
0.00840003
3.13389e-16
0.00840003
2.91732e-16
0.00840003
4.78079e-16
0.00840003
9.88684e-16
2.38701e-15
0.00840003
0.00840003
-8.97177e-17
0.00840003
-6.348e-17
0.00840003
-1.11808e-16
0.00840003
-1.21024e-16
0.00840003
-1.12703e-16
0.00840003
-1.83691e-16
0.00840003
-1.06821e-16
0.00840003
-1.01021e-16
0.00840003
-1.06387e-16
0.00840003
1.2116e-17
0.00840003
1.10778e-16
0.00840003
2.09983e-16
0.00840003
2.98833e-16
0.00840003
3.75974e-16
0.00840003
4.60542e-16
0.00840003
4.49131e-16
0.00840003
4.63551e-16
0.00840003
4.32759e-16
0.00840003
3.83184e-16
0.00840003
2.83519e-16
0.00840003
3.41741e-16
0.00840003
3.58681e-16
0.00840003
3.46511e-16
0.00840003
3.53341e-16
3.93945e-16
0.00840003
0.00840003
2.0402e-16
0.00840003
3.07236e-16
0.00840003
4.2582e-16
0.00840003
5.58066e-16
0.00840003
6.02735e-16
0.00840003
5.48633e-16
0.00840003
3.80772e-16
0.00840003
2.9596e-16
0.00840003
1.62251e-16
0.00840003
2.61022e-17
0.00840003
5.04154e-18
0.00840003
6.83047e-18
0.00840003
1.74828e-17
0.00840003
1.06008e-16
0.00840003
2.29688e-16
0.00840003
2.50396e-16
0.00840003
3.34151e-16
0.00840003
4.36175e-16
0.00840003
4.67752e-16
0.00840003
5.7666e-16
0.00840003
5.82325e-16
0.00840003
4.52573e-16
0.00840003
3.79769e-16
0.00840003
3.17834e-16
3.07941e-16
0.00840003
0.00840003
0.00840003
0.00840003
0.00840003
0.00840003
0.00840003
0.00840003
0.00840003
0.00840003
0.00840003
0.00840003
0.00840003
0.00840003
0.00840003
0.00840003
0.00840003
0.00840003
0.00840003
0.00840003
0.00840003
0.00840003
0.00840003
0.00840003
0.00840003
0.00840003
0.00451173
0.00388852
0.0029866
0.00152482
0.00232341
0.000661496
0.00205999
0.000257841
0.00201784
3.64943e-05
0.0021548
-0.000142828
0.00233394
-0.00018491
0.00246031
-0.000132722
0.00252966
-7.73554e-05
0.00255135
-2.98317e-05
0.00253959
3.27332e-06
0.00250692
2.32122e-05
0.00248529
1.22425e-05
0.00247738
-2.36479e-07
0.00248536
-1.37717e-05
0.00249861
-1.65771e-05
0.00251423
-1.74108e-05
0.00252916
-1.57503e-05
0.00254216
-1.31899e-05
0.0025528
-1.101e-05
0.00256076
-9.83867e-06
0.00256637
-9.6628e-06
0.00257082
-1.0106e-05
0.00257551
-1.07115e-05
0.00258153
-1.11583e-05
0.00258982
-1.13127e-05
0.0026009
-1.11625e-05
0.00261421
-1.07648e-05
0.00262823
-1.02094e-05
0.00264134
-9.52784e-06
0.00265173
-8.81396e-06
0.0026581
-8.24226e-06
0.00266177
-7.67502e-06
0.00266434
-7.0993e-06
0.0026646
-7.02372e-06
0.00266252
-7.33911e-06
0.00266114
-7.55091e-06
0.00266214
-7.73063e-06
0.00266644
-8.111e-06
0.00267526
-8.78924e-06
0.00268781
-9.70957e-06
0.0027082
-1.07812e-05
0.0027452
-1.16897e-05
0.00282505
-1.24195e-05
0.0029378
-1.47872e-05
0.00308041
-1.72812e-05
0.00325324
-1.92364e-05
0.00345627
-2.14175e-05
0.00368778
-2.37869e-05
0.00394462
-2.62379e-05
0.0042227
-2.86611e-05
0.00451699
-3.10049e-05
0.00482158
-3.32223e-05
0.00512989
-3.52574e-05
0.00543505
-3.70512e-05
0.00573045
-3.8549e-05
0.00601038
-3.97004e-05
0.00627056
-4.04595e-05
0.00650839
-4.0783e-05