/*--------------------------------*- C++ -*----------------------------------*\
  =========                 |
  \\      /  F ield         | OpenFOAM: The Open Source CFD Toolbox
   \\    /   O peration     | Website:  https://openfoam.org
    \\  /    A nd           | Version:  10
     \\/     M anipulation  |
\*---------------------------------------------------------------------------*/
FoamFile
{
    format      ascii;
    class       volScalarField;
    location    "0.5";
    object      T;
}
// * * * * * * * * * * * * * * * * * * * * * * * * * * * * * * * * * * * * * //

dimensions      [0 0 0 1 0 0 0];

internalField   nonuniform List<scalar> 
5250
(
1
1
1
1.00001
1.00001
1.00004
1.00009
1.00027
1.00058
1.00175
1.00381
1.01117
1.02625
1.07321
1.1987
1.56521
2.30804
2.97643
2.9195
2.87219
2.88964
2.93975
3.08492
3.39611
3.3713
1
1
1
1.00001
1.00001
1.00004
1.00009
1.00026
1.00059
1.0017
1.00377
1.01094
1.02579
1.0718
1.19493
1.55523
2.29242
2.97329
2.91774
2.87024
2.88781
2.93796
3.08063
3.39189
3.37093
1
1
1
1.00001
1.00001
1.00004
1.00009
1.00025
1.00057
1.00163
1.00364
1.01052
1.02481
1.06897
1.18695
1.53359
2.25685
2.96566
2.91338
2.86543
2.88299
2.93336
3.07062
3.38177
3.36886
1
1
1
1.00001
1.00001
1.00004
1.00009
1.00023
1.00054
1.00153
1.00344
1.00991
1.02333
1.06483
1.1751
1.50095
2.20193
2.95078
2.90522
2.85798
2.87529
2.9257
3.05345
3.36711
3.36469
1
1
1
1
1.00001
1.00003
1.00008
1.00022
1.0005
1.00141
1.00319
1.00913
1.02148
1.05955
1.15996
1.45827
2.1273
2.92594
2.89276
2.84908
2.86613
2.91533
3.03105
3.34066
3.35544
1
1
1
1
1.00001
1.00003
1.00007
1.00019
1.00047
1.00127
1.00292
1.00822
1.01941
1.05341
1.14234
1.40671
2.03457
2.88084
2.87312
2.84052
2.8558
2.90269
3.00484
3.30905
3.34345
1
1
1
1
1.00001
1.00003
1.00007
1.00017
1.00043
1.00113
1.00266
1.00727
1.01731
1.04691
1.12374
1.34989
1.93016
2.7919
2.85285
2.82817
2.84448
2.88875
2.97286
3.25551
3.31763
1
1
1
1
1.00001
1.00002
1.00006
1.00015
1.00039
1.001
1.00241
1.00643
1.01544
1.04121
1.10722
1.29723
1.82448
2.64355
2.82556
2.81613
2.83623
2.87167
2.9347
3.19534
3.28496
1
1
1
1
1.00001
1.00002
1.00006
1.00013
1.00035
1.00086
1.00218
1.00557
1.01387
1.03597
1.09423
1.25762
1.74824
2.5009
2.7867
2.8107
2.82941
2.85089
2.88847
3.10607
3.2097
1
1
1
1
1.00001
1.00002
1.00005
1.00011
1.0003
1.00073
1.00188
1.00478
1.01194
1.03087
1.08051
1.21993
1.62545
2.35807
2.73572
2.80085
2.81254
2.82184
2.83878
2.99011
3.10712
1
1
1
1
1.00001
1.00001
1.00004
1.00009
1.00025
1.00061
1.00156
1.00398
1.00991
1.02582
1.06672
1.18239
1.50743
2.19222
2.67396
2.78266
2.7867
2.78124
2.76691
2.83529
2.85719
1
1
1
1
1
1.00001
1.00003
1.00008
1.00018
1.00054
1.00112
1.00345
1.00751
1.02143
1.05259
1.1458
1.40716
1.98474
2.60901
2.7687
2.76489
2.7381
2.6902
2.69048
2.67614
1
1
1
1
1
1.00001
1.00003
1.00005
1.00016
1.00035
1.00102
1.00232
1.00638
1.01541
1.04123
1.10816
1.30425
1.76225
2.53001
2.74186
2.73351
2.70293
2.62074
2.58128
2.56338
1
1
1
1
1
1.00001
1.00002
1.00005
1.00011
1.00029
1.00074
1.00184
1.00484
1.01183
1.0312
1.08096
1.22279
1.60685
2.33501
2.66297
2.66137
2.63811
2.57157
2.49105
2.45754
1
1
1
1
1
1.00001
1.00001
1.00004
1.00008
1.00024
1.00049
1.00154
1.00323
1.00955
1.02218
1.06133
1.16272
1.45645
2.08719
2.55632
2.604
2.58418
2.53963
2.45244
2.39818
1
1
1
1
1
1
1.00001
1.00002
1.00006
1.00015
1.00038
1.00102
1.00239
1.00665
1.01573
1.04308
1.11242
1.31801
1.78084
2.45297
2.57238
2.55836
2.51999
2.43884
2.36968
1
1
1
1
1
1
1.00001
1.00001
1.00005
1.0001
1.00029
1.00065
1.00178
1.00429
1.0113
1.0284
1.07538
1.20404
1.54335
2.22835
2.48486
2.49703
2.47125
2.41845
2.3472
1
1
1
1
1
1
1
1.00001
1.00003
1.00007
1.00018
1.00045
1.0012
1.00284
1.00783
1.01874
1.05097
1.13453
1.37621
1.91995
2.37381
2.45485
2.44059
2.40472
2.34514
1
1
1
1
1
1
1
1.00001
1.00002
1.00005
1.00011
1.00031
1.0007
1.00202
1.00444
1.01284
1.03001
1.08319
1.22217
1.58798
2.19955
2.37217
2.38431
2.36465
2.33206
1
1
1
1
1
1
1
1
1.00001
1.00003
1.00007
1.00018
1.00048
1.00116
1.00311
1.00741
1.02003
1.05017
1.13721
1.37531
1.89338
2.25755
2.34165
2.33388
2.30968
1
1
1
1
1
1
1
1
1.00001
1.00002
1.00005
1.0001
1.00031
1.00064
1.00197
1.00419
1.01215
1.02853
1.07847
1.20796
1.55106
2.08948
2.25061
2.27662
2.2615
1
1
1
1
1
1
1
1
1
1.00001
1.00003
1.00006
1.00018
1.00037
1.00115
1.00244
1.00716
1.01658
1.04569
1.11825
1.32843
1.77914
2.13902
2.22977
2.22532
1
1
1
1
1
1
1
1
1
1.00001
1.00001
1.00004
1.00009
1.00024
1.00056
1.00159
1.00354
1.01011
1.0236
1.06458
1.16837
1.45189
1.91815
2.11612
2.17725
1
1
1
1
1
1
1
1
1
1
1.00001
1.00002
1.00005
1.00011
1.00035
1.00072
1.00217
1.00483
1.01352
1.03293
1.0896
1.24116
1.59791
2.01326
2.10185
1
1
1
1
1
1
1
1
1
1
1
1.00001
1.00002
1.00007
1.00015
1.00045
1.00094
1.00293
1.0063
1.01826
1.0443
1.12119
1.32968
1.73876
1.99385
1
1
1
1
1
1
1
1
1
1
1
1.00001
1.00001
1.00004
1.00007
1.00023
1.00048
1.00142
1.0032
1.00894
1.02145
1.05783
1.15011
1.40637
1.76648
1
1
1
1
1
1
1
1
1
1
1
1
1.00001
1.00001
1.00004
1.00009
1.00027
1.00057
1.00175
1.00372
1.01102
1.02529
1.07049
1.18391
1.46867
1
1
1
1
1
1
1
1
1
1
1
1
1
1.00001
1.00002
1.00005
1.0001
1.00031
1.00067
1.002
1.00432
1.01281
1.02979
1.0833
1.22022
1
1
1
1
1
1
1
1
1
1
1
1
1
1
1.00001
1.00002
1.00004
1.00013
1.00028
1.00089
1.00181
1.00574
1.01243
1.03652
1.08983
1
1
1
1
1
1
1
1
1
1
1
1
1
1
1
1.00001
1.00002
1.00005
1.00012
1.00033
1.00084
1.00214
1.00561
1.01413
1.03733
1
1
1
1
1
1
1
1
1
1
1
1
1
1
1
1
1.00001
1.00002
1.00006
1.00011
1.00036
1.00077
1.00232
1.00525
1.01496
1
1
1
1
1
1
1
1
1
1
1
1
1
1
1
1
1
1.00001
1.00002
1.00005
1.00012
1.00031
1.00077
1.00214
1.00503
1
1
1
1
1
1
1
1
1
1
1
1
1
1
1
1
1
1
1.00001
1.00002
1.00004
1.00011
1.00026
1.00073
1.0018
1
1
1
1
1
1
1
1
1
1
1
1
1
1
1
1
1
1
1
1
1.00001
1.00003
1.0001
1.0002
1.00066
1
1
1
1
1
1
1
1
1
1
1
1
1
1
1
1
1
1
1
1
1
1.00001
1.00002
1.00007
1.00017
1
1
1
1
1
1
1
1
1
1
1
1
1
1
1
1
1
1
1
1
1
1
1.00001
1.00002
1.00005
1
1
1
1
1
1
1
1
1
1
1
1
1
1
1
1
1
1
1
1
1
1
1
1
1.00001
1
1
1
1
1
1
1
1
1
1
1
1
1
1
1
1
1
1
1
1
1
1
1
1
1
1
1
1
1
1
1
1
1
1
1
1
1
1
1
1
1
1
1
1
1
1
1
1
1
1
1
1
1
1
1
1
1
1
1
1
1
1
1
1
1
1
1
1
1
1
1
1
1
1
1
1
1
1
1
1
1
1
1
1
1
1
1
1
1
1
1
1
1
1
1
1
1
1
1
1
1
1
1
1
1
1
1
1
1
1
1
1
1
1
1
1
1
1
1
1
1
1
1
1
1
1
1
1
1
1
1
1
1
1
1
1
1
1
1
1
1
1
1
1
1
1
1
1
1
1
1
1
1
1
1
1
1
1
1
1
1
1
1
1
1
1
1
1
1
1
1
1
1
1
1
1
1
1
1
1
1
1
1
1
1
1
1
1
1
1
1
1
1
1
1
1
1
1
1
1
1
1
1
1
1
1
1
1
1
1
1
1
1
1
1
1
1
1
1
1
1
1
1
1
1
1
1
1
1
1
1
1
1
1
1
1
1
1
1
1
1
1
1
1
1
1
1
1
1
1
1
1
1
1
1
1
1
1
1
1
1
1
1
1
1
1
1
1
1
1
1
1
1
1
1
1
1
1
1
1
1
1
1
1
1
1
1
1
1
1
1
1
1
1
1
1
1
1
1
1
1
1
1
1
1
1
1
1
1
1
1
1
1
1
1
1
1
1
1
1
1
1
1
1
1
2.72858
2.51756
2.43918
2.45074
2.50629
2.56731
2.61879
2.64411
2.64057
2.62953
2.61439
2.5908
2.56868
2.55265
2.53703
2.51982
2.50113
2.48148
2.4612
2.44093
2.42184
2.405
2.39016
2.37614
2.36182
2.34634
2.32906
2.31013
2.29084
2.27322
2.25894
2.24895
2.24405
2.24342
2.24436
2.24789
2.25489
2.26177
2.26709
2.26969
2.26976
2.26769
2.25905
2.23272
2.17661
2.10312
2.01845
1.92626
1.83052
1.7352
1.64344
1.55738
1.47841
1.40729
1.34432
1.28939
1.24214
1.20201
1.16837
1.14055
1.11786
1.09968
1.08544
1.07459
1.06653
1.06063
1.05625
1.0528
1.04982
1.04697
1.044
1.04077
1.03719
1.03329
1.02926
1.02539
1.02198
1.01907
1.01649
1.01388
1.01076
1.0081
1.00507
1.00247
1.00077
0.999777
0.999272
0.999087
0.999071
0.999115
0.999266
0.999468
0.999623
0.999739
0.999822
0.999882
0.999923
0.999951
0.99997
0.99998
2.64066
2.55774
2.49332
2.44472
2.39656
2.34726
2.3105
2.30128
2.30219
2.30476
2.30621
2.30587
2.30189
2.29217
2.27643
2.26157
2.2475
2.23288
2.21759
2.2026
2.18885
2.17625
2.16422
2.15243
2.14106
2.1301
2.11916
2.10756
2.09486
2.08105
2.06654
2.05249
2.04061
2.03232
2.02812
2.02695
2.02705
2.02799
2.03142
2.03687
2.04001
2.04053
2.0397
2.03526
2.02034
1.98717
1.93466
1.87272
1.80417
1.73159
1.6574
1.58405
1.51356
1.44739
1.38644
1.33109
1.2814
1.23729
1.1986
1.16514
1.13668
1.11288
1.09331
1.07747
1.06484
1.05497
1.04742
1.04172
1.03734
1.03379
1.03062
1.02755
1.02446
1.02139
1.01845
1.0158
1.0136
1.01184
1.01032
1.00877
1.00702
1.00453
1.00183
0.999994
0.998905
0.99837
0.998209
0.998224
0.998327
0.998631
0.998974
0.999246
0.999456
0.999615
0.999732
0.999818
0.999877
0.999919
0.999948
0.999965
2.54193
2.50803
2.4491
2.37151
2.28854
2.21588
2.16158
2.13695
2.13406
2.13523
2.13793
2.14189
2.13929
2.13608
2.12987
2.12029
2.10862
2.09591
2.08331
2.07104
2.05994
2.04946
2.0398
2.03061
2.02178
2.01273
2.00355
1.99421
1.98446
1.97457
1.96469
1.95439
1.94342
1.93317
1.92549
1.9196
1.91404
1.90991
1.90783
1.90721
1.90703
1.9065
1.90529
1.90106
1.88975
1.86534
1.82608
1.77737
1.72135
1.66024
1.59635
1.53187
1.46871
1.40839
1.35197
1.30007
1.25299
1.21079
1.17351
1.14112
1.11358
1.09071
1.07219
1.0576
1.04642
1.03808
1.03205
1.02783
1.02492
1.02285
1.02114
1.01945
1.01761
1.01566
1.01378
1.01212
1.0108
1.00975
1.00879
1.00772
1.0063
1.00364
1.00124
0.999642
0.998711
0.998275
0.998161
0.998189
0.998331
0.998677
0.999014
0.999278
0.999481
0.999635
0.999747
0.999829
0.999886
0.999926
0.999953
0.999968
2.42779
2.39517
2.34833
2.28974
2.23133
2.1764
2.12989
2.0922
2.06035
2.03923
2.02215
2.01552
2.01537
2.0161
2.01918
2.01956
2.01774
2.01297
2.00269
1.98966
1.97769
1.96675
1.95775
1.94888
1.94041
1.93168
1.9234
1.91508
1.90678
1.89828
1.88973
1.88071
1.87039
1.8592
1.84922
1.84088
1.83302
1.82665
1.8228
1.82129
1.82094
1.82029
1.81914
1.81492
1.80463
1.78022
1.74002
1.68985
1.63272
1.57152
1.50907
1.44775
1.38939
1.33519
1.28582
1.24159
1.20248
1.16828
1.13864
1.11317
1.09154
1.07346
1.05872
1.04705
1.0381
1.03144
1.02661
1.02317
1.02071
1.01887
1.01737
1.01593
1.01434
1.01256
1.01074
1.00913
1.00791
1.00705
1.00643
1.00579
1.00424
1.00175
0.999789
0.998527
0.99786
0.997622
0.997619
0.997722
0.998054
0.998512
0.998885
0.999179
0.999406
0.999578
0.999705
0.999799
0.999864
0.99991
0.999942
0.99996
2.36265
2.33393
2.29996
2.25906
2.2103
2.15933
2.11078
2.06147
2.0132
1.97114
1.94031
1.92104
1.91989
1.92195
1.92768
1.9346
1.9375
1.93698
1.93431
1.92782
1.91717
1.9075
1.89697
1.8883
1.87964
1.87152
1.86359
1.85606
1.84817
1.83994
1.83168
1.82315
1.81358
1.80299
1.79315
1.78418
1.77503
1.76711
1.76181
1.75897
1.757
1.75429
1.74833
1.73408
1.70824
1.67319
1.63039
1.58183
1.52964
1.47598
1.42273
1.37143
1.32312
1.27843
1.2377
1.20102
1.16838
1.13969
1.11472
1.0932
1.07483
1.05936
1.04665
1.03655
1.02885
1.02327
1.0194
1.01683
1.01511
1.01389
1.01287
1.01183
1.01069
1.00943
1.00816
1.00706
1.0063
1.00587
1.00565
1.00495
1.00344
1.00113
0.999365
0.998266
0.997718
0.997553
0.997577
0.99772
0.99813
0.998581
0.99894
0.999222
0.999439
0.999604
0.999725
0.999813
0.999875
0.999918
0.999948
0.999965
2.317
2.27491
2.2396
2.20287
2.1638
2.12151
2.07287
2.02528
1.98116
1.9418
1.91139
1.88912
1.87519
1.86911
1.86922
1.8706
1.87307
1.87375
1.87297
1.87018
1.86444
1.85676
1.8484
1.83914
1.83022
1.82124
1.8123
1.80405
1.79632
1.78838
1.78024
1.77198
1.76261
1.75181
1.74208
1.73383
1.72558
1.71733
1.71062
1.70587
1.70092
1.69197
1.6766
1.65316
1.62141
1.58263
1.53883
1.49205
1.44402
1.39632
1.3502
1.30658
1.26605
1.22884
1.19496
1.16447
1.13737
1.11359
1.09302
1.07544
1.06057
1.04811
1.03786
1.02967
1.02344
1.01897
1.01597
1.01408
1.01289
1.01201
1.01119
1.01027
1.00918
1.00795
1.00669
1.00564
1.00503
1.00475
1.00435
1.00373
1.0024
1.00021
0.998559
0.997608
0.997208
0.997146
0.997221
0.997497
0.998039
0.998504
0.998879
0.999174
0.999403
0.999576
0.999704
0.999797
0.999863
0.999909
0.999941
0.999959
2.29109
2.24364
2.20086
2.15973
2.11828
2.07534
2.0298
1.98388
1.94047
1.90419
1.87457
1.85485
1.84013
1.8285
1.81896
1.81028
1.8038
1.79998
1.79761
1.79698
1.79626
1.79476
1.79128
1.78568
1.77889
1.77128
1.76347
1.75615
1.74867
1.74093
1.73248
1.7239
1.71477
1.70462
1.6955
1.68839
1.68108
1.67252
1.66275
1.6523
1.64002
1.62351
1.601
1.57145
1.53551
1.49504
1.4522
1.40897
1.36665
1.32625
1.28788
1.25228
1.21941
1.18939
1.16231
1.13797
1.11602
1.09629
1.07888
1.06393
1.05132
1.04074
1.03201
1.025
1.01961
1.01571
1.0131
1.0115
1.01054
1.00985
1.00915
1.00826
1.00717
1.00601
1.00498
1.00437
1.00418
1.00389
1.00367
1.00309
1.00168
0.99957
0.998132
0.99736
0.997077
0.997067
0.997182
0.997563
0.998115
0.998569
0.998931
0.999216
0.999434
0.9996
0.999722
0.999811
0.999873
0.999916
0.999946
0.999964
2.28021
2.21949
2.16712
2.12007
2.07435
2.02898
1.9861
1.94609
1.91158
1.88193
1.85853
1.83764
1.81938
1.80132
1.78322
1.76733
1.75402
1.74443
1.73908
1.73593
1.734
1.73291
1.73167
1.72937
1.72592
1.72236
1.71821
1.71248
1.70628
1.69929
1.69148
1.68296
1.67441
1.66526
1.65571
1.64712
1.63811
1.62647
1.61118
1.59309
1.57311
1.55022
1.52311
1.49113
1.45496
1.41635
1.37712
1.33883
1.30245
1.26849
1.23704
1.20801
1.18135
1.15696
1.1348
1.11484
1.09695
1.08087
1.06647
1.05429
1.044
1.03475
1.02722
1.02145
1.01707
1.01391
1.01179
1.01048
1.00975
1.00926
1.00866
1.00773
1.00648
1.00519
1.0043
1.00405
1.00366
1.00347
1.00321
1.00248
1.00072
0.998792
0.997588
0.996987
0.996813
0.996847
0.997035
0.997544
0.998106
0.99856
0.998923
0.999208
0.999427
0.999593
0.999716
0.999806
0.999869
0.999913
0.999944
0.999961
2.27037
2.21269
2.1522
2.09696
2.04743
2.00282
1.96122
1.9253
1.89342
1.86786
1.84521
1.8242
1.80244
1.77947
1.7574
1.73657
1.71936
1.70532
1.69389
1.68595
1.67965
1.67477
1.67255
1.67162
1.67141
1.67096
1.67017
1.66814
1.6644
1.65855
1.6514
1.64332
1.63494
1.62591
1.61535
1.6035
1.59027
1.57354
1.5528
1.5288
1.503
1.47554
1.44561
1.41319
1.37897
1.34398
1.30952
1.27665
1.2461
1.21814
1.19283
1.16986
1.1489
1.12957
1.11167
1.09542
1.08084
1.06772
1.05599
1.04566
1.03694
1.02994
1.02416
1.01884
1.01493
1.01245
1.01072
1.00957
1.00884
1.00836
1.00782
1.00697
1.00577
1.00458
1.00396
1.00332
1.00304
1.00297
1.00273
1.00187
0.99985
0.998206
0.997219
0.996773
0.99669
0.996761
0.997046
0.997656
0.998189
0.998626
0.998975
0.999248
0.999459
0.999617
0.999734
0.999819
0.999878
0.999919
0.999948
0.999965
2.26074
2.19472
2.13851
2.08309
2.03242
1.98823
1.95021
1.91785
1.88948
1.86373
1.83862
1.81383
1.78793
1.76288
1.73877
1.71786
1.69904
1.68258
1.66854
1.65507
1.64455
1.63667
1.63064
1.62777
1.62722
1.62663
1.62601
1.62475
1.62189
1.61748
1.61168
1.60411
1.59486
1.58416
1.5709
1.55461
1.53554
1.51374
1.48888
1.46188
1.43355
1.40483
1.37552
1.3454
1.31512
1.28491
1.25546
1.22748
1.20156
1.1781
1.15754
1.13945
1.12265
1.107
1.09243
1.07901
1.06688
1.05607
1.04646
1.03796
1.03063
1.02465
1.02006
1.01647
1.01314
1.01098
1.00984
1.00894
1.00821
1.00763
1.00708
1.00637
1.00555
1.00491
1.00395
1.00305
1.00274
1.00263
1.00226
1.00118
0.999153
0.997683
0.996861
0.996549
0.996539
0.996666
0.997091
0.997719
0.998242
0.998666
0.999004
0.99927
0.999473
0.999627
0.99974
0.999822
0.999881
0.99992
0.999949
0.999964
2.23738
2.18614
2.12354
2.07105
2.02477
1.9829
1.94684
1.91587
1.88866
1.86274
1.83708
1.81001
1.78286
1.75603
1.73148
1.70935
1.68921
1.67079
1.65304
1.63731
1.62282
1.61067
1.60191
1.59447
1.58914
1.58542
1.58102
1.5764
1.57169
1.56554
1.55809
1.54937
1.53826
1.52497
1.50995
1.49197
1.47059
1.44672
1.42165
1.396
1.3693
1.34199
1.31471
1.28796
1.26203
1.23659
1.21167
1.18783
1.16577
1.14636
1.12998
1.11542
1.10205
1.08966
1.07799
1.06698
1.05678
1.04754
1.03938
1.0323
1.02621
1.02117
1.01726
1.01441
1.01223
1.0103
1.00946
1.00875
1.00788
1.00698
1.00617
1.00547
1.00506
1.00463
1.00365
1.00284
1.0025
1.00235
1.00185
1.0007
0.998662
0.997299
0.996626
0.996437
0.996476
0.99668
0.99723
0.99784
0.998338
0.998742
0.999063
0.999315
0.999507
0.999652
0.999758
0.999835
0.99989
0.999927
0.999953
0.999967
2.20582
2.16487
2.11404
2.06107
2.01454
1.97781
1.94428
1.91442
1.88697
1.85994
1.83257
1.805
1.77834
1.75276
1.72943
1.70687
1.68675
1.66568
1.64685
1.62772
1.61112
1.59633
1.58318
1.57231
1.56218
1.55221
1.54384
1.53438
1.52481
1.51552
1.50483
1.49277
1.47971
1.46454
1.44794
1.42969
1.40854
1.3849
1.36116
1.33789
1.31389
1.28907
1.26459
1.24155
1.21955
1.19816
1.17713
1.1567
1.13788
1.12219
1.10942
1.09793
1.08742
1.07759
1.0683
1.05947
1.05105
1.04313
1.03599
1.02973
1.0244
1.02005
1.01664
1.01409
1.01229
1.01078
1.01008
1.00957
1.00858
1.0073
1.00607
1.00537
1.00494
1.00405
1.00332
1.00295
1.00278
1.00256
1.00189
1.00021
0.998147
0.996992
0.996502
0.996415
0.996486
0.996774
0.997404
0.997967
0.998435
0.998816
0.999119
0.999356
0.999537
0.999673
0.999773
0.999845
0.999896
0.99993
0.999956
0.999969
2.16894
2.14563
2.09711
2.05027
2.00787
1.96847
1.93854
1.90984
1.88231
1.85501
1.82747
1.79994
1.77386
1.74974
1.72746
1.70575
1.68463
1.66344
1.64237
1.62169
1.60301
1.5849
1.56952
1.55439
1.54021
1.52633
1.51174
1.49789
1.48385
1.4688
1.45485
1.43976
1.42356
1.4071
1.38924
1.36996
1.34966
1.32793
1.30551
1.2838
1.2629
1.24162
1.22045
1.20039
1.18153
1.16394
1.14682
1.12946
1.11372
1.10164
1.09168
1.08292
1.07507
1.06771
1.06047
1.0533
1.04641
1.03998
1.034
1.02852
1.02389
1.02016
1.01728
1.01521
1.01364
1.01229
1.01163
1.0112
1.01031
1.00866
1.00706
1.00595
1.00459
1.00374
1.0034
1.00334
1.00331
1.00297
1.00167
0.999192
0.997608
0.996772
0.996458
0.99644
0.996553
0.996955
0.99758
0.998112
0.99855
0.998905
0.999187
0.999407
0.999575
0.9997
0.999792
0.999858
0.999905
0.999937
0.99996
0.999972
2.1202
2.10583
2.07878
2.03565
1.99644
1.96156
1.92646
1.89705
1.86976
1.84315
1.81759
1.79306
1.76928
1.74663
1.72478
1.70316
1.68092
1.65842
1.63567
1.61428
1.59321
1.57493
1.55577
1.53886
1.52109
1.50323
1.48601
1.46758
1.44966
1.43185
1.41286
1.39482
1.37666
1.35689
1.33809
1.31859
1.29798
1.27781
1.25767
1.23724
1.21783
1.19941
1.18071
1.16272
1.14604
1.13124
1.11729
1.10256
1.08913
1.07982
1.07219
1.06581
1.06032
1.05511
1.04994
1.04475
1.03961
1.03479
1.03027
1.0263
1.02279
1.01974
1.0174
1.01585
1.01481
1.01385
1.01316
1.01286
1.01218
1.01079
1.00905
1.00679
1.00488
1.00408
1.00399
1.0041
1.00396
1.00298
1.00052
0.998547
0.997314
0.996688
0.996489
0.996521
0.996689
0.997191
0.997781
0.998271
0.998674
0.999
0.999259
0.99946
0.999613
0.999727
0.999811
0.999871
0.999914
0.999942
0.999963
0.999974
2.06726
2.06361
2.04827
2.02301
1.98578
1.94732
1.91388
1.88214
1.85216
1.82577
1.8016
1.77957
1.75946
1.7396
1.71884
1.69707
1.67393
1.65035
1.62689
1.60429
1.58287
1.56233
1.54261
1.52295
1.50297
1.48351
1.46252
1.44286
1.42212
1.40135
1.38121
1.35955
1.33862
1.31811
1.29656
1.27616
1.25638
1.23604
1.21699
1.19904
1.18099
1.16361
1.14748
1.1309
1.11511
1.10152
1.08967
1.07729
1.06493
1.05714
1.05121
1.04645
1.0426
1.03907
1.03556
1.03209
1.02877
1.02575
1.02304
1.02069
1.01871
1.01713
1.01595
1.01517
1.01458
1.01436
1.01402
1.01377
1.0133
1.01244
1.01063
1.00751
1.00527
1.00441
1.00438
1.00445
1.00405
1.00242
0.999972
0.998207
0.997153
0.996675
0.996576
0.996633
0.996889
0.997463
0.997993
0.998438
0.998805
0.9991
0.999334
0.999516
0.999654
0.999757
0.999832
0.999885
0.999923
0.999949
0.999967
0.999977
1.95773
2.01885
2.01297
1.99914
1.96974
1.93477
1.89953
1.86726
1.83771
1.80963
1.78516
1.76415
1.74486
1.72591
1.7063
1.68507
1.66234
1.63886
1.61534
1.59253
1.57053
1.5492
1.52824
1.50705
1.48598
1.46421
1.44296
1.42082
1.39935
1.37749
1.35518
1.33373
1.3112
1.28899
1.26769
1.24561
1.22537
1.2063
1.18704
1.16913
1.15268
1.13599
1.12028
1.1056
1.09096
1.07776
1.06767
1.05793
1.04683
1.03894
1.03432
1.03032
1.02725
1.02456
1.02198
1.01956
1.0175
1.01586
1.01461
1.01368
1.01307
1.01279
1.01278
1.01296
1.01341
1.01371
1.01375
1.01372
1.01354
1.01289
1.01121
1.00804
1.00566
1.00458
1.00442
1.00439
1.00384
1.00195
0.999578
0.997971
0.997095
0.996754
0.996734
0.996831
0.997189
0.997743
0.998218
0.998615
0.998941
0.999205
0.999413
0.999574
0.999696
0.999786
0.999852
0.999899
0.999933
0.999955
0.999972
0.999979
1.82281
1.92616
1.973
1.96341
1.94855
1.91809
1.88581
1.85212
1.8214
1.79466
1.77073
1.74873
1.72902
1.71034
1.69079
1.66982
1.64757
1.62461
1.60158
1.57903
1.55689
1.53511
1.51329
1.49134
1.4692
1.44686
1.42456
1.40218
1.37989
1.3576
1.33532
1.31276
1.29089
1.26854
1.24704
1.2263
1.20538
1.18619
1.1682
1.14983
1.1331
1.11757
1.10179
1.08739
1.07485
1.06223
1.0519
1.044
1.03527
1.02664
1.02252
1.01929
1.01683
1.0148
1.01281
1.01102
1.00971
1.00892
1.00853
1.00844
1.00855
1.00899
1.00996
1.01097
1.01192
1.01268
1.01307
1.01312
1.01301
1.01244
1.01094
1.00802
1.00576
1.00461
1.00432
1.00417
1.0035
1.00147
0.999197
0.997794
0.997119
0.996922
0.996946
0.9971
0.997536
0.998028
0.998443
0.998791
0.999077
0.999308
0.99949
0.999631
0.999737
0.999815
0.999872
0.999913
0.999942
0.999961
0.999976
0.999982
1.5215
1.8192
1.89307
1.92567
1.91628
1.90022
1.86901
1.83889
1.80766
1.77883
1.75445
1.7333
1.71353
1.69381
1.67393
1.6533
1.63174
1.60947
1.58703
1.56475
1.54266
1.52062
1.49841
1.47603
1.45344
1.43085
1.40831
1.38594
1.36371
1.34148
1.31938
1.29726
1.27538
1.25417
1.23314
1.21317
1.19408
1.17506
1.15711
1.13965
1.12256
1.1068
1.0923
1.07798
1.06563
1.05526
1.04491
1.03721
1.03103
1.02256
1.01621
1.01395
1.01159
1.00974
1.0079
1.00631
1.00536
1.00508
1.00511
1.00533
1.00596
1.00727
1.00868
1.01004
1.01126
1.01223
1.01277
1.01289
1.01276
1.01209
1.01039
1.00787
1.00591
1.00485
1.00451
1.00417
1.00316
1.00092
0.998844
0.997733
0.997283
0.9972
0.997251
0.997465
0.997909
0.998316
0.998669
0.998968
0.999214
0.999411
0.999567
0.999687
0.999777
0.999843
0.999892
0.999926
0.999951
0.999967
0.999979
0.999984
1.25399
1.54316
1.79461
1.86005
1.87738
1.87042
1.85375
1.82352
1.79585
1.7672
1.74031
1.71717
1.69686
1.67749
1.65783
1.63717
1.61571
1.59392
1.57213
1.5502
1.52824
1.50617
1.48387
1.46142
1.43886
1.41643
1.3942
1.37225
1.35046
1.32875
1.30719
1.28574
1.2648
1.24427
1.22454
1.20537
1.18694
1.16915
1.15149
1.13495
1.11868
1.10285
1.08863
1.07578
1.06379
1.05389
1.04526
1.03719
1.03122
1.02592
1.01856
1.0141
1.01246
1.01062
1.00881
1.00716
1.00622
1.00607
1.00615
1.00656
1.00744
1.00886
1.01031
1.01165
1.01277
1.01356
1.01394
1.01393
1.01357
1.01241
1.01028
1.00817
1.00659
1.00569
1.00524
1.0045
1.00282
1.00017
0.998597
0.997859
0.997607
0.997585
0.997653
0.997883
0.998258
0.998596
0.99889
0.99914
0.999345
0.999511
0.99964
0.99974
0.999815
0.99987
0.99991
0.999939
0.999959
0.999972
0.999983
0.999987
1.09777
1.26534
1.53952
1.76134
1.82306
1.83139
1.82546
1.8098
1.78194
1.75675
1.73054
1.70527
1.68266
1.66211
1.64225
1.62204
1.60116
1.57954
1.55758
1.53571
1.514
1.49229
1.47036
1.44826
1.42614
1.40421
1.38255
1.36121
1.34004
1.31909
1.29832
1.27789
1.2579
1.23846
1.21964
1.20129
1.18352
1.166
1.14916
1.13289
1.11749
1.10329
1.09023
1.0786
1.06835
1.05878
1.05091
1.04362
1.037
1.03227
1.02692
1.02099
1.01804
1.01658
1.01477
1.01299
1.0118
1.01154
1.01163
1.01197
1.01277
1.01393
1.01512
1.01611
1.01681
1.01716
1.01711
1.01674
1.01561
1.01369
1.01163
1.00977
1.00846
1.00757
1.00656
1.00459
1.00154
0.999701
0.998707
0.998229
0.998065
0.998054
0.998113
0.998304
0.998601
0.998871
0.999107
0.999308
0.999473
0.999606
0.99971
0.999791
0.999851
0.999895
0.999928
0.999951
0.999967
0.999978
0.999986
0.999989
1.0364
1.09958
1.26193
1.51362
1.72332
1.78193
1.78717
1.78229
1.76839
1.74411
1.7209
1.696
1.67192
1.64961
1.62857
1.60784
1.58698
1.56584
1.54452
1.52313
1.50168
1.48014
1.45851
1.43688
1.41535
1.3941
1.37318
1.35263
1.33231
1.31227
1.29248
1.27308
1.25406
1.23555
1.2174
1.19961
1.18218
1.16516
1.14886
1.13337
1.11918
1.10627
1.09493
1.0847
1.07552
1.06736
1.05991
1.05348
1.04723
1.04192
1.0377
1.03255
1.02806
1.02607
1.0245
1.02264
1.02121
1.02063
1.02064
1.0208
1.02135
1.02208
1.02266
1.02301
1.02306
1.02283
1.02211
1.02066
1.01884
1.01675
1.01472
1.01305
1.01162
1.00966
1.00591
1.00315
1.00126
0.999973
0.999166
0.998735
0.998574
0.998557
0.998595
0.998724
0.998939
0.999139
0.999317
0.999469
0.999595
0.999697
0.999776
0.999838
0.999884
0.999919
0.999944
0.999961
0.999974
0.999982
0.999989
0.999991
1.0143
1.03448
1.09434
1.2474
1.47372
1.68015
1.7373
1.7448
1.74086
1.7294
1.70924
1.68721
1.66273
1.6391
1.61706
1.5959
1.57502
1.55406
1.53298
1.51196
1.49112
1.47033
1.44947
1.42851
1.40763
1.38704
1.36682
1.347
1.32749
1.30825
1.28929
1.27072
1.25246
1.23456
1.21686
1.19944
1.18238
1.16601
1.15063
1.13661
1.12407
1.11282
1.10266
1.09335
1.08507
1.07736
1.0705
1.06434
1.0586
1.0534
1.04909
1.04528
1.04086
1.03777
1.03639
1.03474
1.03317
1.03219
1.03177
1.03174
1.03177
1.03184
1.03178
1.03153
1.03081
1.02962
1.02794
1.02594
1.0237
1.02151
1.01944
1.01649
1.0121
1.00856
1.00569
1.00344
1.00176
1.00056
0.999777
0.999319
0.999114
0.99907
0.999082
0.999139
0.999264
0.999395
0.999515
0.99962
0.999708
0.99978
0.999837
0.999881
0.999915
0.99994
0.999958
0.999971
0.999981
0.999987
0.999992
0.999993
1.00476
1.01223
1.03186
1.08301
1.21996
1.42604
1.6312
1.68943
1.70356
1.70072
1.69211
1.67616
1.65427
1.63048
1.60811
1.58696
1.56609
1.54514
1.52423
1.50353
1.48311
1.4629
1.4427
1.4225
1.40241
1.38259
1.36313
1.34404
1.32523
1.30667
1.28836
1.27032
1.25247
1.23484
1.21752
1.20066
1.18451
1.1695
1.15584
1.14353
1.13226
1.12198
1.11257
1.10396
1.09608
1.08891
1.08232
1.07628
1.07098
1.06582
1.0614
1.05787
1.05422
1.0508
1.04888
1.0474
1.04581
1.04463
1.04393
1.04351
1.04308
1.04257
1.04178
1.04064
1.03913
1.03717
1.03491
1.03249
1.02984
1.02576
1.02096
1.01657
1.01259
1.00915
1.00633
1.0041
1.00243
1.00125
1.00046
0.99997
0.999686
0.99955
0.999522
0.999528
0.99956
0.999625
0.999692
0.999753
0.999807
0.999853
0.999889
0.999918
0.999941
0.999958
0.99997
0.999979
0.999986
0.99999
0.999994
0.999995
1.00138
1.00431
1.00964
1.02781
1.06815
1.18304
1.36953
1.57174
1.6411
1.66503
1.66252
1.65462
1.64267
1.62235
1.60141
1.58109
1.56067
1.53993
1.51915
1.4985
1.47818
1.45831
1.43876
1.4193
1.3999
1.3807
1.3618
1.34321
1.32485
1.30665
1.2886
1.27086
1.25349
1.23657
1.2202
1.20469
1.19018
1.17674
1.16432
1.15292
1.14248
1.1329
1.12405
1.11591
1.1084
1.10149
1.09514
1.08928
1.08397
1.07919
1.07465
1.07098
1.06794
1.06451
1.06233
1.06065
1.05911
1.05776
1.05674
1.05586
1.05482
1.05365
1.05206
1.05022
1.04796
1.04541
1.04208
1.03742
1.03255
1.02745
1.02236
1.01761
1.01342
1.00989
1.00702
1.00479
1.00312
1.00193
1.00111
1.00056
1.00021
0.999999
0.999883
0.999826
0.999817
0.99982
0.999837
0.999863
0.999889
0.999912
0.999932
0.999949
0.999962
0.999973
0.999981
0.999986
0.999991
0.999993
0.999996
0.999996
1.0005
1.00111
1.00337
1.00749
1.02224
1.05264
1.14423
1.30317
1.49596
1.5964
1.62801
1.62533
1.61892
1.60925
1.59342
1.57599
1.55731
1.53764
1.5172
1.49676
1.47671
1.45715
1.43797
1.41889
1.39977
1.38078
1.36206
1.34368
1.32556
1.30769
1.29016
1.2731
1.25672
1.24115
1.22629
1.2121
1.19866
1.18611
1.17456
1.16397
1.15424
1.14522
1.13683
1.12901
1.12174
1.11502
1.1088
1.10306
1.09782
1.09309
1.08877
1.08497
1.08195
1.07899
1.07607
1.07442
1.07291
1.07138
1.0699
1.0684
1.06668
1.06472
1.06243
1.0595
1.05581
1.05146
1.04639
1.04072
1.03473
1.0288
1.02324
1.01824
1.01394
1.01036
1.0075
1.00529
1.00365
1.00246
1.0016
1.00101
1.0006
1.00033
1.00016
1.00005
0.999991
0.999959
0.999947
0.999946
0.99995
0.999957
0.999965
0.999972
0.999979
0.999984
0.999989
0.999992
0.999994
0.999996
0.999998
0.999997
1.00013
1.00034
1.00087
1.00231
1.00583
1.01549
1.03959
1.10231
1.23582
1.41148
1.55908
1.59004
1.58721
1.58429
1.5776
1.56647
1.55219
1.53534
1.5165
1.49708
1.4774
1.45802
1.43897
1.42007
1.40123
1.38249
1.36413
1.34614
1.32848
1.31121
1.29456
1.27866
1.26351
1.2489
1.23483
1.22139
1.20879
1.19714
1.18643
1.1766
1.16745
1.15886
1.15074
1.14313
1.13601
1.12939
1.12327
1.11762
1.11244
1.10775
1.1035
1.09973
1.09654
1.09361
1.09064
1.08843
1.08686
1.08495
1.08286
1.08057
1.07798
1.07495
1.07134
1.06698
1.06179
1.05579
1.04919
1.04234
1.03556
1.02915
1.02332
1.01819
1.01384
1.01031
1.00756
1.00546
1.00388
1.00272
1.00187
1.00126
1.00082
1.00053
1.00032
1.00019
1.0001
1.00005
1.00002
0.999998
0.99999
0.999987
0.999987
0.999988
0.99999
0.999992
0.999994
0.999995
0.999997
0.999998
0.999999
0.999998
1.00003
1.00009
1.00021
1.00063
1.00147
1.00418
1.01004
1.02757
1.06761
1.16948
1.31994
1.48737
1.54082
1.55408
1.55088
1.5469
1.5403
1.5293
1.51458
1.49741
1.47989
1.46161
1.44319
1.42481
1.4065
1.38829
1.37032
1.35283
1.33569
1.31893
1.3028
1.28742
1.27275
1.25872
1.2453
1.23262
1.22084
1.21007
1.20013
1.19086
1.1821
1.17372
1.16576
1.15821
1.15118
1.14464
1.13856
1.13297
1.12782
1.12313
1.11888
1.11506
1.11166
1.10846
1.10534
1.10273
1.10064
1.09804
1.09502
1.0917
1.08792
1.08346
1.07817
1.07198
1.06503
1.05756
1.04987
1.04226
1.03499
1.0282
1.02214
1.01702
1.01289
1.00965
1.00714
1.00522
1.00376
1.00268
1.00188
1.0013
1.00088
1.00059
1.00038
1.00024
1.00015
1.00009
1.00005
1.00003
1.00001
1
1
0.999998
0.999997
0.999997
0.999997
0.999998
0.999998
0.999999
0.999999
0.999999
1.00001
1.00002
1.00006
1.00012
1.00042
1.00084
1.00281
1.0057
1.0181
1.0401
1.10901
1.21885
1.37837
1.49197
1.51795
1.52073
1.5171
1.5121
1.50553
1.49471
1.48007
1.46442
1.44818
1.43142
1.41426
1.39676
1.37933
1.3622
1.34551
1.32911
1.31334
1.2985
1.28443
1.27096
1.25818
1.24621
1.23521
1.22513
1.21574
1.20679
1.19811
1.18978
1.18176
1.17425
1.16725
1.16077
1.15472
1.1491
1.14392
1.13913
1.13474
1.13071
1.12693
1.12327
1.11978
1.11677
1.11364
1.10977
1.10547
1.10062
1.09506
1.08869
1.08153
1.07371
1.06544
1.05696
1.04842
1.03998
1.03205
1.02514
1.01946
1.0149
1.01128
1.00845
1.00625
1.00457
1.00331
1.00237
1.00167
1.00117
1.00081
1.00055
1.00037
1.00024
1.00016
1.0001
1.00006
1.00004
1.00002
1.00001
1.00001
1
1
1
0.999999
0.999999
0.999999
0.999999
1
0.999999
1
1.00001
1.00001
1.00004
1.00007
1.00024
1.00051
1.00154
1.00342
1.00991
1.0231
1.06057
1.14006
1.25268
1.40458
1.4758
1.48183
1.48762
1.4854
1.48032
1.47257
1.46189
1.4484
1.43413
1.41907
1.40349
1.38758
1.37175
1.35626
1.34099
1.32601
1.31175
1.29837
1.28558
1.2734
1.26206
1.25162
1.24197
1.23283
1.22391
1.21514
1.20665
1.19864
1.19112
1.18412
1.17755
1.1714
1.16566
1.1603
1.15526
1.15052
1.14594
1.14153
1.13715
1.13302
1.12889
1.12383
1.11826
1.11219
1.10547
1.09808
1.09005
1.08148
1.07243
1.06284
1.05279
1.0429
1.03411
1.0268
1.02085
1.01604
1.0122
1.00917
1.00683
1.00503
1.00367
1.00265
1.0019
1.00134
1.00094
1.00065
1.00045
1.0003
1.0002
1.00013
1.00009
1.00006
1.00003
1.00002
1.00001
1.00001
1
1
1
1
1
1
1
1
1
1
1
1
1.00001
1.00002
1.00004
1.00012
1.00028
1.00076
1.00188
1.00483
1.01235
1.03045
1.07247