/*--------------------------------*- C++ -*----------------------------------*\
  =========                 |
  \\      /  F ield         | OpenFOAM: The Open Source CFD Toolbox
   \\    /   O peration     | Website:  https://openfoam.org
    \\  /    A nd           | Version:  10
     \\/     M anipulation  |
\*---------------------------------------------------------------------------*/
FoamFile
{
    format      ascii;
    class       volScalarField;
    location    "0.56";
    object      Exp1;
}
// * * * * * * * * * * * * * * * * * * * * * * * * * * * * * * * * * * * * * //

dimensions      [0 0 0 0 0 0 0];

internalField   uniform 0;

boundaryField
{
    frontAndBack
    {
        type            empty;
    }
    inlet
    {
        type            calculated;
        value           uniform 0;
    }
    outlet
    {
        type            calculated;
        value           uniform 0;
    }
    substrate
    {
        type            calculated;
        value           nonuniform List<scalar> 
400
(
1.00188e-10
3.0003e-10
4.9863e-10
6.95435e-10
8.89972e-10
1.08182e-09
1.27062e-09
1.45603e-09
1.63779e-09
1.81564e-09
1.98937e-09
2.15882e-09
2.32383e-09
2.4843e-09
2.64013e-09
2.79126e-09
2.93765e-09
3.07929e-09
3.21616e-09
3.34828e-09
3.47569e-09
3.59842e-09
3.71654e-09
3.83011e-09
3.9392e-09
4.04388e-09
4.14425e-09
4.2404e-09
4.33243e-09
4.42042e-09
4.50447e-09
4.5847e-09
4.66119e-09
4.73406e-09
4.80339e-09
4.8693e-09
4.93187e-09
4.99121e-09
5.04741e-09
5.10057e-09
5.15077e-09
5.1981e-09
5.24266e-09
5.28453e-09
5.32378e-09
5.36049e-09
5.39475e-09
5.42663e-09
5.45619e-09
5.48352e-09
5.50867e-09
5.5317e-09
5.55269e-09
5.5717e-09
5.58877e-09
5.60397e-09
5.61734e-09
5.62895e-09
5.63884e-09
5.64706e-09
5.65366e-09
5.65867e-09
5.66215e-09
5.66414e-09
5.66467e-09
5.66379e-09
5.66153e-09
5.65794e-09
5.65303e-09
5.64686e-09
5.63945e-09
5.63083e-09
5.62104e-09
5.6101e-09
5.59805e-09
5.58492e-09
5.57072e-09
5.5555e-09
5.53927e-09
5.52207e-09
5.50391e-09
5.48483e-09
5.46484e-09
5.44397e-09
5.42224e-09
5.39969e-09
5.37631e-09
5.35215e-09
5.32723e-09
5.30155e-09
5.27515e-09
5.24805e-09
5.22026e-09
5.1918e-09
5.1627e-09
5.13297e-09
5.10264e-09
5.07172e-09
5.04022e-09
5.00818e-09
4.9756e-09
4.94251e-09
4.90893e-09
4.87486e-09
4.84033e-09
4.80535e-09
4.76995e-09
4.73414e-09
4.69793e-09
4.66134e-09
4.62439e-09
4.5871e-09
4.54947e-09
4.51153e-09
4.4733e-09
4.43477e-09
4.39599e-09
4.35695e-09
4.31767e-09
4.27816e-09
4.23845e-09
4.19855e-09
4.15847e-09
4.11822e-09
4.07781e-09
4.03727e-09
3.99661e-09
3.95583e-09
3.91496e-09
3.874e-09
3.83297e-09
3.79188e-09
3.75074e-09
3.70956e-09
3.66837e-09
3.62716e-09
3.58595e-09
3.54476e-09
3.50359e-09
3.46245e-09
3.42136e-09
3.38033e-09
3.33936e-09
3.29847e-09
3.25767e-09
3.21697e-09
3.17637e-09
3.13589e-09
3.09553e-09
3.05531e-09
3.01523e-09
2.97531e-09
2.93555e-09
2.89595e-09
2.85654e-09
2.81731e-09
2.77827e-09
2.73943e-09
2.7008e-09
2.66239e-09
2.62419e-09
2.58623e-09
2.5485e-09
2.51101e-09
2.47376e-09
2.43677e-09
2.40004e-09
2.36357e-09
2.32737e-09
2.29145e-09
2.2558e-09
2.22044e-09
2.18536e-09
2.15058e-09
2.11609e-09
2.0819e-09
2.04802e-09
2.01444e-09
1.98118e-09
1.94822e-09
1.91559e-09
1.88327e-09
1.85127e-09
1.8196e-09
1.78826e-09
1.75724e-09
1.72656e-09
1.69621e-09
1.66619e-09
1.6365e-09
1.60715e-09
1.57814e-09
1.54947e-09
1.52114e-09
1.49315e-09
1.4655e-09
1.43818e-09
1.41122e-09
1.38459e-09
1.3583e-09
1.33235e-09
1.30675e-09
1.28148e-09
1.25656e-09
1.23197e-09
1.20772e-09
1.18381e-09
1.16024e-09
1.137e-09
1.1141e-09
1.09152e-09
1.06929e-09
1.04738e-09
1.02579e-09
1.00454e-09
9.83612e-10
9.63007e-10
9.42723e-10
9.22758e-10
9.03111e-10
8.83779e-10
8.6476e-10
8.46051e-10
8.27651e-10
8.09557e-10
7.91767e-10
7.74277e-10
7.57086e-10
7.40191e-10
7.23589e-10
7.07277e-10
6.91254e-10
6.75515e-10
6.60058e-10
6.4488e-10
6.29979e-10
6.15351e-10
6.00993e-10
5.86903e-10
5.73077e-10
5.59513e-10
5.46207e-10
5.33156e-10
5.20357e-10
5.07808e-10
4.95504e-10
4.83443e-10
4.71621e-10
4.60036e-10
4.48685e-10
4.37563e-10
4.26669e-10
4.15998e-10
4.05548e-10
3.95315e-10
3.85297e-10
3.7549e-10
3.65891e-10
3.56497e-10
3.47305e-10
3.38312e-10
3.29514e-10
3.20908e-10
3.12492e-10
3.04262e-10
2.96216e-10
2.88349e-10
2.8066e-10
2.73145e-10
2.65802e-10
2.58627e-10
2.51617e-10
2.4477e-10
2.38082e-10
2.31551e-10
2.25174e-10
2.18948e-10
2.1287e-10
2.06938e-10
2.01149e-10
1.955e-10
1.89988e-10
1.84612e-10
1.79367e-10
1.74252e-10
1.69264e-10
1.64401e-10
1.59659e-10
1.55037e-10
1.50533e-10
1.46143e-10
1.41865e-10
1.37698e-10
1.33638e-10
1.29683e-10
1.25832e-10
1.22082e-10
1.18431e-10
1.14876e-10
1.11416e-10
1.08048e-10
1.04771e-10
1.01582e-10
9.84792e-11
9.54612e-11
9.25257e-11
8.96708e-11
8.68947e-11
8.41956e-11
8.15716e-11
7.9021e-11
7.65421e-11
7.41332e-11
7.17925e-11
6.95185e-11
6.73096e-11
6.51641e-11
6.30806e-11
6.10574e-11
5.90932e-11
5.71864e-11
5.53356e-11
5.35394e-11
5.17965e-11
5.01055e-11
4.8465e-11
4.68738e-11
4.53307e-11
4.38343e-11
4.23835e-11
4.09771e-11
3.96139e-11
3.82928e-11
3.70127e-11
3.57726e-11
3.45712e-11
3.34077e-11
3.2281e-11
3.11902e-11
3.01342e-11
2.91121e-11
2.81231e-11
2.71661e-11
2.62405e-11
2.53452e-11
2.44795e-11
2.36426e-11
2.28336e-11
2.20519e-11
2.12967e-11
2.05672e-11
1.98627e-11
1.91826e-11
1.85263e-11
1.78929e-11
1.7282e-11
1.66929e-11
1.6125e-11
1.55778e-11
1.50506e-11
1.4543e-11
1.40544e-11
1.35844e-11
1.31323e-11
1.26978e-11
1.22804e-11
1.18796e-11
1.14951e-11
1.11264e-11
1.0773e-11
1.04347e-11
1.01111e-11
9.8017e-12
9.50631e-12
9.22455e-12
8.95611e-12
8.7007e-12
8.45802e-12
8.2278e-12
8.00979e-12
7.80374e-12
7.6094e-12
7.42657e-12
7.25503e-12
7.09458e-12
6.94504e-12
6.80625e-12
6.67802e-12
6.56023e-12
6.45273e-12
6.35539e-12
6.26811e-12
6.19078e-12
6.12331e-12
6.06562e-12
6.01764e-12
5.97933e-12
5.95064e-12
5.93153e-12
5.92198e-12
)
;
    }
    Wall
    {
        type            calculated;
        value           nonuniform List<scalar> 
400
(
1.00189e-10
3.00033e-10
4.98636e-10
6.95444e-10
8.89983e-10
1.08183e-09
1.27063e-09
1.45604e-09
1.63779e-09
1.81564e-09
1.98937e-09
2.15882e-09
2.32383e-09
2.48429e-09
2.64012e-09
2.79125e-09
2.93763e-09
3.07926e-09
3.21613e-09
3.34824e-09
3.47565e-09
3.59838e-09
3.7165e-09
3.83006e-09
3.93914e-09
4.04382e-09
4.14419e-09
4.24034e-09
4.33236e-09
4.42034e-09
4.5044e-09
4.58462e-09
4.66111e-09
4.73397e-09
4.8033e-09
4.8692e-09
4.93178e-09
4.99111e-09
5.04731e-09
5.10046e-09
5.15066e-09
5.198e-09
5.24255e-09
5.28441e-09
5.32366e-09
5.36037e-09
5.39463e-09
5.42651e-09
5.45607e-09
5.48339e-09
5.50854e-09
5.53158e-09
5.55256e-09
5.57157e-09
5.58864e-09
5.60383e-09
5.61721e-09
5.62882e-09
5.63871e-09
5.64692e-09
5.65352e-09
5.65853e-09
5.66201e-09
5.664e-09
5.66453e-09
5.66365e-09
5.66139e-09
5.65779e-09
5.65289e-09
5.64671e-09
5.6393e-09
5.63068e-09
5.62089e-09
5.60996e-09
5.59791e-09
5.58477e-09
5.57058e-09
5.55535e-09
5.53913e-09
5.52192e-09
5.50376e-09
5.48468e-09
5.46469e-09
5.44382e-09
5.4221e-09
5.39954e-09
5.37617e-09
5.35201e-09
5.32708e-09
5.30141e-09
5.27501e-09
5.2479e-09
5.22011e-09
5.19166e-09
5.16256e-09
5.13283e-09
5.1025e-09
5.07157e-09
5.04008e-09
5.00804e-09
4.97547e-09
4.94238e-09
4.90879e-09
4.87472e-09
4.84019e-09
4.80522e-09
4.76982e-09
4.734e-09
4.69779e-09
4.66121e-09
4.62426e-09
4.58697e-09
4.54934e-09
4.5114e-09
4.47317e-09
4.43465e-09
4.39586e-09
4.35682e-09
4.31754e-09
4.27804e-09
4.23833e-09
4.19843e-09
4.15835e-09
4.1181e-09
4.0777e-09
4.03716e-09
3.99649e-09
3.95572e-09
3.91484e-09
3.87389e-09
3.83286e-09
3.79177e-09
3.75063e-09
3.70946e-09
3.66826e-09
3.62705e-09
3.58585e-09
3.54466e-09
3.50349e-09
3.46235e-09
3.42126e-09
3.38023e-09
3.33927e-09
3.29838e-09
3.25758e-09
3.21687e-09
3.17628e-09
3.1358e-09
3.09544e-09
3.05522e-09
3.01515e-09
2.97522e-09
2.93546e-09
2.89587e-09
2.85645e-09
2.81722e-09
2.77819e-09
2.73935e-09
2.70072e-09
2.66231e-09
2.62411e-09
2.58615e-09
2.54842e-09
2.51093e-09
2.47369e-09
2.4367e-09
2.39997e-09
2.3635e-09
2.3273e-09
2.29138e-09
2.25573e-09
2.22037e-09
2.1853e-09
2.15051e-09
2.11603e-09
2.08184e-09
2.04796e-09
2.01438e-09
1.98112e-09
1.94816e-09
1.91553e-09
1.88321e-09
1.85122e-09
1.81955e-09
1.78821e-09
1.75719e-09
1.72651e-09
1.69615e-09
1.66614e-09
1.63645e-09
1.60711e-09
1.5781e-09
1.54943e-09
1.52109e-09
1.4931e-09
1.46545e-09
1.43814e-09
1.41117e-09
1.38454e-09
1.35826e-09
1.33231e-09
1.30671e-09
1.28144e-09
1.25652e-09
1.23193e-09
1.20769e-09
1.18378e-09
1.1602e-09
1.13697e-09
1.11406e-09
1.09149e-09
1.06925e-09
1.04734e-09
1.02576e-09
1.00451e-09
9.83583e-10
9.62978e-10
9.42695e-10
9.22731e-10
9.03084e-10
8.83752e-10
8.64734e-10
8.46026e-10
8.27627e-10
8.09533e-10
7.91743e-10
7.74254e-10
7.57064e-10
7.40169e-10
7.23568e-10
7.07256e-10
6.91233e-10
6.75495e-10
6.60038e-10
6.44861e-10
6.2996e-10
6.15333e-10
6.00975e-10
5.86886e-10
5.7306e-10
5.59496e-10
5.46191e-10
5.3314e-10
5.20342e-10
5.07793e-10
4.95489e-10
4.83428e-10
4.71607e-10
4.60023e-10
4.48671e-10
4.3755e-10
4.26656e-10
4.15986e-10
4.05536e-10
3.95304e-10
3.85286e-10
3.75479e-10
3.65881e-10
3.56487e-10
3.47295e-10
3.38302e-10
3.29504e-10
3.20899e-10
3.12483e-10
3.04253e-10
2.96207e-10
2.88341e-10
2.80652e-10
2.73138e-10
2.65794e-10
2.58619e-10
2.5161e-10
2.44763e-10
2.38075e-10
2.31544e-10
2.25167e-10
2.18942e-10
2.12864e-10
2.06932e-10
2.01143e-10
1.95494e-10
1.89983e-10
1.84606e-10
1.79362e-10
1.74247e-10
1.69259e-10
1.64396e-10
1.59655e-10
1.55033e-10
1.50528e-10
1.46139e-10
1.41861e-10
1.37694e-10
1.33634e-10
1.2968e-10
1.25829e-10
1.22079e-10
1.18427e-10
1.14873e-10
1.11413e-10
1.08045e-10
1.04768e-10
1.01579e-10
9.84765e-11
9.54586e-11
9.25231e-11
8.96683e-11
8.68923e-11
8.41932e-11
8.15694e-11
7.90189e-11
7.654e-11
7.41311e-11
7.17906e-11
6.95166e-11
6.73078e-11
6.51624e-11
6.30789e-11
6.10558e-11
5.90916e-11
5.71848e-11
5.53341e-11
5.3538e-11
5.17951e-11
5.01041e-11
4.84637e-11
4.68726e-11
4.53295e-11
4.38331e-11
4.23824e-11
4.0976e-11
3.96129e-11
3.82918e-11
3.70118e-11
3.57716e-11
3.45703e-11
3.34069e-11
3.22802e-11
3.11894e-11
3.01334e-11
2.91114e-11
2.81223e-11
2.71654e-11
2.62398e-11
2.53445e-11
2.44789e-11
2.3642e-11
2.2833e-11
2.20513e-11
2.12961e-11
2.05667e-11
1.98622e-11
1.91822e-11
1.85258e-11
1.78925e-11
1.72816e-11
1.66925e-11
1.61246e-11
1.55774e-11
1.50503e-11
1.45427e-11
1.40541e-11
1.35841e-11
1.3132e-11
1.26975e-11
1.22801e-11
1.18794e-11
1.14948e-11
1.11261e-11
1.07728e-11
1.04345e-11
1.01108e-11
9.80149e-12
9.5061e-12
9.22435e-12
8.95592e-12
8.70052e-12
8.45784e-12
8.22763e-12
8.00963e-12
7.80358e-12
7.60925e-12
7.42642e-12
7.25489e-12
7.09444e-12
6.94491e-12
6.80612e-12
6.6779e-12
6.56011e-12
6.45261e-12
6.35527e-12
6.26799e-12
6.19066e-12
6.12319e-12
6.0655e-12
6.01752e-12
5.97921e-12
5.95052e-12
5.93144e-12
5.92192e-12
)
;
    }
}


// ************************************************************************* //
