/*--------------------------------*- C++ -*----------------------------------*\
  =========                 |
  \\      /  F ield         | OpenFOAM: The Open Source CFD Toolbox
   \\    /   O peration     | Website:  https://openfoam.org
    \\  /    A nd           | Version:  10
     \\/     M anipulation  |
\*---------------------------------------------------------------------------*/
FoamFile
{
    format      ascii;
    class       volScalarField;
    location    "0.56";
    object      N1;
}
// * * * * * * * * * * * * * * * * * * * * * * * * * * * * * * * * * * * * * //

dimensions      [0 0 0 0 0 0 0];

internalField   nonuniform List<scalar> 
8000
(
7.60523e-10
2.27842e-09
3.78801e-09
5.28504e-09
6.76587e-09
8.22729e-09
9.66647e-09
1.10809e-08
1.24684e-08
1.38271e-08
1.51554e-08
1.64517e-08
1.77151e-08
1.89445e-08
2.01393e-08
2.12988e-08
2.24228e-08
2.35109e-08
2.45632e-08
2.55796e-08
2.65604e-08
2.75058e-08
2.84162e-08
2.9292e-08
3.01338e-08
3.0942e-08
3.17174e-08
3.24605e-08
3.31721e-08
3.38529e-08
3.45035e-08
3.51247e-08
3.57174e-08
3.62821e-08
3.68198e-08
3.7331e-08
3.78166e-08
3.82773e-08
3.87138e-08
3.91269e-08
3.95171e-08
3.98852e-08
4.02318e-08
4.05577e-08
4.08633e-08
4.11493e-08
4.14163e-08
4.16649e-08
4.18956e-08
4.21089e-08
4.23054e-08
4.24855e-08
4.26498e-08
4.27987e-08
4.29326e-08
4.3052e-08
4.31573e-08
4.32489e-08
4.33271e-08
4.33924e-08
4.34452e-08
4.34856e-08
4.35142e-08
4.35313e-08
4.3537e-08
4.35318e-08
4.35159e-08
4.34897e-08
4.34533e-08
4.34071e-08
4.33513e-08
4.32862e-08
4.3212e-08
4.31289e-08
4.30373e-08
4.29372e-08
4.28289e-08
4.27127e-08
4.25887e-08
4.24571e-08
4.23182e-08
4.2172e-08
4.20189e-08
4.1859e-08
4.16925e-08
4.15196e-08
4.13403e-08
4.1155e-08
4.09637e-08
4.07667e-08
4.05641e-08
4.0356e-08
4.01426e-08
3.99241e-08
3.97006e-08
3.94723e-08
3.92392e-08
3.90017e-08
3.87597e-08
3.85135e-08
3.82632e-08
3.80089e-08
3.77508e-08
3.7489e-08
3.72236e-08
3.69548e-08
3.66826e-08
3.64073e-08
3.6129e-08
3.58477e-08
3.55637e-08
3.5277e-08
3.49877e-08
3.4696e-08
3.4402e-08
3.41059e-08
3.38076e-08
3.35075e-08
3.32055e-08
3.29017e-08
3.25964e-08
3.22895e-08
3.19813e-08
3.16718e-08
3.13611e-08
3.10494e-08
3.07367e-08
3.04231e-08
3.01088e-08
2.97938e-08
2.94783e-08
2.91623e-08
2.88459e-08
2.85293e-08
2.82125e-08
2.78956e-08
2.75787e-08
2.72619e-08
2.69453e-08
2.66289e-08
2.63129e-08
2.59974e-08
2.56823e-08
2.53679e-08
2.50541e-08
2.4741e-08
2.44288e-08
2.41175e-08
2.38071e-08
2.34978e-08
2.31896e-08
2.28826e-08
2.25767e-08
2.22722e-08
2.19691e-08
2.16674e-08
2.13672e-08
2.10685e-08
2.07714e-08
2.04759e-08
2.01822e-08
1.98902e-08
1.96e-08
1.93117e-08
1.90253e-08
1.87408e-08
1.84583e-08
1.81778e-08
1.78994e-08
1.76231e-08
1.7349e-08
1.7077e-08
1.68072e-08
1.65397e-08
1.62745e-08
1.60116e-08
1.5751e-08
1.54927e-08
1.52369e-08
1.49835e-08
1.47325e-08
1.44839e-08
1.42379e-08
1.39943e-08
1.37532e-08
1.35147e-08
1.32787e-08
1.30453e-08
1.28144e-08
1.25861e-08
1.23604e-08
1.21373e-08
1.19168e-08
1.16989e-08
1.14836e-08
1.12709e-08
1.10609e-08
1.08534e-08
1.06486e-08
1.04465e-08
1.02469e-08
1.005e-08
9.85568e-09
9.66398e-09
9.47489e-09
9.2884e-09
9.10451e-09
8.92321e-09
8.74449e-09
8.56834e-09
8.39475e-09
8.22371e-09
8.05521e-09
7.88923e-09
7.72577e-09
7.56481e-09
7.40634e-09
7.25034e-09
7.09679e-09
6.94569e-09
6.79701e-09
6.65074e-09
6.50685e-09
6.36534e-09
6.22618e-09
6.08936e-09
5.95485e-09
5.82264e-09
5.6927e-09
5.56501e-09
5.43956e-09
5.31633e-09
5.19528e-09
5.0764e-09
4.95968e-09
4.84507e-09
4.73257e-09
4.62215e-09
4.51378e-09
4.40745e-09
4.30313e-09
4.20079e-09
4.10042e-09
4.00199e-09
3.90547e-09
3.81084e-09
3.71808e-09
3.62717e-09
3.53807e-09
3.45077e-09
3.36523e-09
3.28144e-09
3.19938e-09
3.11901e-09
3.04031e-09
2.96326e-09
2.88784e-09
2.81401e-09
2.74177e-09
2.67107e-09
2.6019e-09
2.53424e-09
2.46805e-09
2.40333e-09
2.34003e-09
2.27815e-09
2.21765e-09
2.15852e-09
2.10072e-09
2.04424e-09
1.98906e-09
1.93515e-09
1.88249e-09
1.83105e-09
1.78082e-09
1.73178e-09
1.6839e-09
1.63715e-09
1.59153e-09
1.54701e-09
1.50356e-09
1.46117e-09
1.41982e-09
1.37948e-09
1.34014e-09
1.30178e-09
1.26438e-09
1.22791e-09
1.19237e-09
1.15772e-09
1.12396e-09
1.09106e-09
1.05901e-09
1.02779e-09
9.97375e-10
9.67757e-10
9.38914e-10
9.10832e-10
8.83493e-10
8.56881e-10
8.30981e-10
8.05775e-10
7.8125e-10
7.57389e-10
7.34178e-10
7.11601e-10
6.89644e-10
6.68294e-10
6.47535e-10
6.27355e-10
6.07739e-10
5.88674e-10
5.70147e-10
5.52145e-10
5.34657e-10
5.17668e-10
5.01167e-10
4.85143e-10
4.69583e-10
4.54477e-10
4.39812e-10
4.25578e-10
4.11764e-10
3.98359e-10
3.85354e-10
3.72737e-10
3.60499e-10
3.48631e-10
3.37123e-10
3.25965e-10
3.15149e-10
3.04665e-10
2.94504e-10
2.84659e-10
2.75121e-10
2.65882e-10
2.56934e-10
2.48269e-10
2.39879e-10
2.31757e-10
2.23897e-10
2.1629e-10
2.08931e-10
2.01811e-10
1.94926e-10
1.88268e-10
1.81831e-10
1.7561e-10
1.69598e-10
1.63789e-10
1.58179e-10
1.52761e-10
1.47531e-10
1.42483e-10
1.37612e-10
1.32913e-10
1.28383e-10
1.24015e-10
1.19806e-10
1.15752e-10
1.11848e-10
1.08091e-10
1.04475e-10
1.00999e-10
9.7657e-11
9.44467e-11
9.13645e-11
8.8407e-11
8.55711e-11
8.28536e-11
8.02517e-11
7.77626e-11
7.53834e-11
7.31116e-11
7.09446e-11
6.88801e-11
6.69158e-11
6.50493e-11
6.32788e-11
6.16021e-11
6.00173e-11
5.85228e-11
5.71166e-11
5.57973e-11
5.45633e-11
5.34133e-11
5.23458e-11
5.13597e-11
5.04537e-11
4.96269e-11
4.88783e-11
4.82071e-11
4.76123e-11
4.70934e-11
4.66497e-11
4.62808e-11
4.59861e-11
4.57655e-11
4.56185e-11
4.55451e-11
7.68305e-10
2.30245e-09
3.82955e-09
5.34555e-09
6.84684e-09
8.33018e-09
9.7927e-09
1.12318e-08
1.26453e-08
1.40312e-08
1.53876e-08
1.67132e-08
1.80067e-08
1.92669e-08
2.04931e-08
2.16846e-08
2.28409e-08
2.39617e-08
2.50468e-08
2.60962e-08
2.71098e-08
2.8088e-08
2.90309e-08
2.99389e-08
3.08125e-08
3.16521e-08
3.24583e-08
3.32318e-08
3.3973e-08
3.46827e-08
3.53616e-08
3.60104e-08
3.66297e-08
3.72204e-08
3.77831e-08
3.83186e-08
3.88276e-08
3.93109e-08
3.97691e-08
4.02029e-08
4.06131e-08
4.10003e-08
4.13652e-08
4.17084e-08
4.20306e-08
4.23324e-08
4.26143e-08
4.2877e-08
4.31211e-08
4.3347e-08
4.35554e-08
4.37467e-08
4.39213e-08
4.40799e-08
4.42229e-08
4.43507e-08
4.44637e-08
4.45624e-08
4.46471e-08
4.47184e-08
4.47764e-08
4.48217e-08
4.48545e-08
4.48752e-08
4.48841e-08
4.48816e-08
4.4868e-08
4.48434e-08
4.48084e-08
4.4763e-08
4.47077e-08
4.46425e-08
4.45679e-08
4.44841e-08
4.43913e-08
4.42897e-08
4.41795e-08
4.40611e-08
4.39345e-08
4.38001e-08
4.3658e-08
4.35084e-08
4.33515e-08
4.31876e-08
4.30167e-08
4.28392e-08
4.26551e-08
4.24647e-08
4.22681e-08
4.20655e-08
4.1857e-08
4.1643e-08
4.14234e-08
4.11984e-08
4.09683e-08
4.07332e-08
4.04932e-08
4.02485e-08
3.99992e-08
3.97455e-08
3.94876e-08
3.92255e-08
3.89594e-08
3.86895e-08
3.84159e-08
3.81387e-08
3.78581e-08
3.75742e-08
3.72872e-08
3.69971e-08
3.67041e-08
3.64084e-08
3.611e-08
3.58092e-08
3.55059e-08
3.52003e-08
3.48927e-08
3.4583e-08
3.42714e-08
3.3958e-08
3.3643e-08
3.33264e-08
3.30083e-08
3.2689e-08
3.23684e-08
3.20467e-08
3.1724e-08
3.14004e-08
3.10761e-08
3.0751e-08
3.04254e-08
3.00993e-08
2.97728e-08
2.94461e-08
2.91191e-08
2.87921e-08
2.8465e-08
2.81381e-08
2.78113e-08
2.74849e-08
2.71587e-08
2.6833e-08
2.65079e-08
2.61833e-08
2.58595e-08
2.55364e-08
2.52141e-08
2.48928e-08
2.45725e-08
2.42533e-08
2.39351e-08
2.36182e-08
2.33026e-08
2.29883e-08
2.26755e-08
2.23641e-08
2.20542e-08
2.17459e-08
2.14393e-08
2.11343e-08
2.08311e-08
2.05298e-08
2.02303e-08
1.99327e-08
1.96371e-08
1.93434e-08
1.90518e-08
1.87624e-08
1.8475e-08
1.81898e-08
1.79069e-08
1.76262e-08
1.73477e-08
1.70716e-08
1.67978e-08
1.65265e-08
1.62575e-08
1.5991e-08
1.57269e-08
1.54653e-08
1.52062e-08
1.49497e-08
1.46957e-08
1.44443e-08
1.41955e-08
1.39493e-08
1.37057e-08
1.34648e-08
1.32265e-08
1.29908e-08
1.27579e-08
1.25276e-08
1.23e-08
1.20751e-08
1.18529e-08
1.16334e-08
1.14166e-08
1.12025e-08
1.09911e-08
1.07824e-08
1.05765e-08
1.03732e-08
1.01726e-08
9.97477e-09
9.7796e-09
9.58711e-09
9.39731e-09
9.21018e-09
9.02571e-09
8.84389e-09
8.66472e-09
8.48818e-09
8.31426e-09
8.14295e-09
7.97423e-09
7.80809e-09
7.64452e-09
7.4835e-09
7.32502e-09
7.16906e-09
7.0156e-09
6.86462e-09
6.71611e-09
6.57005e-09
6.42641e-09
6.28519e-09
6.14635e-09
6.00989e-09
5.87577e-09
5.74398e-09
5.6145e-09
5.4873e-09
5.36236e-09
5.23966e-09
5.11918e-09
5.00089e-09
4.88477e-09
4.77079e-09
4.65894e-09
4.54919e-09
4.44152e-09
4.33589e-09
4.23229e-09
4.13069e-09
4.03107e-09
3.9334e-09
3.83766e-09
3.74382e-09
3.65185e-09
3.56174e-09
3.47346e-09
3.38697e-09
3.30227e-09
3.21931e-09
3.13809e-09
3.05856e-09
2.98071e-09
2.90451e-09
2.82994e-09
2.75697e-09
2.68558e-09
2.61574e-09
2.54743e-09
2.48062e-09
2.41529e-09
2.35141e-09
2.28897e-09
2.22793e-09
2.16828e-09
2.10998e-09
2.05303e-09
1.99738e-09
1.94303e-09
1.88994e-09
1.83809e-09
1.78747e-09
1.73805e-09
1.6898e-09
1.64271e-09
1.59676e-09
1.55191e-09
1.50816e-09
1.46548e-09
1.42385e-09
1.38324e-09
1.34365e-09
1.30504e-09
1.2674e-09
1.23071e-09
1.19496e-09
1.16011e-09
1.12615e-09
1.09307e-09
1.06084e-09
1.02945e-09
9.98879e-10
9.69109e-10
9.40124e-10
9.11906e-10
8.84438e-10
8.57705e-10
8.31689e-10
8.06374e-10
7.81746e-10
7.57788e-10
7.34486e-10
7.11823e-10
6.89786e-10
6.6836e-10
6.4753e-10
6.27283e-10
6.07605e-10
5.88483e-10
5.69902e-10
5.51851e-10
5.34316e-10
5.17285e-10
5.00745e-10
4.84685e-10
4.69092e-10
4.53956e-10
4.39264e-10
4.25006e-10
4.1117e-10
3.97746e-10
3.84724e-10
3.72093e-10
3.59843e-10
3.47965e-10
3.36448e-10
3.25283e-10
3.14462e-10
3.03975e-10
2.93814e-10
2.83969e-10
2.74433e-10
2.65197e-10
2.56253e-10
2.47593e-10
2.39211e-10
2.31097e-10
2.23246e-10
2.1565e-10
2.08301e-10
2.01195e-10
1.94323e-10
1.87679e-10
1.81257e-10
1.75052e-10
1.69057e-10
1.63266e-10
1.57674e-10
1.52275e-10
1.47065e-10
1.42037e-10
1.37188e-10
1.32511e-10
1.28003e-10
1.23659e-10
1.19475e-10
1.15445e-10
1.11567e-10
1.07835e-10
1.04247e-10
1.00798e-10
9.74841e-11
9.43027e-11
9.12501e-11
8.8323e-11
8.55181e-11
8.28326e-11
8.02634e-11
7.78077e-11
7.54628e-11
7.32261e-11
7.10952e-11
6.90677e-11
6.71413e-11
6.53138e-11
6.35832e-11
6.19475e-11
6.04048e-11
5.89534e-11
5.75917e-11
5.63181e-11
5.5131e-11
5.40292e-11
5.30113e-11
5.20763e-11
5.12229e-11
5.04502e-11
4.97574e-11
4.91435e-11
4.86079e-11
4.81499e-11
4.77691e-11
4.7465e-11
4.72372e-11
4.70855e-11
4.70098e-11
7.75928e-10
2.32566e-09
3.86916e-09
5.40259e-09
6.92245e-09
8.42554e-09
9.909e-09
1.13702e-08
1.28069e-08
1.42169e-08
1.55985e-08
1.695e-08
1.82702e-08
1.95578e-08
2.0812e-08
2.20319e-08
2.3217e-08
2.43668e-08
2.54811e-08
2.65597e-08
2.76026e-08
2.86099e-08
2.95818e-08
3.05185e-08
3.14205e-08
3.22881e-08
3.31219e-08
3.39223e-08
3.46901e-08
3.54257e-08
3.61298e-08
3.68032e-08
3.74465e-08
3.80603e-08
3.86455e-08
3.92028e-08
3.97328e-08
4.02362e-08
4.07139e-08
4.11664e-08
4.15945e-08
4.19988e-08
4.23801e-08
4.2739e-08
4.30761e-08
4.3392e-08
4.36874e-08
4.39629e-08
4.4219e-08
4.44562e-08
4.46753e-08
4.48766e-08
4.50607e-08
4.5228e-08
4.53791e-08
4.55145e-08
4.56345e-08
4.57396e-08
4.58302e-08
4.59068e-08
4.59696e-08
4.60192e-08
4.60559e-08
4.60799e-08
4.60918e-08
4.60917e-08
4.608e-08
4.60571e-08
4.60232e-08
4.59787e-08
4.59237e-08
4.58586e-08
4.57837e-08
4.56992e-08
4.56054e-08
4.55024e-08
4.53906e-08
4.52702e-08
4.51414e-08
4.50044e-08
4.48594e-08
4.47068e-08
4.45465e-08
4.4379e-08
4.42043e-08
4.40226e-08
4.38342e-08
4.36392e-08
4.34378e-08
4.32303e-08
4.30167e-08
4.27972e-08
4.25721e-08
4.23414e-08
4.21054e-08
4.18641e-08
4.16179e-08
4.13668e-08
4.11109e-08
4.08505e-08
4.05857e-08
4.03166e-08
4.00434e-08
3.97663e-08
3.94853e-08
3.92006e-08
3.89124e-08
3.86209e-08
3.8326e-08
3.8028e-08
3.77271e-08
3.74233e-08
3.71167e-08
3.68076e-08
3.6496e-08
3.61821e-08
3.58659e-08
3.55477e-08
3.52275e-08
3.49055e-08
3.45817e-08
3.42564e-08
3.39295e-08
3.36013e-08
3.32719e-08
3.29413e-08
3.26097e-08
3.22771e-08
3.19437e-08
3.16097e-08
3.1275e-08
3.09398e-08
3.06043e-08
3.02684e-08
2.99324e-08
2.95962e-08
2.92601e-08
2.89241e-08
2.85882e-08
2.82526e-08
2.79174e-08
2.75826e-08
2.72484e-08
2.69148e-08
2.65819e-08
2.62498e-08
2.59186e-08
2.55883e-08
2.52591e-08
2.49309e-08
2.46039e-08
2.42782e-08
2.39537e-08
2.36307e-08
2.33091e-08
2.2989e-08
2.26704e-08
2.23536e-08
2.20384e-08
2.17249e-08
2.14133e-08
2.11035e-08
2.07956e-08
2.04897e-08
2.01858e-08
1.9884e-08
1.95843e-08
1.92867e-08
1.89913e-08
1.86982e-08
1.84073e-08
1.81187e-08
1.78325e-08
1.75487e-08
1.72673e-08
1.69883e-08
1.67118e-08
1.64379e-08
1.61664e-08
1.58975e-08
1.56312e-08
1.53675e-08
1.51064e-08
1.4848e-08
1.45922e-08
1.43392e-08
1.40888e-08
1.38411e-08
1.35961e-08
1.33539e-08
1.31144e-08
1.28777e-08
1.26437e-08
1.24126e-08
1.21841e-08
1.19585e-08
1.17356e-08
1.15156e-08
1.12983e-08
1.10838e-08
1.0872e-08
1.06631e-08
1.04569e-08
1.02535e-08
1.00529e-08
9.85506e-09
9.65995e-09
9.46759e-09
9.27797e-09
9.09107e-09
8.90689e-09
8.72541e-09
8.54663e-09
8.37053e-09
8.1971e-09
8.02632e-09
7.85818e-09
7.69266e-09
7.52975e-09
7.36943e-09
7.21168e-09
7.05648e-09
6.90382e-09
6.75367e-09
6.60603e-09
6.46086e-09
6.31814e-09
6.17786e-09
6.04e-09
5.90452e-09
5.77142e-09
5.64066e-09
5.51223e-09
5.3861e-09
5.26225e-09
5.14066e-09
5.02129e-09
4.90413e-09
4.78916e-09
4.67634e-09
4.56565e-09
4.45707e-09
4.35058e-09
4.24614e-09
4.14373e-09
4.04334e-09
3.94492e-09
3.84845e-09
3.75392e-09
3.66129e-09
3.57054e-09
3.48164e-09
3.39456e-09
3.30929e-09
3.22579e-09
3.14404e-09
3.06402e-09
2.98569e-09
2.90904e-09
2.83403e-09
2.76064e-09
2.68885e-09
2.61863e-09
2.54995e-09
2.48279e-09
2.41713e-09
2.35294e-09
2.2902e-09
2.22888e-09
2.16896e-09
2.11041e-09
2.05321e-09
1.99733e-09
1.94276e-09
1.88947e-09
1.83743e-09
1.78663e-09
1.73703e-09
1.68863e-09
1.64139e-09
1.59529e-09
1.55031e-09
1.50644e-09
1.46364e-09
1.4219e-09
1.3812e-09
1.34152e-09
1.30283e-09
1.26511e-09
1.22835e-09
1.19253e-09
1.15763e-09
1.12362e-09
1.09049e-09
1.05822e-09
1.0268e-09
9.96196e-10
9.664e-10
9.37393e-10
9.09158e-10
8.81677e-10
8.54934e-10
8.28912e-10
8.03596e-10
7.78968e-10
7.55014e-10
7.31718e-10
7.09065e-10
6.8704e-10
6.65628e-10
6.44816e-10
6.24588e-10
6.0493e-10
5.85831e-10
5.67275e-10
5.4925e-10
5.31743e-10
5.14741e-10
4.98232e-10
4.82203e-10
4.66644e-10
4.51541e-10
4.36884e-10
4.22662e-10
4.08863e-10
3.95477e-10
3.82493e-10
3.69901e-10
3.5769e-10
3.45852e-10
3.34375e-10
3.23251e-10
3.12471e-10
3.02026e-10
2.91906e-10
2.82103e-10
2.72609e-10
2.63415e-10
2.54513e-10
2.45896e-10
2.37556e-10
2.29486e-10
2.21677e-10
2.14124e-10
2.06818e-10
1.99754e-10
1.92925e-10
1.86324e-10
1.79945e-10
1.73782e-10
1.67829e-10
1.62081e-10
1.56531e-10
1.51175e-10
1.46007e-10
1.41022e-10
1.36215e-10
1.31581e-10
1.27116e-10
1.22814e-10
1.18672e-10
1.14685e-10
1.10849e-10
1.0716e-10
1.03615e-10
1.00209e-10
9.69385e-11
9.38006e-11
9.07916e-11
8.79084e-11
8.51478e-11
8.25067e-11
7.99824e-11
7.7572e-11
7.52728e-11
7.30824e-11
7.09982e-11
6.90179e-11
6.71393e-11
6.53603e-11
6.36789e-11
6.20931e-11
6.06012e-11
5.92014e-11
5.78922e-11
5.66719e-11
5.55393e-11
5.4493e-11
5.35318e-11
5.26546e-11
5.18603e-11
5.11481e-11
5.0517e-11
4.99665e-11
4.94957e-11
4.91042e-11
4.87916e-11
4.85575e-11
4.84016e-11
4.83238e-11
7.83066e-10
2.34727e-09
3.90577e-09
5.45493e-09
6.99139e-09
8.51203e-09
1.0014e-08
1.14946e-08
1.29516e-08
1.43829e-08
1.57865e-08
1.71608e-08
1.85043e-08
1.98159e-08
2.10946e-08
2.23394e-08
2.35496e-08
2.47249e-08
2.58647e-08
2.6969e-08
2.80375e-08
2.90704e-08
3.00677e-08
3.10296e-08
3.19565e-08
3.28487e-08
3.37066e-08
3.45308e-08
3.53218e-08
3.60802e-08
3.68066e-08
3.75016e-08
3.81659e-08
3.88002e-08
3.94052e-08
3.99816e-08
4.05301e-08
4.10514e-08
4.15462e-08
4.20152e-08
4.24591e-08
4.28786e-08
4.32744e-08
4.36471e-08
4.39973e-08
4.43258e-08
4.46331e-08
4.49198e-08
4.51865e-08
4.54339e-08
4.56624e-08
4.58726e-08
4.6065e-08
4.62401e-08
4.63984e-08
4.65405e-08
4.66667e-08
4.67775e-08
4.68733e-08
4.69546e-08
4.70218e-08
4.70752e-08
4.71152e-08
4.71423e-08
4.71567e-08
4.71588e-08
4.7149e-08
4.71275e-08
4.70947e-08
4.70508e-08
4.69963e-08
4.69312e-08
4.6856e-08
4.6771e-08
4.66762e-08
4.65721e-08
4.64589e-08
4.63367e-08
4.62059e-08
4.60667e-08
4.59193e-08
4.57639e-08
4.56007e-08
4.543e-08
4.52519e-08
4.50666e-08
4.48744e-08
4.46754e-08
4.44698e-08
4.42579e-08
4.40397e-08
4.38155e-08
4.35854e-08
4.33497e-08
4.31085e-08
4.28619e-08
4.26101e-08
4.23533e-08
4.20917e-08
4.18254e-08
4.15545e-08
4.12793e-08
4.09998e-08
4.07163e-08
4.04288e-08
4.01375e-08
3.98427e-08
3.95443e-08
3.92425e-08
3.89376e-08
3.86296e-08
3.83186e-08
3.80049e-08
3.76885e-08
3.73696e-08
3.70482e-08
3.67246e-08
3.63989e-08
3.60711e-08
3.57414e-08
3.541e-08
3.50769e-08
3.47423e-08
3.44063e-08
3.4069e-08
3.37306e-08
3.33911e-08
3.30506e-08
3.27093e-08
3.23672e-08
3.20246e-08
3.16814e-08
3.13379e-08
3.0994e-08
3.06499e-08
3.03058e-08
2.99616e-08
2.96175e-08
2.92736e-08
2.893e-08
2.85868e-08
2.8244e-08
2.79018e-08
2.75602e-08
2.72193e-08
2.68793e-08
2.65401e-08
2.62019e-08
2.58648e-08
2.55288e-08
2.5194e-08
2.48604e-08
2.45282e-08
2.41974e-08
2.38681e-08
2.35403e-08
2.32142e-08
2.28897e-08
2.25669e-08
2.2246e-08
2.19269e-08
2.16097e-08
2.12944e-08
2.09812e-08
2.067e-08
2.03609e-08
2.0054e-08
1.97493e-08
1.94469e-08
1.91467e-08
1.88488e-08
1.85534e-08
1.82603e-08
1.79697e-08
1.76815e-08
1.73958e-08
1.71127e-08
1.68322e-08
1.65542e-08
1.62789e-08
1.60062e-08
1.57362e-08
1.54688e-08
1.52042e-08
1.49423e-08
1.46831e-08
1.44267e-08
1.41731e-08
1.39223e-08
1.36742e-08
1.3429e-08
1.31866e-08
1.29471e-08
1.27103e-08
1.24764e-08
1.22454e-08
1.20172e-08
1.17918e-08
1.15693e-08
1.13497e-08
1.11329e-08
1.09189e-08
1.07078e-08
1.04995e-08
1.02941e-08
1.00915e-08
9.89168e-09
9.69471e-09
9.50053e-09
9.30915e-09
9.12055e-09
8.93473e-09
8.75166e-09
8.57133e-09
8.39374e-09
8.21886e-09
8.04669e-09
7.8772e-09
7.71038e-09
7.54621e-09
7.38468e-09
7.22576e-09
7.06943e-09
6.91569e-09
6.7645e-09
6.61584e-09
6.4697e-09
6.32606e-09
6.18489e-09
6.04616e-09
5.90987e-09
5.77598e-09
5.64446e-09
5.51531e-09
5.38849e-09
5.26398e-09
5.14175e-09
5.02178e-09
4.90404e-09
4.78852e-09
4.67518e-09
4.56399e-09
4.45494e-09
4.348e-09
4.24314e-09
4.14033e-09
4.03955e-09
3.94077e-09
3.84397e-09
3.74912e-09
3.65619e-09
3.56516e-09
3.476e-09
3.38868e-09
3.30318e-09
3.21947e-09
3.13752e-09
3.05731e-09
2.97882e-09
2.90201e-09
2.82686e-09
2.75335e-09
2.68144e-09
2.61112e-09
2.54235e-09
2.47512e-09
2.40939e-09
2.34514e-09
2.28235e-09
2.22099e-09
2.16103e-09
2.10246e-09
2.04525e-09
1.98936e-09
1.93479e-09
1.88151e-09
1.82949e-09
1.7787e-09
1.72913e-09
1.68076e-09
1.63356e-09
1.5875e-09
1.54258e-09
1.49875e-09
1.45601e-09
1.41434e-09
1.3737e-09
1.33408e-09
1.29546e-09
1.25782e-09
1.22114e-09
1.1854e-09
1.15057e-09
1.11665e-09
1.08361e-09
1.05143e-09
1.02009e-09
9.89582e-10
9.5988e-10
9.30967e-10
9.02827e-10
8.75443e-10
8.48797e-10
8.22873e-10
7.97654e-10
7.73126e-10
7.49271e-10
7.26074e-10
7.03521e-10
6.81596e-10
6.60284e-10
6.3957e-10
6.19442e-10
5.99884e-10
5.80883e-10
5.62425e-10
5.44498e-10
5.27088e-10
5.10183e-10
4.9377e-10
4.77838e-10
4.62373e-10
4.47365e-10
4.32801e-10
4.18671e-10
4.04964e-10
3.91668e-10
3.78774e-10
3.6627e-10
3.54148e-10
3.42396e-10
3.31006e-10
3.19967e-10
3.09271e-10
2.98908e-10
2.8887e-10
2.79148e-10
2.69734e-10
2.60619e-10
2.51795e-10
2.43255e-10
2.34991e-10
2.26995e-10
2.1926e-10
2.11779e-10
2.04546e-10
1.97552e-10
1.90793e-10
1.84261e-10
1.7795e-10
1.71855e-10
1.65969e-10
1.60286e-10
1.54802e-10
1.4951e-10
1.44405e-10
1.39483e-10
1.34737e-10
1.30165e-10
1.2576e-10
1.21519e-10
1.17436e-10
1.13508e-10
1.09731e-10
1.061e-10
1.02613e-10
9.92638e-11
9.60506e-11
9.29695e-11
9.00171e-11
8.71903e-11
8.44859e-11
8.1901e-11
7.94328e-11
7.70784e-11
7.48354e-11
7.27012e-11
7.06735e-11
6.87498e-11
6.69282e-11
6.52064e-11
6.35826e-11
6.20549e-11
6.06215e-11
5.92809e-11
5.80314e-11
5.68716e-11
5.58002e-11
5.48159e-11
5.39176e-11
5.31043e-11
5.2375e-11
5.17288e-11
5.1165e-11
5.0683e-11
5.02821e-11
4.99619e-11
4.97222e-11
4.95626e-11
4.94829e-11
7.89477e-10
2.36663e-09
3.93844e-09
5.50145e-09
7.05242e-09
8.5883e-09
1.01063e-08
1.16037e-08
1.30782e-08
1.45277e-08
1.59502e-08
1.7344e-08
1.87076e-08
2.00398e-08
2.13394e-08
2.26055e-08
2.38374e-08
2.50344e-08
2.61962e-08
2.73225e-08
2.8413e-08
2.94678e-08
3.04869e-08
3.14705e-08
3.24188e-08
3.33321e-08
3.42108e-08
3.50555e-08
3.58665e-08
3.66445e-08
3.739e-08
3.81037e-08
3.87861e-08
3.9438e-08
4.00601e-08
4.0653e-08
4.12175e-08
4.17541e-08
4.22637e-08
4.2747e-08
4.32045e-08
4.36371e-08
4.40454e-08
4.443e-08
4.47917e-08
4.5131e-08
4.54485e-08
4.5745e-08
4.6021e-08
4.6277e-08
4.65137e-08
4.67316e-08
4.69312e-08
4.7113e-08
4.72776e-08
4.74255e-08
4.7557e-08
4.76728e-08
4.77732e-08
4.78586e-08
4.79295e-08
4.79862e-08
4.80292e-08
4.80589e-08
4.80756e-08
4.80796e-08
4.80713e-08
4.80511e-08
4.80192e-08
4.7976e-08
4.79218e-08
4.78568e-08
4.77814e-08
4.76958e-08
4.76004e-08
4.74953e-08
4.73808e-08
4.72572e-08
4.71247e-08
4.69835e-08
4.6834e-08
4.66762e-08
4.65105e-08
4.6337e-08
4.6156e-08
4.59676e-08
4.57721e-08
4.55697e-08
4.53605e-08
4.51448e-08
4.49227e-08
4.46944e-08
4.44601e-08
4.422e-08
4.39743e-08
4.37231e-08
4.34665e-08
4.32049e-08
4.29383e-08
4.26668e-08
4.23908e-08
4.21102e-08
4.18253e-08
4.15363e-08
4.12432e-08
4.09463e-08
4.06456e-08
4.03413e-08
4.00337e-08
3.97227e-08
3.94086e-08
3.90915e-08
3.87716e-08
3.84489e-08
3.81236e-08
3.77959e-08
3.74658e-08
3.71336e-08
3.67993e-08
3.6463e-08
3.6125e-08
3.57852e-08
3.54439e-08
3.51012e-08
3.47571e-08
3.44119e-08
3.40656e-08
3.37182e-08
3.33701e-08
3.30212e-08
3.26716e-08
3.23216e-08
3.19711e-08
3.16203e-08
3.12693e-08
3.09182e-08
3.05671e-08
3.02161e-08
2.98653e-08
2.95147e-08
2.91646e-08
2.88149e-08
2.84658e-08
2.81173e-08
2.77696e-08
2.74227e-08
2.70767e-08
2.67316e-08
2.63877e-08
2.60449e-08
2.57033e-08
2.5363e-08
2.50241e-08
2.46866e-08
2.43507e-08
2.40163e-08
2.36835e-08
2.33525e-08
2.30232e-08
2.26958e-08
2.23702e-08
2.20466e-08
2.1725e-08
2.14054e-08
2.10879e-08
2.07726e-08
2.04595e-08
2.01487e-08
1.98401e-08
1.95338e-08
1.923e-08
1.89285e-08
1.86295e-08
1.8333e-08
1.8039e-08
1.77476e-08
1.74588e-08
1.71725e-08
1.6889e-08
1.66081e-08
1.63298e-08
1.60544e-08
1.57816e-08
1.55116e-08
1.52444e-08
1.498e-08
1.47185e-08
1.44597e-08
1.42038e-08
1.39508e-08
1.37006e-08
1.34533e-08
1.32089e-08
1.29673e-08
1.27287e-08
1.2493e-08
1.22602e-08
1.20303e-08
1.18033e-08
1.15792e-08
1.1358e-08
1.11397e-08
1.09243e-08
1.07118e-08
1.05022e-08
1.02955e-08
1.00917e-08
9.89075e-09
9.69265e-09
9.4974e-09
9.30499e-09
9.1154e-09
8.92863e-09
8.74466e-09
8.56348e-09
8.38507e-09
8.20941e-09
8.03649e-09
7.8663e-09
7.69881e-09
7.53401e-09
7.37188e-09
7.21239e-09
7.05554e-09
6.90129e-09
6.74963e-09
6.60054e-09
6.45399e-09
6.30996e-09
6.16843e-09
6.02938e-09
5.89278e-09
5.75861e-09
5.62684e-09
5.49745e-09
5.37042e-09
5.24572e-09
5.12333e-09
5.00321e-09
4.88535e-09
4.76972e-09
4.65629e-09
4.54503e-09
4.43593e-09
4.32894e-09
4.22405e-09
4.12124e-09
4.02046e-09
3.9217e-09
3.82493e-09
3.73012e-09
3.63725e-09
3.54629e-09
3.4572e-09
3.36997e-09
3.28457e-09
3.20097e-09
3.11914e-09
3.03906e-09
2.9607e-09
2.88403e-09
2.80903e-09
2.73567e-09
2.66392e-09
2.59376e-09
2.52517e-09
2.45811e-09
2.39256e-09
2.3285e-09
2.2659e-09
2.20473e-09
2.14498e-09
2.0866e-09
2.02959e-09
1.97392e-09
1.91956e-09
1.86648e-09
1.81467e-09
1.7641e-09
1.71475e-09
1.66659e-09
1.61961e-09
1.57377e-09
1.52906e-09
1.48546e-09
1.44294e-09
1.40148e-09
1.36106e-09
1.32166e-09
1.28326e-09
1.24583e-09
1.20937e-09
1.17384e-09
1.13923e-09
1.10552e-09
1.07269e-09
1.04072e-09
1.00959e-09
9.7929e-10
9.49793e-10
9.21084e-10
8.93145e-10
8.6596e-10
8.39512e-10
8.13784e-10
7.88759e-10
7.64422e-10
7.40757e-10
7.17747e-10
6.95378e-10
6.73635e-10
6.52503e-10
6.31968e-10
6.12014e-10
5.92629e-10
5.73798e-10
5.55509e-10
5.37747e-10
5.205e-10
5.03755e-10
4.875e-10
4.71723e-10
4.56411e-10
4.41553e-10
4.27137e-10
4.13153e-10
3.99588e-10
3.86433e-10
3.73677e-10
3.61309e-10
3.4932e-10
3.37699e-10
3.26437e-10
3.15525e-10
3.04952e-10
2.94711e-10
2.84793e-10
2.75188e-10
2.65889e-10
2.56887e-10
2.48174e-10
2.39742e-10
2.31585e-10
2.23694e-10
2.16062e-10
2.08682e-10
2.01547e-10
1.94651e-10
1.87987e-10
1.81549e-10
1.7533e-10
1.69325e-10
1.63527e-10
1.57932e-10
1.52533e-10
1.47325e-10
1.42303e-10
1.37462e-10
1.32797e-10
1.28303e-10
1.23976e-10
1.19811e-10
1.15803e-10
1.1195e-10
1.08246e-10
1.04687e-10
1.01271e-10
9.79929e-11
9.48494e-11
9.18373e-11
8.89533e-11
8.61943e-11
8.35571e-11
8.1039e-11
7.8637e-11
7.63487e-11
7.41713e-11
7.21025e-11
7.014e-11
6.82815e-11
6.65249e-11
6.48683e-11
6.33097e-11
6.18473e-11
6.04796e-11
5.92048e-11
5.80216e-11
5.69285e-11
5.59243e-11
5.50079e-11
5.41781e-11
5.34341e-11
5.27748e-11
5.21996e-11
5.17078e-11
5.12988e-11
5.09721e-11
5.07275e-11
5.05647e-11
5.04834e-11
7.95005e-10
2.38331e-09
3.96651e-09
5.54132e-09
7.10459e-09
8.65332e-09
1.01847e-08
1.16962e-08
1.31854e-08
1.46501e-08
1.60884e-08
1.74984e-08
1.88788e-08
2.02281e-08
2.15452e-08
2.28291e-08
2.4079e-08
2.52942e-08
2.64743e-08
2.76189e-08
2.87278e-08
2.98009e-08
3.08382e-08
3.18398e-08
3.2806e-08
3.37369e-08
3.46331e-08
3.54948e-08
3.63226e-08
3.71169e-08
3.78785e-08
3.86077e-08
3.93054e-08
3.9972e-08
4.06084e-08
4.12151e-08
4.17929e-08
4.23425e-08
4.28645e-08
4.33597e-08
4.38287e-08
4.42723e-08
4.46911e-08
4.50857e-08
4.54569e-08
4.58053e-08
4.61315e-08
4.64362e-08
4.67199e-08
4.69832e-08
4.72268e-08
4.74511e-08
4.76568e-08
4.78443e-08
4.80141e-08
4.81669e-08
4.8303e-08
4.84229e-08
4.85271e-08
4.86159e-08
4.869e-08
4.87495e-08
4.87951e-08
4.88269e-08
4.88455e-08
4.88511e-08
4.88442e-08
4.8825e-08
4.87939e-08
4.87513e-08
4.86973e-08
4.86325e-08
4.85569e-08
4.84709e-08
4.83748e-08
4.82689e-08
4.81534e-08
4.80286e-08
4.78947e-08
4.77519e-08
4.76006e-08
4.74409e-08
4.7273e-08
4.70973e-08
4.69138e-08
4.67228e-08
4.65246e-08
4.63193e-08
4.61071e-08
4.58882e-08
4.56628e-08
4.54311e-08
4.51933e-08
4.49495e-08
4.47e-08
4.44449e-08
4.41844e-08
4.39187e-08
4.36479e-08
4.33722e-08
4.30917e-08
4.28067e-08
4.25173e-08
4.22236e-08
4.19259e-08
4.16241e-08
4.13186e-08
4.10095e-08
4.06968e-08
4.03808e-08
4.00616e-08
3.97394e-08
3.94142e-08
3.90863e-08
3.87557e-08
3.84226e-08
3.80871e-08
3.77494e-08
3.74096e-08
3.70679e-08
3.67243e-08
3.6379e-08
3.6032e-08
3.56837e-08
3.5334e-08
3.4983e-08
3.4631e-08
3.42779e-08
3.3924e-08
3.35693e-08
3.3214e-08
3.28582e-08
3.25019e-08
3.21453e-08
3.17885e-08
3.14316e-08
3.10747e-08
3.07179e-08
3.03612e-08
3.00049e-08
2.96489e-08
2.92934e-08
2.89385e-08
2.85843e-08
2.82308e-08
2.78781e-08
2.75264e-08
2.71757e-08
2.6826e-08
2.64775e-08
2.61303e-08
2.57843e-08
2.54398e-08
2.50967e-08
2.47552e-08
2.44152e-08
2.4077e-08
2.37404e-08
2.34057e-08
2.30728e-08
2.27419e-08
2.24129e-08
2.20859e-08
2.1761e-08
2.14383e-08
2.11177e-08
2.07994e-08
2.04834e-08
2.01697e-08
1.98584e-08
1.95495e-08
1.9243e-08
1.8939e-08
1.86376e-08
1.83387e-08
1.80425e-08
1.77488e-08
1.74579e-08
1.71696e-08
1.6884e-08
1.66012e-08
1.63211e-08
1.60438e-08
1.57694e-08
1.54977e-08
1.52289e-08
1.4963e-08
1.47e-08
1.44398e-08
1.41826e-08
1.39282e-08
1.36768e-08
1.34283e-08
1.31828e-08
1.29402e-08
1.27006e-08
1.24639e-08
1.22301e-08
1.19994e-08
1.17716e-08
1.15467e-08
1.13248e-08
1.11058e-08
1.08898e-08
1.06767e-08
1.04666e-08
1.02594e-08
1.00551e-08
9.8537e-09
9.6552e-09
9.4596e-09
9.26686e-09
9.07699e-09
8.88996e-09
8.70576e-09
8.52439e-09
8.34581e-09
8.17002e-09
7.997e-09
7.82673e-09
7.65919e-09
7.49436e-09
7.33223e-09
7.17277e-09
7.01596e-09
6.86178e-09
6.71021e-09
6.56122e-09
6.4148e-09
6.27092e-09
6.12956e-09
5.99069e-09
5.85429e-09
5.72033e-09
5.5888e-09
5.45966e-09
5.33288e-09
5.20845e-09
5.08634e-09
4.96652e-09
4.84897e-09
4.73365e-09
4.62055e-09
4.50963e-09
4.40087e-09
4.29424e-09
4.18971e-09
4.08726e-09
3.98686e-09
3.88849e-09
3.7921e-09
3.69769e-09
3.60521e-09
3.51464e-09
3.42597e-09
3.33914e-09
3.25415e-09
3.17096e-09
3.08955e-09
3.00989e-09
2.93195e-09
2.8557e-09
2.78112e-09
2.70818e-09
2.63686e-09
2.56712e-09
2.49895e-09
2.43232e-09
2.36719e-09
2.30355e-09
2.24136e-09
2.18061e-09
2.12127e-09
2.06331e-09
2.00671e-09
1.95145e-09
1.89749e-09
1.84482e-09
1.79341e-09
1.74324e-09
1.69428e-09
1.64652e-09
1.59992e-09
1.55447e-09
1.51014e-09
1.46691e-09
1.42476e-09
1.38367e-09
1.34362e-09
1.30458e-09
1.26653e-09
1.22946e-09
1.19334e-09
1.15816e-09
1.12389e-09
1.09051e-09
1.05801e-09
1.02637e-09
9.95561e-10
9.65573e-10
9.36387e-10
9.07985e-10
8.80348e-10
8.53461e-10
8.27305e-10
8.01865e-10
7.77123e-10
7.53064e-10
7.29673e-10
7.06932e-10
6.84828e-10
6.63345e-10
6.42468e-10
6.22183e-10
6.02475e-10
5.83332e-10
5.64738e-10
5.46681e-10
5.29148e-10
5.12125e-10
4.956e-10
4.7956e-10
4.63994e-10
4.48889e-10
4.34234e-10
4.20017e-10
4.06227e-10
3.92854e-10
3.79885e-10
3.67312e-10
3.55124e-10
3.4331e-10
3.31861e-10
3.20767e-10
3.10019e-10
2.99608e-10
2.89525e-10
2.7976e-10
2.70306e-10
2.61155e-10
2.52297e-10
2.43726e-10
2.35432e-10
2.2741e-10
2.19651e-10
2.12149e-10
2.04896e-10
1.97885e-10
1.9111e-10
1.84565e-10
1.78243e-10
1.72138e-10
1.66244e-10
1.60556e-10
1.55067e-10
1.49773e-10
1.44667e-10
1.39746e-10
1.35003e-10
1.30435e-10
1.26036e-10
1.21801e-10
1.17727e-10
1.1381e-10
1.10044e-10
1.06427e-10
1.02954e-10
9.9621e-11
9.64253e-11
9.33632e-11
9.04313e-11
8.76263e-11
8.49454e-11
8.23854e-11
7.99436e-11
7.76172e-11
7.54037e-11
7.33005e-11
7.13054e-11
6.9416e-11
6.76302e-11
6.59461e-11
6.43616e-11
6.28749e-11
6.14844e-11
6.01885e-11
5.89856e-11
5.78744e-11
5.68535e-11
5.59218e-11
5.50783e-11
5.43218e-11
5.36516e-11
5.30669e-11
5.25669e-11
5.21511e-11
5.1819e-11
5.15703e-11
5.14048e-11
5.13221e-11
7.99541e-10
2.39698e-09
3.9895e-09
5.57392e-09
7.14715e-09
8.70627e-09
1.02485e-08
1.17713e-08
1.32722e-08
1.47491e-08
1.62001e-08
1.76232e-08
1.9017e-08
2.038e-08
2.17111e-08
2.30092e-08
2.42735e-08
2.55033e-08
2.6698e-08
2.78573e-08
2.89809e-08
3.00686e-08
3.11205e-08
3.21366e-08
3.31171e-08
3.40622e-08
3.49722e-08
3.58477e-08
3.66889e-08
3.74964e-08
3.82707e-08
3.90125e-08
3.97224e-08
4.04009e-08
4.10487e-08
4.16666e-08
4.22551e-08
4.2815e-08
4.3347e-08
4.38518e-08
4.433e-08
4.47824e-08
4.52096e-08
4.56124e-08
4.59912e-08
4.63469e-08
4.66801e-08
4.69913e-08
4.72813e-08
4.75505e-08
4.77996e-08
4.80292e-08
4.82397e-08
4.84318e-08
4.86059e-08
4.87626e-08
4.89023e-08
4.90256e-08
4.91328e-08
4.92245e-08
4.93011e-08
4.93629e-08
4.94104e-08
4.94441e-08
4.94642e-08
4.94711e-08
4.94653e-08