/*--------------------------------*- C++ -*----------------------------------*\
  =========                 |
  \\      /  F ield         | OpenFOAM: The Open Source CFD Toolbox
   \\    /   O peration     | Website:  https://openfoam.org
    \\  /    A nd           | Version:  10
     \\/     M anipulation  |
\*---------------------------------------------------------------------------*/
FoamFile
{
    format      ascii;
    class       volScalarField;
    location    "0.86";
    object      Exp1;
}
// * * * * * * * * * * * * * * * * * * * * * * * * * * * * * * * * * * * * * //

dimensions      [0 0 0 0 0 0 0];

internalField   uniform 0;

boundaryField
{
    frontAndBack
    {
        type            empty;
    }
    inlet
    {
        type            calculated;
        value           uniform 0;
    }
    outlet
    {
        type            calculated;
        value           uniform 0;
    }
    substrate
    {
        type            calculated;
        value           nonuniform List<scalar> 
400
(
4.36617e-15
1.30756e-14
2.17319e-14
3.03117e-14
3.87948e-14
4.71636e-14
5.54027e-14
6.34986e-14
7.14396e-14
7.92155e-14
8.68178e-14
9.42393e-14
1.01474e-13
1.08518e-13
1.15367e-13
1.2202e-13
1.28473e-13
1.34729e-13
1.40785e-13
1.46644e-13
1.52307e-13
1.57776e-13
1.63054e-13
1.68143e-13
1.73048e-13
1.77772e-13
1.82318e-13
1.86692e-13
1.90897e-13
1.94937e-13
1.98817e-13
2.02542e-13
2.06116e-13
2.09543e-13
2.12828e-13
2.15976e-13
2.1899e-13
2.21875e-13
2.24635e-13
2.27274e-13
2.29797e-13
2.32206e-13
2.34507e-13
2.36701e-13
2.38794e-13
2.40788e-13
2.42687e-13
2.44493e-13
2.46211e-13
2.47842e-13
2.4939e-13
2.50857e-13
2.52246e-13
2.53559e-13
2.548e-13
2.55969e-13
2.5707e-13
2.58104e-13
2.59074e-13
2.59981e-13
2.60827e-13
2.61614e-13
2.62344e-13
2.63018e-13
2.63638e-13
2.64206e-13
2.64722e-13
2.65189e-13
2.65606e-13
2.65977e-13
2.66301e-13
2.66581e-13
2.66816e-13
2.67009e-13
2.6716e-13
2.6727e-13
2.6734e-13
2.67372e-13
2.67365e-13
2.67321e-13
2.6724e-13
2.67124e-13
2.66973e-13
2.66787e-13
2.66568e-13
2.66316e-13
2.66032e-13
2.65717e-13
2.6537e-13
2.64993e-13
2.64587e-13
2.64151e-13
2.63686e-13
2.63194e-13
2.62674e-13
2.62127e-13
2.61553e-13
2.60953e-13
2.60328e-13
2.59677e-13
2.59002e-13
2.58302e-13
2.57579e-13
2.56833e-13
2.56063e-13
2.55271e-13
2.54457e-13
2.53622e-13
2.52765e-13
2.51888e-13
2.5099e-13
2.50071e-13
2.49134e-13
2.48177e-13
2.47201e-13
2.46207e-13
2.45194e-13
2.44164e-13
2.43117e-13
2.42052e-13
2.40971e-13
2.39874e-13
2.38761e-13
2.37632e-13
2.36488e-13
2.35329e-13
2.34155e-13
2.32968e-13
2.31767e-13
2.30552e-13
2.29324e-13
2.28084e-13
2.26831e-13
2.25566e-13
2.24289e-13
2.23001e-13
2.21702e-13
2.20392e-13
2.19072e-13
2.17741e-13
2.16401e-13
2.15052e-13
2.13693e-13
2.12326e-13
2.1095e-13
2.09566e-13
2.08174e-13
2.06775e-13
2.05368e-13
2.03955e-13
2.02535e-13
2.01109e-13
1.99677e-13
1.98239e-13
1.96796e-13
1.95348e-13
1.93895e-13
1.92437e-13
1.90976e-13
1.8951e-13
1.88041e-13
1.86569e-13
1.85093e-13
1.83615e-13
1.82134e-13
1.80652e-13
1.79167e-13
1.7768e-13
1.76193e-13
1.74704e-13
1.73214e-13
1.71723e-13
1.70232e-13
1.68741e-13
1.6725e-13
1.6576e-13
1.6427e-13
1.62781e-13
1.61293e-13
1.59807e-13
1.58322e-13
1.56838e-13
1.55357e-13
1.53878e-13
1.52402e-13
1.50928e-13
1.49457e-13
1.47989e-13
1.46525e-13
1.45064e-13
1.43606e-13
1.42153e-13
1.40703e-13
1.39258e-13
1.37817e-13
1.36381e-13
1.3495e-13
1.33524e-13
1.32102e-13
1.30687e-13
1.29276e-13
1.27872e-13
1.26473e-13
1.2508e-13
1.23693e-13
1.22313e-13
1.20938e-13
1.19571e-13
1.1821e-13
1.16856e-13
1.15509e-13
1.14168e-13
1.12836e-13
1.1151e-13
1.10192e-13
1.08881e-13
1.07578e-13
1.06283e-13
1.04996e-13
1.03716e-13
1.02445e-13
1.01182e-13
9.99272e-14
9.86806e-14
9.74425e-14
9.62129e-14
9.49919e-14
9.37795e-14
9.25759e-14
9.1381e-14
9.01951e-14
8.9018e-14
8.785e-14
8.6691e-14
8.55411e-14
8.44003e-14
8.32687e-14
8.21464e-14
8.10334e-14
7.99297e-14
7.88354e-14
7.77505e-14
7.6675e-14
7.5609e-14
7.45525e-14
7.35055e-14
7.2468e-14
7.14401e-14
7.04218e-14
6.9413e-14
6.84139e-14
6.74243e-14
6.64444e-14
6.54741e-14
6.45135e-14
6.35624e-14
6.2621e-14
6.16892e-14
6.07671e-14
5.98545e-14
5.89516e-14
5.80582e-14
5.71745e-14
5.63002e-14
5.54356e-14
5.45804e-14
5.37348e-14
5.28987e-14
5.2072e-14
5.12548e-14
5.04469e-14
4.96485e-14
4.88594e-14
4.80796e-14
4.73091e-14
4.65478e-14
4.57958e-14
4.50529e-14
4.43192e-14
4.35946e-14
4.28791e-14
4.21725e-14
4.1475e-14
4.07863e-14
4.01066e-14
3.94357e-14
3.87735e-14
3.81202e-14
3.74755e-14
3.68395e-14
3.6212e-14
3.55931e-14
3.49827e-14
3.43807e-14
3.37871e-14
3.32019e-14
3.26249e-14
3.20561e-14
3.14955e-14
3.09429e-14
3.03985e-14
2.9862e-14
2.93334e-14
2.88128e-14
2.82999e-14
2.77948e-14
2.72974e-14
2.68076e-14
2.63254e-14
2.58507e-14
2.53834e-14
2.49236e-14
2.4471e-14
2.40258e-14
2.35878e-14
2.31569e-14
2.27331e-14
2.23163e-14
2.19065e-14
2.15036e-14
2.11076e-14
2.07183e-14
2.03357e-14
1.99599e-14
1.95906e-14
1.92279e-14
1.88716e-14
1.85218e-14
1.81784e-14
1.78412e-14
1.75104e-14
1.71857e-14
1.68671e-14
1.65546e-14
1.62482e-14
1.59477e-14
1.56531e-14
1.53644e-14
1.50814e-14
1.48042e-14
1.45327e-14
1.42669e-14
1.40066e-14
1.37519e-14
1.35026e-14
1.32588e-14
1.30204e-14
1.27873e-14
1.25594e-14
1.23368e-14
1.21194e-14
1.19071e-14
1.17e-14
1.14978e-14
1.13007e-14
1.11086e-14
1.09213e-14
1.07389e-14
1.05614e-14
1.03887e-14
1.02207e-14
1.00574e-14
9.89879e-15
9.74483e-15
9.59547e-15
9.45067e-15
9.31041e-15
9.17465e-15
9.04335e-15
8.91648e-15
8.79402e-15
8.67593e-15
8.56218e-15
8.45275e-15
8.34761e-15
8.24672e-15
8.15008e-15
8.05764e-15
7.9694e-15
7.88531e-15
7.80538e-15
7.72956e-15
7.65785e-15
7.59023e-15
7.52667e-15
7.46717e-15
7.4117e-15
7.36026e-15
7.31282e-15
7.26938e-15
7.22993e-15
7.19445e-15
7.16293e-15
7.13537e-15
7.11176e-15
7.0921e-15
7.07638e-15
7.06459e-15
7.05673e-15
7.0528e-15
)
;
    }
    Wall
    {
        type            calculated;
        value           nonuniform List<scalar> 
400
(
4.36618e-15
1.30756e-14
2.1732e-14
3.03118e-14
3.87949e-14
4.71637e-14
5.54028e-14
6.34987e-14
7.14397e-14
7.92156e-14
8.68179e-14
9.42394e-14
1.01474e-13
1.08518e-13
1.15367e-13
1.2202e-13
1.28473e-13
1.34729e-13
1.40785e-13
1.46644e-13
1.52307e-13
1.57776e-13
1.63054e-13
1.68143e-13
1.73048e-13
1.77772e-13
1.82318e-13
1.86692e-13
1.90896e-13
1.94937e-13
1.98817e-13
2.02542e-13
2.06116e-13
2.09543e-13
2.12828e-13
2.15975e-13
2.18989e-13
2.21874e-13
2.24635e-13
2.27274e-13
2.29796e-13
2.32206e-13
2.34506e-13
2.36701e-13
2.38794e-13
2.40788e-13
2.42687e-13
2.44493e-13
2.4621e-13
2.47842e-13
2.49389e-13
2.50856e-13
2.52245e-13
2.53559e-13
2.54799e-13
2.55969e-13
2.57069e-13
2.58104e-13
2.59073e-13
2.5998e-13
2.60826e-13
2.61614e-13
2.62344e-13
2.63018e-13
2.63638e-13
2.64205e-13
2.64722e-13
2.65188e-13
2.65606e-13
2.65976e-13
2.66301e-13
2.6658e-13
2.66815e-13
2.67008e-13
2.67159e-13
2.67269e-13
2.6734e-13
2.67371e-13
2.67364e-13
2.6732e-13
2.67239e-13
2.67123e-13
2.66972e-13
2.66786e-13
2.66567e-13
2.66316e-13
2.66031e-13
2.65716e-13
2.65369e-13
2.64993e-13
2.64586e-13
2.6415e-13
2.63686e-13
2.63193e-13
2.62673e-13
2.62126e-13
2.61552e-13
2.60952e-13
2.60327e-13
2.59676e-13
2.59001e-13
2.58302e-13
2.57578e-13
2.56832e-13
2.56062e-13
2.55271e-13
2.54457e-13
2.53621e-13
2.52764e-13
2.51887e-13
2.50989e-13
2.50071e-13
2.49133e-13
2.48176e-13
2.472e-13
2.46206e-13
2.45194e-13
2.44163e-13
2.43116e-13
2.42051e-13
2.4097e-13
2.39873e-13
2.3876e-13
2.37631e-13
2.36487e-13
2.35328e-13
2.34155e-13
2.32967e-13
2.31766e-13
2.30551e-13
2.29324e-13
2.28083e-13
2.2683e-13
2.25565e-13
2.24288e-13
2.23e-13
2.21701e-13
2.20391e-13
2.19071e-13
2.1774e-13
2.164e-13
2.15051e-13
2.13692e-13
2.12325e-13
2.10949e-13
2.09565e-13
2.08173e-13
2.06774e-13
2.05368e-13
2.03954e-13
2.02534e-13
2.01108e-13
1.99676e-13
1.98238e-13
1.96795e-13
1.95347e-13
1.93894e-13
1.92437e-13
1.90975e-13
1.8951e-13
1.8804e-13
1.86568e-13
1.85093e-13
1.83615e-13
1.82134e-13
1.80651e-13
1.79166e-13
1.7768e-13
1.76192e-13
1.74703e-13
1.73213e-13
1.71723e-13
1.70232e-13
1.68741e-13
1.6725e-13
1.65759e-13
1.6427e-13
1.62781e-13
1.61293e-13
1.59806e-13
1.58321e-13
1.56838e-13
1.55357e-13
1.53878e-13
1.52401e-13
1.50927e-13
1.49457e-13
1.47989e-13
1.46524e-13
1.45063e-13
1.43606e-13
1.42152e-13
1.40703e-13
1.39258e-13
1.37817e-13
1.36381e-13
1.34949e-13
1.33523e-13
1.32102e-13
1.30686e-13
1.29276e-13
1.27871e-13
1.26472e-13
1.25079e-13
1.23693e-13
1.22312e-13
1.20938e-13
1.1957e-13
1.18209e-13
1.16855e-13
1.15508e-13
1.14168e-13
1.12835e-13
1.1151e-13
1.10191e-13
1.08881e-13
1.07578e-13
1.06283e-13
1.04995e-13
1.03716e-13
1.02445e-13
1.01182e-13
9.99268e-14
9.86803e-14
9.74422e-14
9.62125e-14
9.49915e-14
9.37792e-14
9.25755e-14
9.13807e-14
9.01947e-14
8.90177e-14
8.78496e-14
8.66906e-14
8.55407e-14
8.44e-14
8.32684e-14
8.21461e-14
8.10331e-14
7.99294e-14
7.88351e-14
7.77502e-14
7.66747e-14
7.56087e-14
7.45522e-14
7.35052e-14
7.24677e-14
7.14398e-14
7.04215e-14
6.94127e-14
6.84136e-14
6.74241e-14
6.64442e-14
6.54739e-14
6.45132e-14
6.35622e-14
6.26208e-14
6.1689e-14
6.07669e-14
5.98543e-14
5.89514e-14
5.8058e-14
5.71742e-14
5.63e-14
5.54354e-14
5.45802e-14
5.37346e-14
5.28985e-14
5.20718e-14
5.12546e-14
5.04467e-14
4.96483e-14
4.88592e-14
4.80794e-14
4.73089e-14
4.65476e-14
4.57956e-14
4.50528e-14
4.43191e-14
4.35944e-14
4.28789e-14
4.21724e-14
4.14748e-14
4.07862e-14
4.01064e-14
3.94355e-14
3.87734e-14
3.812e-14
3.74754e-14
3.68393e-14
3.62119e-14
3.5593e-14
3.49826e-14
3.43806e-14
3.3787e-14
3.32017e-14
3.26247e-14
3.2056e-14
3.14953e-14
3.09428e-14
3.03984e-14
2.98619e-14
2.93333e-14
2.88127e-14
2.82998e-14
2.77947e-14
2.72973e-14
2.68075e-14
2.63253e-14
2.58506e-14
2.53833e-14
2.49235e-14
2.4471e-14
2.40257e-14
2.35877e-14
2.31568e-14
2.2733e-14
2.23162e-14
2.19064e-14
2.15035e-14
2.11075e-14
2.07182e-14
2.03357e-14
1.99598e-14
1.95905e-14
1.92278e-14
1.88716e-14
1.85218e-14
1.81783e-14
1.78412e-14
1.75103e-14
1.71856e-14
1.6867e-14
1.65546e-14
1.62481e-14
1.59476e-14
1.5653e-14
1.53643e-14
1.50814e-14
1.48042e-14
1.45327e-14
1.42668e-14
1.40066e-14
1.37518e-14
1.35026e-14
1.32588e-14
1.30203e-14
1.27872e-14
1.25594e-14
1.23368e-14
1.21194e-14
1.19071e-14
1.16999e-14
1.14978e-14
1.13007e-14
1.11085e-14
1.09213e-14
1.07389e-14
1.05614e-14
1.03886e-14
1.02206e-14
1.00574e-14
9.89876e-15
9.74479e-15
9.59543e-15
9.45064e-15
9.31038e-15
9.17462e-15
9.04332e-15
8.91645e-15
8.79399e-15
8.6759e-15
8.56216e-15
8.45272e-15
8.34758e-15
8.2467e-15
8.15005e-15
8.05762e-15
7.96937e-15
7.88529e-15
7.80535e-15
7.72954e-15
7.65783e-15
7.59021e-15
7.52665e-15
7.46715e-15
7.41168e-15
7.36023e-15
7.3128e-15
7.26936e-15
7.2299e-15
7.19442e-15
7.1629e-15
7.13534e-15
7.11173e-15
7.09207e-15
7.07635e-15
7.06457e-15
7.05671e-15
7.05278e-15
)
;
    }
}


// ************************************************************************* //
