/*--------------------------------*- C++ -*----------------------------------*\
  =========                 |
  \\      /  F ield         | OpenFOAM: The Open Source CFD Toolbox
   \\    /   O peration     | Website:  https://openfoam.org
    \\  /    A nd           | Version:  10
     \\/     M anipulation  |
\*---------------------------------------------------------------------------*/
FoamFile
{
    format      ascii;
    class       volScalarField;
    location    "0.88";
    object      Exp1;
}
// * * * * * * * * * * * * * * * * * * * * * * * * * * * * * * * * * * * * * //

dimensions      [0 0 0 0 0 0 0];

internalField   uniform 0;

boundaryField
{
    frontAndBack
    {
        type            empty;
    }
    inlet
    {
        type            calculated;
        value           uniform 0;
    }
    outlet
    {
        type            calculated;
        value           uniform 0;
    }
    substrate
    {
        type            calculated;
        value           nonuniform List<scalar> 
400
(
2.2501e-15
6.73849e-15
1.11995e-14
1.56211e-14
1.9993e-14
2.4306e-14
2.85522e-14
3.27247e-14
3.68175e-14
4.08253e-14
4.47437e-14
4.85691e-14
5.22985e-14
5.59295e-14
5.94603e-14
6.28899e-14
6.62173e-14
6.94425e-14
7.25655e-14
7.55869e-14
7.85074e-14
8.13282e-14
8.40507e-14
8.66764e-14
8.9207e-14
9.16446e-14
9.39911e-14
9.62486e-14
9.84194e-14
1.00506e-13
1.0251e-13
1.04434e-13
1.0628e-13
1.08051e-13
1.0975e-13
1.11377e-13
1.12936e-13
1.14429e-13
1.15858e-13
1.17225e-13
1.18531e-13
1.1978e-13
1.20973e-13
1.22111e-13
1.23197e-13
1.24233e-13
1.2522e-13
1.26159e-13
1.27053e-13
1.27903e-13
1.2871e-13
1.29475e-13
1.30201e-13
1.30888e-13
1.31537e-13
1.3215e-13
1.32728e-13
1.33272e-13
1.33783e-13
1.34262e-13
1.3471e-13
1.35128e-13
1.35516e-13
1.35876e-13
1.36208e-13
1.36513e-13
1.36792e-13
1.37046e-13
1.37275e-13
1.37479e-13
1.37661e-13
1.37819e-13
1.37954e-13
1.38068e-13
1.38161e-13
1.38232e-13
1.38284e-13
1.38315e-13
1.38327e-13
1.3832e-13
1.38294e-13
1.3825e-13
1.38189e-13
1.38109e-13
1.38013e-13
1.379e-13
1.3777e-13
1.37624e-13
1.37463e-13
1.37285e-13
1.37093e-13
1.36886e-13
1.36664e-13
1.36428e-13
1.36177e-13
1.35913e-13
1.35635e-13
1.35344e-13
1.35039e-13
1.34722e-13
1.34392e-13
1.3405e-13
1.33695e-13
1.33329e-13
1.32951e-13
1.32561e-13
1.3216e-13
1.31747e-13
1.31324e-13
1.3089e-13
1.30446e-13
1.29991e-13
1.29526e-13
1.29051e-13
1.28566e-13
1.28072e-13
1.27569e-13
1.27056e-13
1.26534e-13
1.26004e-13
1.25464e-13
1.24917e-13
1.24361e-13
1.23797e-13
1.23225e-13
1.22645e-13
1.22058e-13
1.21463e-13
1.20862e-13
1.20253e-13
1.19637e-13
1.19015e-13
1.18386e-13
1.1775e-13
1.17109e-13
1.16461e-13
1.15808e-13
1.15149e-13
1.14484e-13
1.13814e-13
1.13139e-13
1.12459e-13
1.11774e-13
1.11084e-13
1.1039e-13
1.09691e-13
1.08988e-13
1.08282e-13
1.07571e-13
1.06856e-13
1.06138e-13
1.05416e-13
1.04691e-13
1.03963e-13
1.03232e-13
1.02498e-13
1.01761e-13
1.01022e-13
1.00281e-13
9.95367e-14
9.87907e-14
9.80428e-14
9.72931e-14
9.65417e-14
9.57887e-14
9.50344e-14
9.42788e-14
9.3522e-14
9.27643e-14
9.20057e-14
9.12464e-14
9.04865e-14
8.97261e-14
8.89654e-14
8.82045e-14
8.74435e-14
8.66825e-14
8.59217e-14
8.51611e-14
8.4401e-14
8.36414e-14
8.28824e-14
8.21242e-14
8.13669e-14
8.06105e-14
7.98552e-14
7.91011e-14
7.83483e-14
7.75969e-14
7.6847e-14
7.60988e-14
7.53522e-14
7.46075e-14
7.38647e-14
7.31239e-14
7.23852e-14
7.16487e-14
7.09145e-14
7.01827e-14
6.94533e-14
6.87265e-14
6.80023e-14
6.72809e-14
6.65622e-14
6.58464e-14
6.51336e-14
6.44238e-14
6.37171e-14
6.30136e-14
6.23134e-14
6.16164e-14
6.09229e-14
6.02328e-14
5.95462e-14
5.88632e-14
5.81839e-14
5.75083e-14
5.68364e-14
5.61683e-14
5.55041e-14
5.48439e-14
5.41876e-14
5.35353e-14
5.28871e-14
5.2243e-14
5.16031e-14
5.09674e-14
5.0336e-14
4.97088e-14
4.9086e-14
4.84676e-14
4.78535e-14
4.72439e-14
4.66388e-14
4.60382e-14
4.54421e-14
4.48505e-14
4.42636e-14
4.36813e-14
4.31036e-14
4.25305e-14
4.19622e-14
4.13986e-14
4.08397e-14
4.02855e-14
3.97361e-14
3.91914e-14
3.86516e-14
3.81165e-14
3.75863e-14
3.70609e-14
3.65403e-14
3.60245e-14
3.55136e-14
3.50076e-14
3.45063e-14
3.401e-14
3.35185e-14
3.30319e-14
3.25501e-14
3.20732e-14
3.16012e-14
3.1134e-14
3.06717e-14
3.02142e-14
2.97615e-14
2.93137e-14
2.88707e-14
2.84325e-14
2.79991e-14
2.75706e-14
2.71468e-14
2.67278e-14
2.63135e-14
2.5904e-14
2.54993e-14
2.50992e-14
2.47039e-14
2.43132e-14
2.39272e-14
2.35459e-14
2.31692e-14
2.27971e-14
2.24296e-14
2.20667e-14
2.17083e-14
2.13545e-14
2.10052e-14
2.06604e-14
2.032e-14
1.99841e-14
1.96526e-14
1.93255e-14
1.90028e-14
1.86844e-14
1.83704e-14
1.80606e-14
1.77552e-14
1.74539e-14
1.71569e-14
1.68641e-14
1.65754e-14
1.62909e-14
1.60105e-14
1.57341e-14
1.54619e-14
1.51936e-14
1.49293e-14
1.4669e-14
1.44127e-14
1.41603e-14
1.39117e-14
1.3667e-14
1.34261e-14
1.3189e-14
1.29557e-14
1.27261e-14
1.25002e-14
1.2278e-14
1.20595e-14
1.18446e-14
1.16332e-14
1.14254e-14
1.12212e-14
1.10204e-14
1.08232e-14
1.06293e-14
1.04389e-14
1.02519e-14
1.00682e-14
9.88789e-15
9.71086e-15
9.53709e-15
9.36657e-15
9.19927e-15
9.03516e-15
8.87421e-15
8.7164e-15
8.56169e-15
8.41007e-15
8.2615e-15
8.11596e-15
7.97343e-15
7.83387e-15
7.69727e-15
7.56359e-15
7.43281e-15
7.30491e-15
7.17986e-15
7.05765e-15
6.93824e-15
6.82161e-15
6.70774e-15
6.59661e-15
6.4882e-15
6.38248e-15
6.27943e-15
6.17904e-15
6.08127e-15
5.98611e-15
5.89355e-15
5.80355e-15
5.71611e-15
5.6312e-15
5.54881e-15
5.46892e-15
5.3915e-15
5.31655e-15
5.24405e-15
5.17397e-15
5.10632e-15
5.04106e-15
4.97819e-15
4.91769e-15
4.85955e-15
4.80375e-15
4.75029e-15
4.69915e-15
4.65032e-15
4.60378e-15
4.55953e-15
4.51755e-15
4.47784e-15
4.44039e-15
4.40519e-15
4.37223e-15
4.3415e-15
4.31299e-15
4.28671e-15
4.26263e-15
4.24076e-15
4.2211e-15
4.20363e-15
4.18835e-15
4.17526e-15
4.16436e-15
4.15564e-15
4.1491e-15
4.14475e-15
4.14257e-15
)
;
    }
    Wall
    {
        type            calculated;
        value           nonuniform List<scalar> 
400
(
2.2501e-15
6.73851e-15
1.11995e-14
1.56212e-14
1.9993e-14
2.4306e-14
2.85523e-14
3.27248e-14
3.68175e-14
4.08253e-14
4.47437e-14
4.85691e-14
5.22985e-14
5.59295e-14
5.94603e-14
6.28899e-14
6.62173e-14
6.94425e-14
7.25655e-14
7.55868e-14
7.85074e-14
8.13282e-14
8.40506e-14
8.66763e-14
8.9207e-14
9.16446e-14
9.39911e-14
9.62486e-14
9.84193e-14
1.00506e-13
1.0251e-13
1.04434e-13
1.0628e-13
1.08051e-13
1.0975e-13
1.11377e-13
1.12936e-13
1.14429e-13
1.15858e-13
1.17224e-13
1.18531e-13
1.1978e-13
1.20973e-13
1.22111e-13
1.23197e-13
1.24233e-13
1.2522e-13
1.26159e-13
1.27053e-13
1.27903e-13
1.28709e-13
1.29475e-13
1.30201e-13
1.30888e-13
1.31537e-13
1.3215e-13
1.32728e-13
1.33272e-13
1.33783e-13
1.34262e-13
1.3471e-13
1.35127e-13
1.35516e-13
1.35876e-13
1.36208e-13
1.36513e-13
1.36792e-13
1.37046e-13
1.37274e-13
1.37479e-13
1.3766e-13
1.37818e-13
1.37954e-13
1.38068e-13
1.3816e-13
1.38232e-13
1.38283e-13
1.38315e-13
1.38327e-13
1.3832e-13
1.38294e-13
1.3825e-13
1.38188e-13
1.38109e-13
1.38012e-13
1.37899e-13
1.3777e-13
1.37624e-13
1.37462e-13
1.37285e-13
1.37093e-13
1.36885e-13
1.36663e-13
1.36427e-13
1.36177e-13
1.35912e-13
1.35635e-13
1.35343e-13
1.35039e-13
1.34722e-13
1.34392e-13
1.34049e-13
1.33695e-13
1.33328e-13
1.3295e-13
1.3256e-13
1.32159e-13
1.31747e-13
1.31324e-13
1.3089e-13
1.30445e-13
1.2999e-13
1.29525e-13
1.29051e-13
1.28566e-13
1.28072e-13
1.27568e-13
1.27055e-13
1.26534e-13
1.26003e-13
1.25464e-13
1.24916e-13
1.2436e-13
1.23796e-13
1.23225e-13
1.22645e-13
1.22058e-13
1.21463e-13
1.20861e-13
1.20252e-13
1.19637e-13
1.19014e-13
1.18385e-13
1.1775e-13
1.17108e-13
1.16461e-13
1.15808e-13
1.15149e-13
1.14484e-13
1.13814e-13
1.13139e-13
1.12459e-13
1.11774e-13
1.11084e-13
1.1039e-13
1.09691e-13
1.08988e-13
1.08281e-13
1.0757e-13
1.06856e-13
1.06137e-13
1.05416e-13
1.04691e-13
1.03963e-13
1.03232e-13
1.02498e-13
1.01761e-13
1.01022e-13
1.0028e-13
9.95363e-14
9.87904e-14
9.80425e-14
9.72927e-14
9.65413e-14
9.57884e-14
9.50341e-14
9.42784e-14
9.35217e-14
9.2764e-14
9.20054e-14
9.12461e-14
9.04862e-14
8.97258e-14
8.89651e-14
8.82042e-14
8.74432e-14
8.66822e-14
8.59214e-14
8.51608e-14
8.44007e-14
8.36411e-14
8.28821e-14
8.21239e-14
8.13666e-14
8.06102e-14
7.98549e-14
7.91008e-14
7.8348e-14
7.75966e-14
7.68468e-14
7.60985e-14
7.5352e-14
7.46073e-14
7.38645e-14
7.31237e-14
7.2385e-14
7.16485e-14
7.09143e-14
7.01824e-14
6.94531e-14
6.87263e-14
6.80021e-14
6.72806e-14
6.6562e-14
6.58462e-14
6.51334e-14
6.44236e-14
6.37169e-14
6.30134e-14
6.23131e-14
6.16162e-14
6.09227e-14
6.02326e-14
5.9546e-14
5.8863e-14
5.81837e-14
5.7508e-14
5.68362e-14
5.61681e-14
5.55039e-14
5.48437e-14
5.41874e-14
5.35351e-14
5.28869e-14
5.22428e-14
5.16029e-14
5.09673e-14
5.03358e-14
4.97087e-14
4.90858e-14
4.84674e-14
4.78534e-14
4.72438e-14
4.66386e-14
4.6038e-14
4.54419e-14
4.48504e-14
4.42634e-14
4.36811e-14
4.31034e-14
4.25304e-14
4.1962e-14
4.13984e-14
4.08395e-14
4.02853e-14
3.97359e-14
3.91913e-14
3.86514e-14
3.81164e-14
3.75861e-14
3.70607e-14
3.65401e-14
3.60244e-14
3.55135e-14
3.50074e-14
3.45062e-14
3.40099e-14
3.35184e-14
3.30318e-14
3.255e-14
3.20731e-14
3.16011e-14
3.11339e-14
3.06715e-14
3.0214e-14
2.97614e-14
2.93136e-14
2.88706e-14
2.84324e-14
2.7999e-14
2.75705e-14
2.71467e-14
2.67277e-14
2.63134e-14
2.59039e-14
2.54992e-14
2.50991e-14
2.47038e-14
2.43131e-14
2.39271e-14
2.35458e-14
2.31691e-14
2.2797e-14
2.24295e-14
2.20666e-14
2.17083e-14
2.13544e-14
2.10051e-14
2.06603e-14
2.032e-14
1.9984e-14
1.96526e-14
1.93255e-14
1.90027e-14
1.86844e-14
1.83703e-14
1.80606e-14
1.77551e-14
1.74539e-14
1.71568e-14
1.6864e-14
1.65754e-14
1.62908e-14
1.60104e-14
1.57341e-14
1.54618e-14
1.51935e-14
1.49293e-14
1.4669e-14
1.44126e-14
1.41602e-14
1.39116e-14
1.36669e-14
1.34261e-14
1.3189e-14
1.29557e-14
1.27261e-14
1.25002e-14
1.2278e-14
1.20595e-14
1.18445e-14
1.16332e-14
1.14254e-14
1.12212e-14
1.10204e-14
1.08231e-14
1.06293e-14
1.04389e-14
1.02519e-14
1.00682e-14
9.88786e-15
9.71082e-15
9.53706e-15
9.36654e-15
9.19924e-15
9.03513e-15
8.87418e-15
8.71637e-15
8.56166e-15
8.41004e-15
8.26147e-15
8.11594e-15
7.9734e-15
7.83384e-15
7.69724e-15
7.56356e-15
7.43278e-15
7.30488e-15
7.17984e-15
7.05762e-15
6.93821e-15
6.82159e-15
6.70772e-15
6.59659e-15
6.48818e-15
6.38246e-15
6.27941e-15
6.17901e-15
6.08125e-15
5.98609e-15
5.89353e-15
5.80353e-15
5.71609e-15
5.63118e-15
5.54879e-15
5.4689e-15
5.39148e-15
5.31653e-15
5.24403e-15
5.17396e-15
5.1063e-15
5.04104e-15
4.97817e-15
4.91767e-15
4.85953e-15
4.80374e-15
4.75028e-15
4.69913e-15
4.6503e-15
4.60376e-15
4.55951e-15
4.51754e-15
4.47783e-15
4.44038e-15
4.40518e-15
4.37221e-15
4.34148e-15
4.31298e-15
4.28669e-15
4.26262e-15
4.24075e-15
4.22108e-15
4.20361e-15
4.18833e-15
4.17524e-15
4.16434e-15
4.15563e-15
4.14909e-15
4.14474e-15
4.14256e-15
)
;
    }
}


// ************************************************************************* //
