/*--------------------------------*- C++ -*----------------------------------*\
  =========                 |
  \\      /  F ield         | OpenFOAM: The Open Source CFD Toolbox
   \\    /   O peration     | Website:  https://openfoam.org
    \\  /    A nd           | Version:  10
     \\/     M anipulation  |
\*---------------------------------------------------------------------------*/
FoamFile
{
    format      ascii;
    class       volScalarField;
    location    "0.76";
    object      Exp1;
}
// * * * * * * * * * * * * * * * * * * * * * * * * * * * * * * * * * * * * * //

dimensions      [0 0 0 0 0 0 0];

internalField   uniform 0;

boundaryField
{
    frontAndBack
    {
        type            empty;
    }
    inlet
    {
        type            calculated;
        value           uniform 0;
    }
    outlet
    {
        type            calculated;
        value           uniform 0;
    }
    substrate
    {
        type            calculated;
        value           nonuniform List<scalar> 
400
(
1.21267e-13
3.63164e-13
6.03579e-13
8.41857e-13
1.07744e-12
1.30982e-12
1.53859e-12
1.76335e-12
1.98377e-12
2.19958e-12
2.41054e-12
2.61643e-12
2.8171e-12
3.01242e-12
3.20228e-12
3.38663e-12
3.56541e-12
3.73862e-12
3.90625e-12
4.06834e-12
4.22492e-12
4.37606e-12
4.52182e-12
4.66229e-12
4.79757e-12
4.92774e-12
5.05292e-12
5.17323e-12
5.28878e-12
5.39969e-12
5.50608e-12
5.60808e-12
5.7058e-12
5.79939e-12
5.88895e-12
5.97461e-12
6.05649e-12
6.1347e-12
6.20937e-12
6.28061e-12
6.34852e-12
6.41321e-12
6.4748e-12
6.53337e-12
6.58903e-12
6.64187e-12
6.69198e-12
6.73945e-12
6.78437e-12
6.82682e-12
6.86687e-12
6.9046e-12
6.94009e-12
6.9734e-12
7.0046e-12
7.03376e-12
7.06094e-12
7.08619e-12
7.10957e-12
7.13115e-12
7.15096e-12
7.16906e-12
7.1855e-12
7.20032e-12
7.21357e-12
7.22529e-12
7.23552e-12
7.2443e-12
7.25166e-12
7.25765e-12
7.2623e-12
7.26563e-12
7.26769e-12
7.2685e-12
7.2681e-12
7.2665e-12
7.26374e-12
7.25985e-12
7.25485e-12
7.24876e-12
7.24161e-12
7.23343e-12
7.22423e-12
7.21403e-12
7.20287e-12
7.19075e-12
7.1777e-12
7.16374e-12
7.14889e-12
7.13316e-12
7.11657e-12
7.09914e-12
7.0809e-12
7.06184e-12
7.042e-12
7.02139e-12
7.00002e-12
6.97791e-12
6.95507e-12
6.93152e-12
6.90728e-12
6.88235e-12
6.85676e-12
6.83052e-12
6.80363e-12
6.77613e-12
6.74801e-12
6.71929e-12
6.68999e-12
6.66012e-12
6.62969e-12
6.59872e-12
6.56721e-12
6.53519e-12
6.50266e-12
6.46963e-12
6.43613e-12
6.40215e-12
6.36772e-12
6.33284e-12
6.29753e-12
6.2618e-12
6.22566e-12
6.18912e-12
6.1522e-12
6.1149e-12
6.07724e-12
6.03924e-12
6.00089e-12
5.96221e-12
5.92322e-12
5.88393e-12
5.84434e-12
5.80446e-12
5.76432e-12
5.72391e-12
5.68325e-12
5.64236e-12
5.60123e-12
5.55989e-12
5.51834e-12
5.47659e-12
5.43466e-12
5.39255e-12
5.35027e-12
5.30784e-12
5.26526e-12
5.22254e-12
5.1797e-12
5.13674e-12
5.09367e-12
5.05051e-12
5.00726e-12
4.96392e-12
4.92052e-12
4.87706e-12
4.83355e-12
4.79e-12
4.74641e-12
4.7028e-12
4.65917e-12
4.61554e-12
4.5719e-12
4.52828e-12
4.48467e-12
4.44109e-12
4.39754e-12
4.35404e-12
4.31058e-12
4.26718e-12
4.22385e-12
4.18059e-12
4.1374e-12
4.09431e-12
4.0513e-12
4.0084e-12
3.96561e-12
3.92293e-12
3.88037e-12
3.83794e-12
3.79564e-12
3.75348e-12
3.71146e-12
3.6696e-12
3.6279e-12
3.58636e-12
3.54499e-12
3.50379e-12
3.46278e-12
3.42194e-12
3.3813e-12
3.34086e-12
3.30061e-12
3.26057e-12
3.22074e-12
3.18112e-12
3.14173e-12
3.10255e-12
3.0636e-12
3.02488e-12
2.9864e-12
2.94815e-12
2.91015e-12
2.87239e-12
2.83488e-12
2.79763e-12
2.76063e-12
2.72388e-12
2.6874e-12
2.65119e-12
2.61524e-12
2.57956e-12
2.54415e-12
2.50902e-12
2.47416e-12
2.43958e-12
2.40529e-12
2.37127e-12
2.33754e-12
2.3041e-12
2.27095e-12
2.23808e-12
2.20551e-12
2.17323e-12
2.14124e-12
2.10955e-12
2.07815e-12
2.04705e-12
2.01625e-12
1.98575e-12
1.95554e-12
1.92563e-12
1.89603e-12
1.86672e-12
1.83772e-12
1.80901e-12
1.78061e-12
1.75251e-12
1.72471e-12
1.69721e-12
1.67001e-12
1.64311e-12
1.61651e-12
1.59021e-12
1.56421e-12
1.53851e-12
1.51311e-12
1.48801e-12
1.4632e-12
1.43869e-12
1.41447e-12
1.39055e-12
1.36692e-12
1.34358e-12
1.32053e-12
1.29778e-12
1.27531e-12
1.25313e-12
1.23123e-12
1.20962e-12
1.1883e-12
1.16725e-12
1.14649e-12
1.126e-12
1.10579e-12
1.08586e-12
1.0662e-12
1.04682e-12
1.0277e-12
1.00885e-12
9.90271e-13
9.71955e-13
9.53902e-13
9.36111e-13
9.18578e-13
9.01304e-13
8.84284e-13
8.67518e-13
8.51003e-13
8.34738e-13
8.18719e-13
8.02946e-13
7.87416e-13
7.72127e-13
7.57076e-13
7.42262e-13
7.27682e-13
7.13335e-13
6.99217e-13
6.85327e-13
6.71663e-13
6.58223e-13
6.45003e-13
6.32002e-13
6.19218e-13
6.06648e-13
5.9429e-13
5.82142e-13
5.70202e-13
5.58467e-13
5.46936e-13
5.35605e-13
5.24472e-13
5.13536e-13
5.02794e-13
4.92244e-13
4.81884e-13
4.7171e-13
4.61722e-13
4.51917e-13
4.42293e-13
4.32847e-13
4.23578e-13
4.14482e-13
4.05559e-13
3.96805e-13
3.88219e-13
3.79799e-13
3.71542e-13
3.63446e-13
3.5551e-13
3.47731e-13
3.40106e-13
3.32635e-13
3.25315e-13
3.18144e-13
3.1112e-13
3.04241e-13
2.97505e-13
2.9091e-13
2.84455e-13
2.78137e-13
2.71954e-13
2.65905e-13
2.59988e-13
2.54201e-13
2.48542e-13
2.43009e-13
2.37601e-13
2.32316e-13
2.27152e-13
2.22108e-13
2.17182e-13
2.12372e-13
2.07677e-13
2.03095e-13
1.98625e-13
1.94265e-13
1.90013e-13
1.85868e-13
1.81829e-13
1.77894e-13
1.74062e-13
1.70331e-13
1.667e-13
1.63169e-13
1.59734e-13
1.56396e-13
1.53153e-13
1.50003e-13
1.46946e-13
1.43981e-13
1.41105e-13
1.38319e-13
1.35621e-13
1.3301e-13
1.30486e-13
1.28046e-13
1.2569e-13
1.23417e-13
1.21227e-13
1.19118e-13
1.17089e-13
1.15141e-13
1.13271e-13
1.11479e-13
1.09765e-13
1.08127e-13
1.06566e-13
1.05079e-13
1.03668e-13
1.02331e-13
1.01067e-13
9.9877e-14
9.87592e-14
9.77136e-14
9.67396e-14
9.58369e-14
9.50052e-14
9.42439e-14
9.35529e-14
9.29319e-14
9.23805e-14
9.18985e-14
9.14858e-14
9.11421e-14
9.08674e-14
9.06614e-14
9.05242e-14
9.04556e-14
)
;
    }
    Wall
    {
        type            calculated;
        value           nonuniform List<scalar> 
400
(
1.21268e-13
3.63165e-13
6.0358e-13
8.41858e-13
1.07744e-12
1.30982e-12
1.53859e-12
1.76335e-12
1.98378e-12
2.19959e-12
2.41054e-12
2.61643e-12
2.8171e-12
3.01242e-12
3.20228e-12
3.38663e-12
3.56541e-12
3.73862e-12
3.90625e-12
4.06834e-12
4.22492e-12
4.37606e-12
4.52182e-12
4.66229e-12
4.79756e-12
4.92774e-12
5.05292e-12
5.17323e-12
5.28878e-12
5.39968e-12
5.50608e-12
5.60807e-12
5.7058e-12
5.79938e-12
5.88894e-12
5.9746e-12
6.05648e-12
6.1347e-12
6.20937e-12
6.2806e-12
6.34851e-12
6.41321e-12
6.47479e-12
6.53336e-12
6.58902e-12
6.64186e-12
6.69197e-12
6.73944e-12
6.78436e-12
6.82681e-12
6.86686e-12
6.90459e-12
6.94008e-12
6.97339e-12
7.00459e-12
7.03375e-12
7.06092e-12
7.08618e-12
7.10956e-12
7.13113e-12
7.15094e-12
7.16904e-12
7.18548e-12
7.2003e-12
7.21355e-12
7.22527e-12
7.2355e-12
7.24428e-12
7.25165e-12
7.25763e-12
7.26228e-12
7.26562e-12
7.26767e-12
7.26848e-12
7.26808e-12
7.26648e-12
7.26372e-12
7.25983e-12
7.25483e-12
7.24874e-12
7.24159e-12
7.23341e-12
7.22421e-12
7.21401e-12
7.20285e-12
7.19073e-12
7.17768e-12
7.16372e-12
7.14886e-12
7.13313e-12
7.11655e-12
7.09912e-12
7.08087e-12
7.06182e-12
7.04198e-12
7.02137e-12
7e-12
6.97788e-12
6.95505e-12
6.9315e-12
6.90725e-12
6.88233e-12
6.85674e-12
6.83049e-12
6.80361e-12
6.7761e-12
6.74799e-12
6.71927e-12
6.68997e-12
6.6601e-12
6.62967e-12
6.5987e-12
6.56719e-12
6.53517e-12
6.50264e-12
6.46961e-12
6.4361e-12
6.40213e-12
6.3677e-12
6.33282e-12
6.29751e-12
6.26178e-12
6.22564e-12
6.1891e-12
6.15218e-12
6.11488e-12
6.07722e-12
6.03922e-12
6.00087e-12
5.96219e-12
5.9232e-12
5.88391e-12
5.84432e-12
5.80444e-12
5.7643e-12
5.72389e-12
5.68324e-12
5.64234e-12
5.60121e-12
5.55987e-12
5.51832e-12
5.47657e-12
5.43464e-12
5.39253e-12
5.35025e-12
5.30782e-12
5.26524e-12
5.22252e-12
5.17968e-12
5.13672e-12
5.09365e-12
5.05049e-12
5.00724e-12
4.96391e-12
4.92051e-12
4.87705e-12
4.83353e-12
4.78998e-12
4.74639e-12
4.70278e-12
4.65916e-12
4.61552e-12
4.57189e-12
4.52826e-12
4.48466e-12
4.44107e-12
4.39753e-12
4.35402e-12
4.31057e-12
4.26717e-12
4.22383e-12
4.18057e-12
4.13739e-12
4.09429e-12
4.05129e-12
4.00839e-12
3.96559e-12
3.92291e-12
3.88035e-12
3.83792e-12
3.79562e-12
3.75346e-12
3.71145e-12
3.66959e-12
3.62789e-12
3.58635e-12
3.54498e-12
3.50378e-12
3.46276e-12
3.42193e-12
3.38129e-12
3.34085e-12
3.3006e-12
3.26056e-12
3.22073e-12
3.18111e-12
3.14171e-12
3.10254e-12
3.06359e-12
3.02487e-12
2.98639e-12
2.94814e-12
2.91014e-12
2.87238e-12
2.83487e-12
2.79762e-12
2.76062e-12
2.72387e-12
2.68739e-12
2.65118e-12
2.61523e-12
2.57955e-12
2.54414e-12
2.50901e-12
2.47415e-12
2.43957e-12
2.40528e-12
2.37126e-12
2.33754e-12
2.30409e-12
2.27094e-12
2.23808e-12
2.2055e-12
2.17322e-12
2.14123e-12
2.10954e-12
2.07814e-12
2.04704e-12
2.01624e-12
1.98574e-12
1.95553e-12
1.92563e-12
1.89602e-12
1.86672e-12
1.83771e-12
1.80901e-12
1.7806e-12
1.7525e-12
1.7247e-12
1.6972e-12
1.67e-12
1.6431e-12
1.61651e-12
1.59021e-12
1.56421e-12
1.53851e-12
1.51311e-12
1.488e-12
1.46319e-12
1.43868e-12
1.41447e-12
1.39054e-12
1.36691e-12
1.34358e-12
1.32053e-12
1.29777e-12
1.27531e-12
1.25312e-12
1.23123e-12
1.20962e-12
1.18829e-12
1.16725e-12
1.14648e-12
1.126e-12
1.10579e-12
1.08586e-12
1.0662e-12
1.04681e-12
1.0277e-12
1.00885e-12
9.90267e-13
9.71951e-13
9.53898e-13
9.36107e-13
9.18575e-13
9.013e-13
8.84281e-13
8.67515e-13
8.51e-13
8.34735e-13
8.18716e-13
8.02943e-13
7.87413e-13
7.72124e-13
7.57073e-13
7.42259e-13
7.27679e-13
7.13332e-13
6.99215e-13
6.85325e-13
6.71661e-13
6.5822e-13
6.45e-13
6.32e-13
6.19216e-13
6.06646e-13
5.94288e-13
5.8214e-13
5.702e-13
5.58465e-13
5.46934e-13
5.35603e-13
5.2447e-13
5.13534e-13
5.02792e-13
4.92242e-13
4.81882e-13
4.71709e-13
4.61721e-13
4.51916e-13
4.42291e-13
4.32846e-13
4.23576e-13
4.14481e-13
4.05557e-13
3.96804e-13
3.88218e-13
3.79797e-13
3.71541e-13
3.63445e-13
3.55508e-13
3.47729e-13
3.40105e-13
3.32634e-13
3.25314e-13
3.18143e-13
3.11119e-13
3.0424e-13
2.97504e-13
2.90909e-13
2.84454e-13
2.78136e-13
2.71953e-13
2.65904e-13
2.59987e-13
2.542e-13
2.48541e-13
2.43008e-13
2.376e-13
2.32315e-13
2.27152e-13
2.22108e-13
2.17181e-13
2.12372e-13
2.07677e-13
2.03095e-13
1.98624e-13
1.94264e-13
1.90012e-13
1.85867e-13
1.81828e-13
1.77893e-13
1.74061e-13
1.7033e-13
1.667e-13
1.63168e-13
1.59734e-13
1.56395e-13
1.53152e-13
1.50003e-13
1.46946e-13
1.4398e-13
1.41105e-13
1.38319e-13
1.35621e-13
1.3301e-13
1.30485e-13
1.28045e-13
1.25689e-13
1.23417e-13
1.21226e-13
1.19117e-13
1.17089e-13
1.1514e-13
1.1327e-13
1.11479e-13
1.09764e-13
1.08127e-13
1.06565e-13
1.05079e-13
1.03668e-13
1.02331e-13
1.01067e-13
9.98767e-14
9.87589e-14
9.77133e-14
9.67393e-14
9.58366e-14
9.50049e-14
9.42436e-14
9.35526e-14
9.29315e-14
9.23801e-14
9.18982e-14
9.14854e-14
9.11418e-14
9.0867e-14
9.06612e-14
9.05239e-14
9.04552e-14
)
;
    }
}


// ************************************************************************* //
