/*--------------------------------*- C++ -*----------------------------------*\
  =========                 |
  \\      /  F ield         | OpenFOAM: The Open Source CFD Toolbox
   \\    /   O peration     | Website:  https://openfoam.org
    \\  /    A nd           | Version:  10
     \\/     M anipulation  |
\*---------------------------------------------------------------------------*/
FoamFile
{
    format      ascii;
    class       volScalarField;
    location    "0.3";
    object      Exp1;
}
// * * * * * * * * * * * * * * * * * * * * * * * * * * * * * * * * * * * * * //

dimensions      [0 0 0 0 0 0 0];

internalField   uniform 0;

boundaryField
{
    frontAndBack
    {
        type            empty;
    }
    inlet
    {
        type            calculated;
        value           uniform 0;
    }
    outlet
    {
        type            calculated;
        value           uniform 0;
    }
    substrate
    {
        type            calculated;
        value           nonuniform List<scalar> 
400
(
8.79246e-07
2.63279e-06
4.37465e-06
6.0995e-06
7.80266e-06
9.47999e-06
1.11278e-05
1.27428e-05
1.4322e-05
1.5863e-05
1.73635e-05
1.88216e-05
2.02357e-05
2.16045e-05
2.29269e-05
2.42021e-05
2.54294e-05
2.66085e-05
2.77391e-05
2.88213e-05
2.9855e-05
3.08406e-05
3.17784e-05
3.26689e-05
3.35126e-05
3.43101e-05
3.50622e-05
3.57697e-05
3.64333e-05
3.70539e-05
3.76324e-05
3.81698e-05
3.86668e-05
3.91246e-05
3.95439e-05
3.99259e-05
4.02715e-05
4.05816e-05
4.08573e-05
4.10993e-05
4.13088e-05
4.14867e-05
4.16338e-05
4.17511e-05
4.18394e-05
4.18998e-05
4.19331e-05
4.19401e-05
4.19216e-05
4.18786e-05
4.18119e-05
4.17221e-05
4.16103e-05
4.14771e-05
4.13233e-05
4.11496e-05
4.09569e-05
4.07458e-05
4.0517e-05
4.02713e-05
4.00094e-05
3.97319e-05
3.94395e-05
3.91328e-05
3.88126e-05
3.84794e-05
3.81338e-05
3.77766e-05
3.74082e-05
3.70293e-05
3.66405e-05
3.62422e-05
3.58352e-05
3.54199e-05
3.49968e-05
3.45666e-05
3.41297e-05
3.36866e-05
3.32378e-05
3.27838e-05
3.23251e-05
3.18622e-05
3.13954e-05
3.09253e-05
3.04523e-05
2.99768e-05
2.94992e-05
2.902e-05
2.85394e-05
2.8058e-05
2.7576e-05
2.70938e-05
2.66119e-05
2.61304e-05
2.56498e-05
2.51703e-05
2.46923e-05
2.42161e-05
2.37419e-05
2.327e-05
2.28007e-05
2.23343e-05
2.1871e-05
2.1411e-05
2.09545e-05
2.05018e-05
2.0053e-05
1.96084e-05
1.91682e-05
1.87324e-05
1.83014e-05
1.78752e-05
1.74539e-05
1.70378e-05
1.66269e-05
1.62213e-05
1.58213e-05
1.54268e-05
1.50379e-05
1.46548e-05
1.42775e-05
1.39062e-05
1.35407e-05
1.31813e-05
1.28279e-05
1.24806e-05
1.21394e-05
1.18044e-05
1.14755e-05
1.11528e-05
1.08363e-05
1.0526e-05
1.02218e-05
9.9238e-06
9.63194e-06
9.3462e-06
9.06656e-06
8.79299e-06
8.52545e-06
8.2639e-06
8.00829e-06
7.75859e-06
7.51474e-06
7.27668e-06
7.04436e-06
6.81772e-06
6.59669e-06
6.3812e-06
6.1712e-06
5.96659e-06
5.76732e-06
5.57331e-06
5.38448e-06
5.20075e-06
5.02204e-06
4.84826e-06
4.67935e-06
4.51521e-06
4.35575e-06
4.2009e-06
4.05057e-06
3.90467e-06
3.7631e-06
3.6258e-06
3.49266e-06
3.3636e-06
3.23854e-06
3.11738e-06
3.00003e-06
2.88643e-06
2.77646e-06
2.67006e-06
2.56713e-06
2.46759e-06
2.37135e-06
2.27834e-06
2.18847e-06
2.10165e-06
2.01782e-06
1.93688e-06
1.85877e-06
1.7834e-06
1.71069e-06
1.64058e-06
1.57298e-06
1.50783e-06
1.44505e-06
1.38458e-06
1.32634e-06
1.27027e-06
1.2163e-06
1.16437e-06
1.1144e-06
1.06635e-06
1.02015e-06
9.75734e-07
9.33051e-07
8.92042e-07
8.52651e-07
8.14825e-07
7.7851e-07
7.43655e-07
7.1021e-07
6.78124e-07
6.47352e-07
6.17846e-07
5.89561e-07
5.62454e-07
5.36481e-07
5.11602e-07
4.87775e-07
4.64963e-07
4.43126e-07
4.22229e-07
4.02235e-07
3.8311e-07
3.64821e-07
3.47334e-07
3.3062e-07
3.14647e-07
2.99386e-07
2.84808e-07
2.70887e-07
2.57595e-07
2.44908e-07
2.32799e-07
2.21247e-07
2.10226e-07
1.99716e-07
1.89695e-07
1.80142e-07
1.71038e-07
1.62362e-07
1.54098e-07
1.46226e-07
1.38731e-07
1.31594e-07
1.24802e-07
1.18338e-07
1.12188e-07
1.06338e-07
1.00774e-07
9.54843e-08
9.04554e-08
8.56757e-08
8.11338e-08
7.68188e-08
7.27202e-08
6.88278e-08
6.51322e-08
6.1624e-08
5.82944e-08
5.51349e-08
5.21375e-08
4.92943e-08
4.6598e-08
4.40416e-08
4.16181e-08
3.93212e-08
3.71446e-08
3.50825e-08
3.31292e-08
3.12793e-08
2.95276e-08
2.78693e-08
2.62997e-08
2.48144e-08
2.3409e-08
2.20795e-08
2.0822e-08
1.96329e-08
1.85086e-08
1.74458e-08
1.64414e-08
1.54922e-08
1.45955e-08
1.37484e-08
1.29484e-08
1.21929e-08
1.14797e-08
1.08065e-08
1.01711e-08
9.57154e-09
9.00589e-09
8.47233e-09
7.96912e-09
7.49461e-09
7.04725e-09
6.62556e-09
6.22812e-09
5.85361e-09
5.50077e-09
5.16839e-09
4.85535e-09
4.56056e-09
4.28302e-09
4.02175e-09
3.77584e-09
3.54442e-09
3.32669e-09
3.12185e-09
2.92919e-09
2.748e-09
2.57763e-09
2.41746e-09
2.26691e-09
2.12541e-09
1.99245e-09
1.86753e-09
1.75018e-09
1.63996e-09
1.53646e-09
1.43928e-09
1.34805e-09
1.26241e-09
1.18204e-09
1.10663e-09
1.03588e-09
9.69507e-10
9.07258e-10
8.48883e-10
7.9415e-10
7.42838e-10
6.94742e-10
6.49667e-10
6.07429e-10
5.67856e-10
5.30786e-10
4.96065e-10
4.63549e-10
4.33103e-10
4.046e-10
3.77919e-10
3.52948e-10
3.2958e-10
3.07717e-10
2.87263e-10
2.68132e-10
2.5024e-10
2.3351e-10
2.17868e-10
2.03246e-10
1.89579e-10
1.76807e-10
1.64873e-10
1.53724e-10
1.4331e-10
1.33583e-10
1.245e-10
1.1602e-10
1.08103e-10
1.00713e-10
9.38173e-11
8.73826e-11
8.13795e-11
7.57799e-11
7.05575e-11
6.56879e-11
6.11479e-11
5.6916e-11
5.29721e-11
4.92973e-11
4.58739e-11
4.26855e-11
3.97165e-11
3.69525e-11
3.438e-11
3.19865e-11
2.976e-11
2.76898e-11
2.57654e-11
2.39772e-11
2.23165e-11
2.07747e-11
1.93443e-11
1.80178e-11
1.67887e-11
1.56506e-11
1.45978e-11
1.36248e-11
1.27267e-11
1.18989e-11
1.1137e-11
1.04371e-11
9.79554e-12
9.20902e-12
8.67447e-12
8.18906e-12
7.75027e-12
7.35577e-12
7.00348e-12
6.69155e-12
6.41832e-12
6.18234e-12
5.98236e-12
5.81732e-12
5.68633e-12
5.5887e-12
5.52389e-12
5.49157e-12
)
;
    }
    Wall
    {
        type            calculated;
        value           nonuniform List<scalar> 
400
(
8.79248e-07
2.63281e-06
4.37471e-06
6.09958e-06
7.80276e-06
9.48009e-06
1.11279e-05
1.27429e-05
1.43221e-05
1.58631e-05
1.73635e-05
1.88216e-05
2.02357e-05
2.16044e-05
2.29268e-05
2.42019e-05
2.54292e-05
2.66082e-05
2.77388e-05
2.88209e-05
2.98546e-05
3.08402e-05
3.17779e-05
3.26684e-05
3.3512e-05
3.43095e-05
3.50616e-05
3.5769e-05
3.64326e-05
3.70532e-05
3.76317e-05
3.8169e-05
3.8666e-05
3.91237e-05
3.95431e-05
3.9925e-05
4.02706e-05
4.05807e-05
4.08563e-05
4.10984e-05
4.13078e-05
4.14856e-05
4.16327e-05
4.175e-05
4.18384e-05
4.18987e-05
4.1932e-05
4.19389e-05
4.19205e-05
4.18775e-05
4.18107e-05
4.1721e-05
4.16091e-05
4.14759e-05
4.13221e-05
4.11485e-05
4.09557e-05
4.07446e-05
4.05158e-05
4.02701e-05
4.00082e-05
3.97307e-05
3.94383e-05
3.91316e-05
3.88114e-05
3.84782e-05
3.81327e-05
3.77754e-05
3.74071e-05
3.70282e-05
3.66393e-05
3.62411e-05
3.58341e-05
3.54188e-05
3.49958e-05
3.45655e-05
3.41286e-05
3.36855e-05
3.32367e-05
3.27828e-05
3.23241e-05
3.18612e-05
3.13944e-05
3.09244e-05
3.04514e-05
2.99759e-05
2.94983e-05
2.90191e-05
2.85385e-05
2.80571e-05
2.75751e-05
2.7093e-05
2.6611e-05
2.61295e-05
2.56489e-05
2.51695e-05
2.46915e-05
2.42153e-05
2.37411e-05
2.32693e-05
2.28e-05
2.23336e-05
2.18703e-05
2.14103e-05
2.09538e-05
2.05011e-05
2.00524e-05
1.96078e-05
1.91676e-05
1.87318e-05
1.83008e-05
1.78746e-05
1.74533e-05
1.70372e-05
1.66263e-05
1.62208e-05
1.58207e-05
1.54263e-05
1.50374e-05
1.46544e-05
1.42771e-05
1.39057e-05
1.35403e-05
1.31809e-05
1.28275e-05
1.24802e-05
1.21391e-05
1.1804e-05
1.14752e-05
1.11525e-05
1.0836e-05
1.05256e-05
1.02215e-05
9.92349e-06
9.63164e-06
9.34591e-06
9.06628e-06
8.79272e-06
8.52518e-06
8.26364e-06
8.00805e-06
7.75836e-06
7.51451e-06
7.27647e-06
7.04415e-06
6.81752e-06
6.59649e-06
6.38101e-06
6.17101e-06
5.96642e-06
5.76715e-06
5.57315e-06
5.38432e-06
5.20059e-06
5.02189e-06
4.84813e-06
4.67922e-06
4.51508e-06
4.35563e-06
4.20079e-06
4.05046e-06
3.90456e-06
3.763e-06
3.6257e-06
3.49256e-06
3.36351e-06
3.23845e-06
3.11729e-06
2.99995e-06
2.88635e-06
2.77639e-06
2.66999e-06
2.56706e-06
2.46752e-06
2.37129e-06
2.27828e-06
2.18841e-06
2.1016e-06
2.01777e-06
1.93684e-06
1.85872e-06
1.78335e-06
1.71065e-06
1.64054e-06
1.57294e-06
1.50779e-06
1.44502e-06
1.38455e-06
1.32631e-06
1.27024e-06
1.21627e-06
1.16434e-06
1.11438e-06
1.06633e-06
1.02013e-06
9.75713e-07
9.33031e-07
8.92023e-07
8.52634e-07
8.14808e-07
7.78494e-07
7.4364e-07
7.10195e-07
6.78111e-07
6.4734e-07
6.17834e-07
5.8955e-07
5.62444e-07
5.36471e-07
5.11593e-07
4.87767e-07
4.64955e-07
4.43118e-07
4.22221e-07
4.02228e-07
3.83103e-07
3.64814e-07
3.47329e-07
3.30614e-07
3.14642e-07
2.99381e-07
2.84804e-07
2.70883e-07
2.57591e-07
2.44904e-07
2.32796e-07
2.21244e-07
2.10224e-07
1.99714e-07
1.89693e-07
1.8014e-07
1.71036e-07
1.6236e-07
1.54096e-07
1.46224e-07
1.38729e-07
1.31593e-07
1.24801e-07
1.18337e-07
1.12187e-07
1.06337e-07
1.00773e-07
9.54833e-08
9.04545e-08
8.56749e-08
8.11331e-08
7.68181e-08
7.27196e-08
6.88273e-08
6.51317e-08
6.16235e-08
5.8294e-08
5.51345e-08
5.21371e-08
4.9294e-08
4.65978e-08
4.40413e-08
4.16179e-08
3.9321e-08
3.71444e-08
3.50823e-08
3.3129e-08
3.12791e-08
2.95275e-08
2.78693e-08
2.62997e-08
2.48143e-08
2.34089e-08
2.20794e-08
2.08219e-08
1.96328e-08
1.85086e-08
1.74458e-08
1.64414e-08
1.54922e-08
1.45955e-08
1.37484e-08
1.29484e-08
1.21929e-08
1.14797e-08
1.08065e-08
1.01711e-08
9.57156e-09
9.00592e-09
8.47236e-09
7.96915e-09
7.49464e-09
7.04728e-09
6.62558e-09
6.22815e-09
5.85364e-09
5.5008e-09
5.16842e-09
4.85538e-09
4.56059e-09
4.28305e-09
4.02178e-09
3.77587e-09
3.54445e-09
3.32671e-09
3.12188e-09
2.92921e-09
2.74802e-09
2.57765e-09
2.41749e-09
2.26693e-09
2.12543e-09
1.99247e-09
1.86755e-09
1.7502e-09
1.63998e-09
1.53648e-09
1.4393e-09
1.34806e-09
1.26243e-09
1.18206e-09
1.10664e-09
1.03589e-09
9.69521e-10
9.07271e-10
8.48896e-10
7.94162e-10
7.4285e-10
6.94753e-10
6.49677e-10
6.07439e-10
5.67866e-10
5.30795e-10
4.96073e-10
4.63557e-10
4.33111e-10
4.04607e-10
3.77926e-10
3.52955e-10
3.29587e-10
3.07723e-10
2.87269e-10
2.68138e-10
2.50246e-10
2.33515e-10
2.17873e-10
2.0325e-10
1.89583e-10
1.76811e-10
1.64877e-10
1.53728e-10
1.43313e-10
1.33586e-10
1.24503e-10
1.16022e-10
1.08105e-10
1.00716e-10
9.38197e-11
8.73849e-11
8.13817e-11
7.57819e-11
7.05595e-11
6.56897e-11
6.11496e-11
5.69177e-11
5.29737e-11
4.92988e-11
4.58753e-11
4.26868e-11
3.97177e-11
3.69536e-11
3.43811e-11
3.19875e-11
2.9761e-11
2.76907e-11
2.57662e-11
2.3978e-11
2.23172e-11
2.07754e-11
1.93449e-11
1.80184e-11
1.67893e-11
1.56512e-11
1.45983e-11
1.36253e-11
1.27272e-11
1.18993e-11
1.11374e-11
1.04374e-11
9.79589e-12
9.20936e-12
8.67478e-12
8.18936e-12
7.75055e-12
7.35604e-12
7.00374e-12
6.6918e-12
6.41856e-12
6.18258e-12
5.9826e-12
5.81756e-12
5.68656e-12
5.58891e-12
5.52406e-12
5.4917e-12
)
;
    }
}


// ************************************************************************* //
