/*--------------------------------*- C++ -*----------------------------------*\
  =========                 |
  \\      /  F ield         | OpenFOAM: The Open Source CFD Toolbox
   \\    /   O peration     | Website:  https://openfoam.org
    \\  /    A nd           | Version:  10
     \\/     M anipulation  |
\*---------------------------------------------------------------------------*/
FoamFile
{
    format      ascii;
    class       volScalarField;
    location    "0.3";
    object      growth;
}
// * * * * * * * * * * * * * * * * * * * * * * * * * * * * * * * * * * * * * //

dimensions      [0 0 0 0 0 0 0];

internalField   uniform 0;

boundaryField
{
    frontAndBack
    {
        type            empty;
    }
    inlet
    {
        type            calculated;
        value           uniform 0;
    }
    outlet
    {
        type            calculated;
        value           uniform 0;
    }
    substrate
    {
        type            calculated;
        value           nonuniform List<scalar> 
400
(
0.734672
0.712423
0.691343
0.670893
0.650818
0.630992
0.611354
0.591881
0.572571
0.553432
0.534484
0.515749
0.497253
0.479022
0.461082
0.44346
0.426178
0.409259
0.392722
0.376585
0.360862
0.345566
0.330707
0.316293
0.302328
0.288817
0.27576
0.263157
0.251005
0.2393
0.228039
0.217213
0.206816
0.196839
0.187274
0.17811
0.169337
0.160944
0.152919
0.145253
0.137933
0.130947
0.124283
0.117931
0.111878
0.106113
0.100624
0.0954007
0.0904319
0.0857069
0.0812153
0.076947
0.0728921
0.069041
0.0653846
0.0619139
0.0586203
0.0554954
0.0525314
0.0497204
0.0470552
0.0445287
0.042134
0.0398647
0.0377145
0.0356776
0.0337481
0.0319208
0.0301903
0.0285518
0.0270006
0.0255322
0.0241422
0.0228267
0.0215817
0.0204037
0.019289
0.0182344
0.0172367
0.0162928
0.0154
0.0145556
0.0137569
0.0130016
0.0122873
0.0116118
0.0109731
0.0103691
0.00979811
0.00925823
0.00874783
0.00826531
0.00780916
0.00737797
0.00697037
0.0065851
0.00622095
0.00587676
0.00555146
0.00524401
0.00495345
0.00467886
0.00441937
0.00417414
0.00394242
0.00372345
0.00351654
0.00332104
0.00313631
0.00296177
0.00279687
0.00264107
0.00249387
0.00235481
0.00222343
0.00209932
0.00198207
0.00187132
0.0017667
0.00166787
0.00157452
0.00148635
0.00140306
0.0013244
0.00125011
0.00117994
0.00111367
0.00105109
0.000991982
0.000936167
0.00088346
0.000833688
0.00078669
0.000742313
0.000700411
0.000660847
0.000623493
0.000588226
0.00055493
0.000523497
0.000493822
0.00046581
0.000439366
0.000414405
0.000390845
0.000368606
0.000347617
0.000327807
0.000309111
0.000291467
0.000274816
0.000259104
0.000244277
0.000230287
0.000217086
0.000204632
0.000192882
0.000181796
0.000171338
0.000161473
0.000152167
0.000143389
0.00013511
0.000127302
0.000119937
0.000112992
0.000106443
0.000100267
9.44437e-05
8.89531e-05
8.37763e-05
7.88958e-05
7.42949e-05
6.99577e-05
6.58694e-05
6.20159e-05
5.8384e-05
5.4961e-05
5.17353e-05
4.86955e-05
4.58311e-05
4.31323e-05
4.05894e-05
3.81938e-05
3.59371e-05
3.38112e-05
3.18087e-05
2.99227e-05
2.81464e-05
2.64736e-05
2.48983e-05
2.3415e-05
2.20184e-05
2.07035e-05
1.94657e-05
1.83004e-05
1.72035e-05
1.61711e-05
1.51995e-05
1.42851e-05
1.34246e-05
1.26149e-05
1.18531e-05
1.11364e-05
1.04622e-05
9.828e-06
9.23146e-06
8.67041e-06
8.14277e-06
7.64659e-06
7.18004e-06
6.74138e-06
6.32897e-06
5.94129e-06
5.57686e-06
5.23434e-06
4.91242e-06
4.6099e-06
4.32562e-06
4.05851e-06
3.80756e-06
3.57181e-06
3.35036e-06
3.14235e-06
2.94699e-06
2.76352e-06
2.59124e-06
2.42947e-06
2.2776e-06
2.13502e-06
2.00119e-06
1.87557e-06
1.75767e-06
1.64702e-06
1.5432e-06
1.44579e-06
1.3544e-06
1.26866e-06
1.18824e-06
1.11281e-06
1.04207e-06
9.75735e-07
9.13533e-07
8.55214e-07
8.00541e-07
7.4929e-07
7.01253e-07
6.56231e-07
6.1404e-07
5.74505e-07
5.37463e-07
5.0276e-07
4.70251e-07
4.39801e-07
4.11282e-07
3.84574e-07
3.59565e-07
3.36149e-07
3.14226e-07
2.93703e-07
2.74494e-07
2.56515e-07
2.39689e-07
2.23945e-07
2.09214e-07
1.95431e-07
1.82539e-07
1.70479e-07
1.592e-07
1.48652e-07
1.38789e-07
1.29567e-07
1.20946e-07
1.12886e-07
1.05353e-07
9.8312e-08
9.17324e-08
8.55843e-08
7.984e-08
7.44735e-08
6.94606e-08
6.47783e-08
6.04054e-08
5.63218e-08
5.25088e-08
4.89488e-08
4.56254e-08
4.25232e-08
3.96277e-08
3.69255e-08
3.4404e-08
3.20513e-08
2.98563e-08
2.78087e-08
2.58988e-08
2.41175e-08
2.24563e-08
2.09074e-08
1.94632e-08
1.81168e-08
1.68618e-08
1.5692e-08
1.46019e-08
1.3586e-08
1.26394e-08
1.17575e-08
1.0936e-08
1.01708e-08
9.4581e-09
8.7944e-09
8.17639e-09
7.60099e-09
7.06532e-09
6.56669e-09
6.10258e-09
5.67066e-09
5.26874e-09
4.89477e-09
4.54685e-09
4.2232e-09
3.92216e-09
3.64218e-09
3.38181e-09
3.13972e-09
2.91463e-09
2.70538e-09
2.51088e-09
2.33011e-09
2.16211e-09
2.00601e-09
1.86097e-09
1.72622e-09
1.60106e-09
1.4848e-09
1.37684e-09
1.27658e-09
1.18349e-09
1.09707e-09
1.01685e-09
9.42389e-10
8.73283e-10
8.09156e-10
7.49655e-10
6.94452e-10
6.43243e-10
5.95745e-10
5.51694e-10
5.10844e-10
4.72968e-10
4.37853e-10
4.05301e-10
3.7513e-10
3.47168e-10
3.21257e-10
2.9725e-10
2.75009e-10
2.54408e-10
2.35327e-10
2.17658e-10
2.01298e-10
1.86153e-10
1.72134e-10
1.59159e-10
1.47154e-10
1.36047e-10
1.25774e-10
1.16273e-10
1.07488e-10
9.93684e-11
9.18646e-11
8.49321e-11
7.85295e-11
7.26185e-11
6.71633e-11
6.21313e-11
5.74918e-11
5.32168e-11
4.92802e-11
4.56582e-11
4.23284e-11
3.92706e-11
3.6466e-11
3.38972e-11
3.15485e-11
2.94053e-11
2.74542e-11
2.56833e-11
2.40815e-11
2.26387e-11
2.1346e-11
2.01953e-11
1.91794e-11
1.82918e-11
1.75271e-11
1.68803e-11
1.63475e-11
1.59252e-11
1.56108e-11
1.54023e-11
1.52984e-11
)
;
    }
    Wall
    {
        type            calculated;
        value           nonuniform List<scalar> 
400
(
0.734672
0.712422
0.691343
0.670894
0.650818
0.630991
0.611354
0.591881
0.57257
0.553432
0.534484
0.515749
0.497253
0.479022
0.461083
0.443461
0.42618
0.409261
0.392724
0.376587
0.360865
0.345569
0.330711
0.316297
0.302332
0.288821
0.275764
0.263161
0.251009
0.239305
0.228044
0.217218
0.206821
0.196844
0.187279
0.178115
0.169342
0.160949
0.152924
0.145258
0.137938
0.130951
0.124288
0.117935
0.111882
0.106117
0.100628
0.0954049
0.090436
0.0857109
0.0812192
0.0769507
0.0728956
0.0690445
0.0653879
0.0619171
0.0586233
0.0554984
0.0525342
0.0497231
0.0470578
0.0445312
0.0421364
0.039867
0.0377167
0.0356796
0.0337501
0.0319226
0.0301921
0.0285535
0.0270022
0.0255337
0.0241436
0.022828
0.021583
0.0204049
0.0192901
0.0182355
0.0172377
0.0162938
0.0154009
0.0145564
0.0137577
0.0130023
0.012288
0.0116125
0.0109737
0.0103697
0.00979866
0.00925875
0.00874831
0.00826576
0.00780959
0.00737837
0.00697075
0.00658545
0.00622128
0.00587707
0.00555175
0.00524428
0.0049537
0.00467909
0.00441958
0.00417434
0.0039426
0.00372362
0.0035167
0.00332119
0.00313645
0.0029619
0.00279699
0.00264118
0.00249397
0.0023549
0.00222352
0.0020994
0.00198215
0.00187139
0.00176676
0.00166793
0.00157458
0.0014864
0.00140311
0.00132445
0.00125015
0.00117998
0.0011137
0.00105112
0.000992011
0.000936194
0.000883485
0.000833711
0.000786712
0.000742332
0.000700429
0.000660864
0.000623508
0.00058824
0.000554943
0.000523509
0.000493833
0.00046582
0.000439376
0.000414414
0.000390853
0.000368613
0.000347623
0.000327813
0.000309116
0.000291472
0.000274821
0.000259108
0.000244281
0.00023029
0.00021709
0.000204635
0.000192884
0.000181799
0.000171341
0.000161475
0.000152169
0.000143391
0.000135112
0.000127303
0.000119939
0.000112994
0.000106444
0.000100268
9.44448e-05
8.8954e-05
8.37772e-05
7.88966e-05
7.42956e-05
6.99584e-05
6.587e-05
6.20165e-05
5.83845e-05
5.49616e-05
5.17357e-05
4.86959e-05
4.58315e-05
4.31326e-05
4.05898e-05
3.81942e-05
3.59374e-05
3.38115e-05
3.1809e-05
2.99229e-05
2.81466e-05
2.64738e-05
2.48985e-05
2.34152e-05
2.20186e-05
2.07037e-05
1.94658e-05
1.83005e-05
1.72037e-05
1.61713e-05
1.51996e-05
1.42852e-05
1.34247e-05
1.2615e-05
1.18532e-05
1.11365e-05
1.04623e-05
9.82809e-06
9.23154e-06
8.67049e-06
8.14284e-06
7.64666e-06
7.18011e-06
6.74144e-06
6.32903e-06
5.94134e-06
5.57692e-06
5.23439e-06
4.91247e-06
4.60994e-06
4.32566e-06
4.05856e-06
3.80761e-06
3.57185e-06
3.35039e-06
3.14238e-06
2.94702e-06
2.76355e-06
2.59127e-06
2.4295e-06
2.27763e-06
2.13505e-06
2.00121e-06
1.87559e-06
1.75769e-06
1.64705e-06
1.54322e-06
1.44581e-06
1.35441e-06
1.26868e-06
1.18826e-06
1.11283e-06
1.04209e-06
9.75749e-07
9.13546e-07
8.55227e-07
8.00553e-07
7.49302e-07
7.01264e-07
6.56241e-07
6.1405e-07
5.74515e-07
5.37472e-07
5.02768e-07
4.70259e-07
4.39809e-07
4.11289e-07
3.84581e-07
3.59571e-07
3.36155e-07
3.14231e-07
2.93709e-07
2.74499e-07
2.5652e-07
2.39694e-07
2.23949e-07
2.09218e-07
1.95435e-07
1.82542e-07
1.70483e-07
1.59204e-07
1.48656e-07
1.38792e-07
1.2957e-07
1.20948e-07
1.12888e-07
1.05355e-07
9.83142e-08
9.17345e-08
8.55863e-08
7.98419e-08
7.44753e-08
6.94622e-08
6.47798e-08
6.04068e-08
5.63231e-08
5.25101e-08
4.895e-08
4.56265e-08
4.25242e-08
3.96287e-08
3.69265e-08
3.44049e-08
3.20521e-08
2.98571e-08
2.78095e-08
2.58995e-08
2.41182e-08
2.2457e-08
2.0908e-08
1.94637e-08
1.81173e-08
1.68623e-08
1.56925e-08
1.46023e-08
1.35864e-08
1.26398e-08
1.17579e-08
1.09363e-08
1.01711e-08
9.4584e-09
8.79468e-09
8.17665e-09
7.60124e-09
7.06555e-09
6.5669e-09
6.10279e-09
5.67085e-09
5.26892e-09
4.89494e-09
4.54701e-09
4.22335e-09
3.9223e-09
3.64231e-09
3.38193e-09
3.13983e-09
2.91474e-09
2.70548e-09
2.51098e-09
2.3302e-09
2.16219e-09
2.00608e-09
1.86104e-09
1.72629e-09
1.60112e-09
1.48486e-09
1.37689e-09
1.27663e-09
1.18354e-09
1.09712e-09
1.01689e-09
9.42428e-10
8.7332e-10
8.0919e-10
7.49686e-10
6.94481e-10
6.43271e-10
5.95771e-10
5.51718e-10
5.10867e-10
4.72989e-10
4.37872e-10
4.05319e-10
3.75147e-10
3.47184e-10
3.21272e-10
2.97263e-10
2.75022e-10
2.5442e-10
2.35338e-10
2.17669e-10
2.01308e-10
1.86162e-10
1.72142e-10
1.59167e-10
1.47161e-10
1.36054e-10
1.2578e-10
1.16279e-10
1.07494e-10
9.93735e-11
9.18693e-11
8.49365e-11
7.85336e-11
7.26223e-11
6.71669e-11
6.21346e-11
5.74948e-11
5.32196e-11
4.92829e-11
4.56606e-11
4.23307e-11
3.92728e-11
3.6468e-11
3.38991e-11
3.15502e-11
2.94069e-11
2.74557e-11
2.56847e-11
2.40828e-11
2.26399e-11
2.13472e-11
2.01964e-11
1.91804e-11
1.82928e-11
1.7528e-11
1.68813e-11
1.63484e-11
1.59262e-11
1.56117e-11
1.5403e-11
1.52989e-11
)
;
    }
}


// ************************************************************************* //
