/*--------------------------------*- C++ -*----------------------------------*\
  =========                 |
  \\      /  F ield         | OpenFOAM: The Open Source CFD Toolbox
   \\    /   O peration     | Website:  https://openfoam.org
    \\  /    A nd           | Version:  10
     \\/     M anipulation  |
\*---------------------------------------------------------------------------*/
FoamFile
{
    format      ascii;
    class       surfaceScalarField;
    location    "1";
    object      phi;
}
// * * * * * * * * * * * * * * * * * * * * * * * * * * * * * * * * * * * * * //

dimensions      [1 0 -1 0 0 0 0];

internalField   nonuniform List<scalar> 
10325
(
0.00840003
2.64522e-11
0.00840003
7.13872e-11
0.00840002
5.4697e-10
0.00840005
6.80338e-10
0.00839994
3.89264e-09
0.00840017
5.73002e-09
0.00839938
2.18902e-08
0.00840106
4.60135e-08
0.00839612
1.21746e-07
0.00840472
3.35533e-07
0.00838369
7.5605e-07
0.00840137
2.25689e-06
0.00835383
6.12818e-06
0.00832546
2.03861e-05
0.00812836
7.7602e-05
0.0073861
0.000405809
0.00678869
0.00067975
0.00619011
0.000650395
0.00552374
0.000691218
0.00477684
0.000754331
0.00392906
0.000831762
0.00302248
0.000903544
0.00205951
0.000956595
0.00104652
0.000990216
0.000981805
0.00840003
3.67455e-11
0.00840003
1.92806e-10
0.00840003
7.87145e-10
0.00840001
1.87649e-09
0.00840003
5.79962e-09
0.00839996
1.32464e-08
0.00839988
3.62748e-08
0.00839993
8.84157e-08
0.00839835
2.33415e-07
0.00839992
5.82728e-07
0.00839189
1.55565e-06
0.0083914
4.1099e-06
0.0083663
1.19369e-05
0.0083251
3.80147e-05
0.0081496
0.000144592
0.00749301
0.000735572
0.00686603
0.0013752
0.00623196
0.00133154
0.0055474
0.00139862
0.00479145
0.00151667
0.00392834
0.00167613
0.00301056
0.0018157
0.00204178
0.0019177
0.00103008
0.00197902
0.00194772
0.00840003
4.83356e-11
0.00840003
3.14806e-10
0.00840004
1.05139e-09
0.0084
3.09695e-09
0.00840005
7.9411e-09
0.00839994
2.04734e-08
0.00839993
5.14683e-08
0.00839988
1.27107e-07
0.00839867
3.23221e-07
0.00839978
8.05258e-07
0.00839355
2.08245e-06
0.0083926
5.44912e-06
0.00837327
1.54696e-05
0.00834028
4.86623e-05
0.00820783
0.000181384
0.0077483
0.000908037
0.00704928
0.0020895
0.00632913
0.00207845
0.00561233
0.00213236
0.00484474
0.0022881
0.00397318
0.00252436
0.0030463
0.00273226
0.0020682
0.00288592
0.00104452
0.00297982
0.00292983
0.00840003
6.34993e-11
0.00840003
4.06196e-10
0.00840004
1.37129e-09
0.00840001
3.97958e-09
0.00840004
1.02771e-08
0.00839995
2.63615e-08
0.00839993
6.59385e-08
0.0083999
1.62712e-07
0.00839879
4.09244e-07
0.00839994
1.01358e-06
0.00839438
2.57922e-06
0.0083948
6.63702e-06
0.00838012
1.8309e-05
0.00835911
5.56021e-05
0.00828845
0.000195761
0.00808238
0.00092152
0.00724618
0.00286678
0.00644089
0.00288704
0.00570134
0.00288651
0.00493275
0.00305935
0.00406047
0.00336846
0.00312794
0.00365055
0.00213494
0.00386731
0.00108425
0.0040089
0.00395385
0.00840003
7.5873e-11
0.00840003
4.94958e-10
0.00840003
1.63793e-09
0.00840001
4.81137e-09
0.00840004
1.23647e-08
0.00839996
3.16866e-08
0.00839993
7.87239e-08
0.00839993
1.94844e-07
0.00839879
4.89494e-07
0.00840018
1.20704e-06
0.00839443
3.06365e-06
0.00839616
7.82831e-06
0.0083819
2.13289e-05
0.00836419
6.38449e-05
0.00830409
0.000219084
0.00810545
0.000999304
0.00734311
0.00348868
0.00652772
0.00367803
0.00579724
0.00362762
0.00505021
0.00380845
0.00418462
0.00420431
0.00325479
0.0045644
0.00224979
0.0048604
0.00115697
0.00508115
0.00505283
0.00840003
9.08424e-11
0.00840003
5.65618e-10
0.00840003
1.95461e-09
0.00840002
5.52497e-09
0.00840003
1.45432e-08
0.00839998
3.6615e-08
0.00839989
9.15091e-08
0.00840007
2.25873e-07
0.00839849
5.65111e-07
0.00840105
1.39093e-06
0.00839316
3.50366e-06
0.00839893
8.92476e-06
0.00838103
2.39994e-05
0.00836957
7.10187e-05
0.00832074
0.000239753
0.00815278
0.00106327
0.00740447
0.00409549
0.00658
0.00446583
0.00591709
0.0043065
0.00520302
0.00452819
0.00434987
0.00502324
0.00342916
0.00546749
0.0024047
0.00587073
0.00126042
0.00620281
0.00625696
0.00840003
1.03943e-10
0.00840003
6.45326e-10
0.00840003
2.23453e-09
0.00840002
6.31709e-09
0.00840002
1.65294e-08
0.0084
4.19127e-08
0.00839985
1.04651e-07
0.00840021
2.59449e-07
0.00839818
6.44716e-07
0.00840189
1.59669e-06
0.00839169
3.99876e-06
0.00840134
1.0159e-05
0.00837842
2.72225e-05
0.00837116
7.93294e-05
0.00831436
0.000264098
0.00817851
0.00111359
0.00740315
0.00473099
0.00678896
0.00502975
0.00611951
0.00499924
0.00536578
0.00528657
0.00456507
0.00578276
0.00366898
0.00634283
0.00263897
0.00688656
0.00143264
0.00739182
0.00763739
0.00840003
1.11321e-10
0.00840003
7.16241e-10
0.00840003
2.39372e-09
0.00840002
7.03228e-09
0.00840002
1.785e-08
0.00840001
4.64282e-08
0.00839981
1.1572e-07
0.00840034
2.81478e-07
0.00839796
7.27559e-07
0.00840264
1.70176e-06
0.00839065
4.51082e-06
0.00840387
1.09087e-05
0.00837695
2.9825e-05
0.00837395
8.50585e-05
0.00833693
0.000282149
0.00822688
0.00113811
0.00755393
0.00523193
0.00696367
0.00560879
0.00633529
0.00562929
0.0056076
0.00600092
0.00484583
0.00649727
0.00399321
0.007178
0.0029677
0.00790805
0.00169952
0.00865138
0.0092891
0.00840003
1.47795e-10
0.00840003
6.72212e-10
0.00840002
2.96023e-09
0.00840004
6.52187e-09
0.00839997
2.18885e-08
0.00840014
4.36451e-08
0.00839958
1.39136e-07
0.00840087
2.74703e-07
0.0083973
8.46988e-07
0.00840474
1.73165e-06
0.00838725
5.08639e-06
0.00841056
1.14595e-05
0.00836983
3.23509e-05
0.00838485
8.95038e-05
0.00832675
0.000293998
0.00825943
0.00114529
0.00774478
0.00553658
0.00713243
0.00622371
0.00654318
0.00621778
0.00592108
0.00660533
0.00521997
0.00716907
0.00444321
0.00795488
0.00352637
0.00883183
0.00219031
0.00999342
0.0114416
0.00840003
1.08536e-10
0.00840003
8.59486e-10
0.00840003
2.52605e-09
0.00840003
8.43919e-09
0.00840002
1.88345e-08
0.00839998
5.67708e-08
0.00840005
1.17913e-07
0.00839948
3.57699e-07
0.00840068
7.23009e-07
0.00839635
2.20091e-06
0.00840302
4.59861e-06
0.00838684
1.33494e-05
0.00839637
3.21701e-05
0.00836564
9.45539e-05
0.00834821
0.000298074
0.00828508
0.00113306
0.00803095
0.00555586
0.00743544
0.0068434
0.00685837
0.00680861
0.00634369
0.00711518
0.0057572
0.00772703
0.00514759
0.00854903
0.00430759
0.00966455
0.00300003
0.0112908
0.0144104
0.00840003
1.36499e-10
0.00840003
7.25286e-10
0.00840003
2.80679e-09
0.00840002
7.05981e-09
0.00840002
2.11792e-08
0.00840002
4.67047e-08
0.00839989
1.37666e-07
0.00840022
2.90198e-07
0.00839866
8.65341e-07
0.00840181
1.81024e-06
0.00839293
5.34714e-06
0.00840434
1.19776e-05
0.00838051
3.39676e-05
0.00838775
9.1178e-05
0.00835659
0.000291378
0.0083649
0.00107475
0.00858349
0.00508644
0.00798463
0.00747294
0.00733366
0.00746597
0.00684008
0.00758638
0.00637776
0.00814869
0.00595223
0.00895749
0.00561632
0.00999755
0.00566698
0.011248
0.0114797
0.00858478
0.00840003
9.25746e-11
0.00840003
7.00475e-10
0.00840003
2.14394e-09
0.00840004
6.94209e-09
0.00840002
1.60305e-08
0.00840002
4.71678e-08
0.00840003
1.0202e-07
0.00839979
2.97995e-07
0.00840041
6.40054e-07
0.00839809
1.85394e-06
0.00840245
4.09977e-06
0.00839303
1.15268e-05
0.00840365
2.80344e-05
0.00839291
8.00344e-05
0.00842599
0.000241582
0.00856789
0.00087111
0.00952301
0.00385155
0.00883815
0.0081739
0.00803253
0.00828666
0.00754702
0.00806679
0.00716003
0.00852469
0.00687598
0.00923611
0.00683149
0.0100531
0.00729942
0.0108087
0.0106178
0.00818265
0.00840003
1.03069e-10
0.00840003
5.14509e-10
0.00840003
2.13453e-09
0.00840003
5.0637e-09
0.00840001
1.58129e-08
0.00840008
3.44753e-08
0.00839986
9.97176e-08
0.00840046
2.17789e-07
0.00839884
6.07892e-07
0.00840292
1.37157e-06
0.00839395
3.67669e-06
0.00841233
8.77538e-06
0.00838587
2.2938e-05
0.00842982
6.04729e-05
0.0084473
0.000176468
0.00869024
0.000594258
0.0099173
0.00247685
0.00945983
0.00856715
0.00895851
0.00875342
0.00829033
0.00871216
0.00791868
0.00885848
0.00776423
0.00935741
0.00791115
0.00989323
0.00847129
0.0102641
0.0100572
0.00905635
0.00840003
7.07266e-11
0.00840003
5.35928e-10
0.00840003
1.59945e-09
0.00840002
5.22888e-09
0.00840006
1.21588e-08
0.00839995
3.4198e-08
0.00840023
7.90067e-08
0.00839956
2.08022e-07
0.00840116
4.98823e-07
0.00839755
1.24819e-06
0.00840525
3.14241e-06
0.00839006
7.61955e-06
0.00841406
1.99314e-05
0.00838466
5.10269e-05
0.00842965
0.000147236
0.00849653
0.000474972
0.009015
0.00187313
0.00952697
0.00783454
0.00922682
0.00901481
0.00876657
0.00914248
0.00850733
0.00909836
0.00845846
0.00938485
0.00862994
0.00970602
0.00909778
0.00980281
0.00953987
0.00963353
0.00840003
7.32098e-11
0.00840003
4.25848e-10
0.00840003
1.57148e-09
0.00840004
4.18042e-09
0.0084
1.16287e-08
0.00840009
2.85167e-08
0.00839989
7.28892e-08
0.00840033
1.82492e-07
0.00839935
4.4003e-07
0.00840135
1.15567e-06
0.00839686
2.6701e-06
0.00840458
7.24318e-06
0.00839034
1.70988e-05
0.00840797
4.67536e-05
0.00839293
0.000127514
0.00845088
0.000406021
0.00873115
0.00151456
0.00968436
0.0066632
0.00954048
0.00915998
0.00926036
0.009413
0.00903417
0.00931234
0.00902769
0.00938857
0.00919157
0.00954997
0.00953324
0.00948221
0.0091311
0.00996542
0.00840003
5.7472e-11
0.00840003
3.64118e-10
0.00840003
1.23225e-09
0.00840002
3.57469e-09
0.00840005
9.3459e-09
0.0084
2.36056e-08
0.00840011
6.10633e-08
0.00839988
1.45558e-07
0.00840025
3.88222e-07
0.00839973
8.90789e-07
0.00840006
2.44653e-06
0.00839983
5.57939e-06
0.00840051
1.53365e-05
0.00840109
3.75105e-05
0.00841529
0.000106097
0.00847322
0.000318262
0.00880157
0.00114033
0.0104067
0.00478795
0.0101477
0.00939997
0.00987935
0.00967132
0.00957199
0.0096153
0.00954209
0.00940509
0.00967826
0.00940776
0.0099088
0.00924675
0.00884814
0.0102116
0.00840003
4.26468e-11
0.00840003
2.95574e-10
0.00840003
9.58452e-10
0.00840003
2.89907e-09
0.00840002
7.17054e-09
0.00840005
1.9369e-08
0.00840001
4.54302e-08
0.00840006
1.20869e-07
0.0084001
2.80122e-07
0.00839983
7.38494e-07
0.0084012
1.73274e-06
0.00839862
4.50962e-06
0.00840722
1.08795e-05
0.0084033
2.82827e-05
0.00843677
7.35916e-05
0.00851497
0.000212656
0.00892994
0.000698688
0.0108159
0.00277178
0.0107992
0.00930284
0.0105918
0.00985727
0.0102339
0.00995724
0.0100228
0.00960919
0.0100591
0.00936876
0.0102032
0.00909752
0.00866494
0.0103987
0.00840003
3.75544e-11
0.00840003
2.18317e-10
0.00840003
8.09412e-10
0.00840003
2.14951e-09
0.00840002
6.01791e-09
0.00840006
1.46489e-08
0.00839997
3.77956e-08
0.0084002
9.31748e-08
0.00839973
2.29133e-07
0.00840095
5.84372e-07
0.00839848
1.38816e-06
0.00840433
3.63959e-06
0.00839465
8.56457e-06
0.0084146
2.2697e-05
0.00839992
5.70023e-05
0.00846157
0.000161729
0.00860526
0.000506881
0.00935474
0.00194366
0.0108945
0.00754023
0.0109017
0.00983459
0.0107045
0.0101438
0.0104659
0.00984519
0.0104371
0.00938777
0.0105081
0.0090161
0.00856322
0.0106089
0.00840003
2.88973e-11
0.00840003
1.69765e-10
0.00840003
6.17934e-10
0.00840003
1.67172e-09
0.00840004
4.65065e-09
0.00840002
1.12064e-08
0.00840006
2.98993e-08
0.00840001
6.98488e-08
0.00840007
1.86587e-07
0.00840014
4.31172e-07
0.0083998
1.15494e-06
0.00840136
2.68364e-06
0.00839881
7.14739e-06
0.00840676
1.72222e-05
0.00840551
4.57419e-05
0.00843781
0.000122561
0.00854092
0.000372731
0.0091063
0.00132546
0.0111969
0.0051844
0.0112662
0.00973891
0.0111946
0.0101832
0.0109391
0.0100901
0.0107776
0.00955224
0.010756
0.00903171
0.00852153
0.010795
0.00840003
1.90896e-11
0.00840003
1.33405e-10
0.00840003
4.27224e-10
0.00840003
1.31358e-09
0.00840003
3.21008e-09
0.00840002
8.78534e-09
0.00840007
2.0447e-08
0.00839997
5.48324e-08
0.00840029
1.26588e-07
0.00839964
3.36422e-07
0.00840159
7.80698e-07
0.00839815
2.05235e-06
0.00840814
4.85976e-06
0.0083945
1.25837e-05
0.00843208
3.10948e-05
0.00842716
8.26435e-05
0.00858198
0.000232976
0.00909388
0.000757019
0.0113137
0.00285915
0.0118172
0.00911161
0.0117492
0.0102315
0.0115036
0.0103284
0.011202
0.00986785
0.0110914
0.00914606
0.008566
0.0110448
0.00840003
1.55966e-11
0.00840003
9.44495e-11
0.00840003
3.3132e-10
0.00840003
9.26188e-10
0.00840003
2.48885e-09
0.00840003
6.145e-09
0.00840004
1.61344e-08
0.00840004
3.79243e-08
0.00840004
1.01043e-07
0.00840019
2.32577e-07
0.00839981
6.24265e-07
0.00840151
1.43584e-06
0.00839845
3.83829e-06
0.00840837
8.9828e-06
0.00839911
2.3751e-05
0.00843387
5.92283e-05
0.00846565
0.000165171
0.0087033
0.000505217
0.00961064
0.00187269
0.0118053
0.00666082
0.0120216
0.00997218
0.0119098
0.0103937
0.0115537
0.0102044
0.0113958
0.00929562
0.00869017
0.0112679
0.00840003
1.01499e-11
0.00840003
6.77613e-11
0.00840003
2.26796e-10
0.00840003
6.67651e-10
0.00840003
1.69117e-09
0.00840003
4.50737e-09
0.00840003
1.0632e-08
0.00840003
2.83058e-08
0.00840009
6.49564e-08
0.00839997
1.73819e-07
0.00840059
3.96858e-07
0.00839949
1.05677e-06
0.00840382
2.43686e-06
0.00839744
6.42823e-06
0.00841928
1.5244e-05
0.00840493
4.00899e-05
0.0084843
0.00010365
0.00862192
0.000302166
0.00941611
0.00101357
0.0120263
0.00370022
0.0123785
0.00955755
0.0124519
0.0103291
0.0122898
0.0103797
0.0118197
0.00979545
0.00894678
0.0115719
0.00840003
7.55157e-12
0.00840003
4.60061e-11
0.00840003
1.62027e-10
0.00840003
4.50926e-10
0.00840003
1.21817e-09
0.00840003
2.99135e-09
0.00840003
7.81559e-09
0.00840005
1.84594e-08
0.00840002
4.84427e-08
0.00840018
1.12314e-07
0.00839987
2.96867e-07
0.00840111
6.83694e-07
0.00839895
1.80886e-06
0.00840669
4.19609e-06
0.00839597
1.10331e-05
0.0084296
2.6512e-05
0.0084187
7.01158e-05
0.00854805
0.000190089
0.00889689
0.000594206
0.0103242
0.00218598
0.0125085
0.00717251
0.0127466
0.0100689
0.012679
0.010416
0.0121787
0.0102648
0.0092115
0.0118957
0.00840003
4.83639e-12
0.00840003
3.11978e-11
0.00840003
1.06751e-10
0.00840003
3.08397e-10
0.00840003
7.94693e-10
0.00840003
2.07216e-09
0.00840003
5.00505e-09
0.00840004
1.29199e-08
0.00840003
3.05307e-08
0.00840008
7.92178e-08
0.00840013
1.85392e-07
0.00840017
4.82927e-07
0.00840099
1.13004e-06
0.00840026
2.93801e-06
0.00840654
6.97644e-06
0.0084047
1.8014e-05
0.00843402
4.46871e-05
0.00847515
0.000119983
0.00870101
0.000345709
0.00962532
0.00118353
0.0123536
0.00411809
0.0129006
0.00943969
0.0130468
0.0102679
0.0128942
0.0104211
0.00972449
0.0123919
0.00840003
3.30618e-12
0.00840003
2.00024e-11
0.00840003
7.11636e-11
0.00840003
1.96548e-10
0.00840003
5.35106e-10
0.00840003
1.30877e-09
0.00840003
3.4202e-09
0.00840004
8.10421e-09
0.00840002
2.10622e-08
0.00840012
4.9576e-08
0.00839995
1.28393e-07
0.0084006
3.03155e-07
0.00839962
7.79947e-07
0.00840328
1.86261e-06
0.0083984
4.73715e-06
0.00841571
1.15497e-05
0.00840471
2.93452e-05
0.00847025
7.4878e-05
0.00855217
0.000206177
0.00909108
0.000639072
0.0108015
0.0022831
0.0130338
0.00699968
0.0132049
0.0100703
0.0133163
0.0102712
0.0101771
0.0128473
0.00840003
2.03188e-12
0.00840003
1.29483e-11
0.00840003
4.48999e-11
0.00840003
1.27952e-10
0.00840003
3.34881e-10
0.00840003
8.5977e-10
0.00840003
2.10431e-09
0.00840004
5.36054e-09
0.00840003
1.27888e-08
0.00840006
3.28893e-08
0.00840008
7.73154e-08
0.00840012
2.00124e-07
0.0084005
4.68087e-07
0.00840019
1.21424e-06
0.00840355
2.85192e-06
0.00840123
7.36767e-06
0.00841974
1.77246e-05
0.00842474
4.58209e-05
0.00851347
0.000119185
0.00875317
0.000344448
0.0097937
0.00115915
0.0125975
0.0038555
0.0134275
0.00917706
0.0136206
0.0100936
0.0103927
0.0134167
0.00840003
1.33572e-12
0.00840003
7.90908e-12
0.00840003
2.88661e-11
0.00840003
7.80005e-11
0.00840003
2.15447e-10
0.00840003
5.23288e-10
0.00840003
1.36473e-09
0.00840003
3.25793e-09
0.00840003
8.34228e-09
0.00840006
1.99962e-08
0.00840001
5.03912e-08
0.00840025
1.22664e-07
0.0083999
3.04157e-07
0.00840138
7.50376e-07
0.0083995
1.84031e-06
0.0084075
4.60862e-06
0.00839964
1.12487e-05
0.00843401
2.86853e-05
0.0084393
7.22656e-05
0.00859762
0.00019868
0.00908486
0.000605328
0.0107533
0.00210134
0.0133522
0.00633772
0.013587
0.00982971
0.0100596
0.0139037
0.00840003
7.66308e-13
0.00840003
5.00424e-12
0.00840003
1.69313e-11
0.00840003
4.93763e-11
0.00840003
1.27353e-10
0.00840003
3.28612e-10
0.00840003
8.11815e-10
0.00840003
2.02904e-09
0.00840004
4.98217e-09
0.00840003
1.2319e-08
0.00840006
3.03925e-08
0.00840009
7.42613e-08
0.00840012
1.84333e-07
0.00840059
4.47203e-07
0.00840018
1.11556e-06
0.00840424
2.69336e-06
0.0084012
6.75211e-06
0.00842471
1.64431e-05
0.00842401
4.1746e-05
0.00853419
0.000107283
0.00876855
0.000302114
0.0098143
0.00097645
0.0127308
0.00312937
0.0139367
0.00855611
0.00995242
0.0140295
0.00840003
4.82257e-13
0.00840003
2.92943e-12
0.00840003
1.03843e-11
0.00840003
2.89029e-11
0.00840003
7.76296e-11
0.00840003
1.92525e-10
0.00840003
4.9547e-10
0.00840003
1.18715e-09
0.00840003
3.05897e-09
0.00840004
7.20452e-09
0.00840004
1.86324e-08
0.00840008
4.37112e-08
0.00840004
1.12885e-07
0.00840044
2.65599e-07
0.0084
6.78944e-07
0.00840275
1.62043e-06
0.00839996
4.08589e-06
0.00841583
9.93e-06
0.00840693
2.49582e-05
0.00847597
6.29456e-05
0.00854615
0.000168189
0.00902325
0.000499316
0.0103654
0.00168409
0.0134355
0.00518905
0.00929587
0.0140126
0.00840003
2.63514e-13
0.00840003
1.77365e-12
0.00840003
5.87628e-12
0.00840003
1.74937e-11
0.00840003
4.41854e-11
0.00840003
1.16451e-10
0.00840003
2.81174e-10
0.00840003
7.19581e-10
0.00840003
1.73341e-09
0.00840003
4.36472e-09
0.00840005
1.06345e-08
0.00840002
2.63808e-08
0.00840015
6.49361e-08
0.00840002
1.59231e-07
0.00840072
3.96416e-07
0.00840014
9.60247e-07
0.00840376
2.40978e-06
0.00840196
5.81013e-06
0.00841915
1.4702e-05
0.00842544
3.58978e-05
0.0085106
9.324e-05
0.00871066
0.000252101
0.00957366
0.000784914
0.0121363
0.00252174
0.00712799
0.0141085
0.00840003
1.59875e-13
0.00840003
9.74457e-13
0.00840003
3.48835e-12
0.00840003
9.65283e-12
0.00840003
2.6026e-11
0.00840003
6.4647e-11
0.00840003
1.64041e-10
0.00840003
4.01504e-10
0.00840003
9.9657e-10
0.00840003
2.4606e-09
0.00840004
5.99839e-09
0.00840004
1.49778e-08
0.00840008
3.6099e-08
0.00840005
9.07102e-08
0.00840042
2.17256e-07
0.00840004
5.47046e-07
0.00840264
1.30955e-06
0.0084002
3.2968e-06
0.0084153
7.93001e-06
0.00840641
2.00658e-05
0.00847561
4.95806e-05
0.00852545
0.000130761
0.00894667
0.000370284
0.0101163
0.00121096
0.00368493
0.0131632
0.00840003
8.39976e-14
0.00840003
5.71468e-13
0.00840003
1.89015e-12
0.00840003
5.63082e-12
0.00840003
1.41702e-11
0.00840003
3.74664e-11
0.00840003
8.95862e-11
0.00840003
2.30842e-10
0.00840003
5.48666e-10
0.00840003
1.39482e-09
0.00840004
3.33863e-09
0.00840003
8.37341e-09
0.00840007
2.02957e-08
0.00840003
5.01741e-08
0.00840026
1.23291e-07
0.00840009
3.00121e-07
0.00840129
7.48243e-07
0.00840067
1.80066e-06
0.0084064
4.54565e-06
0.00840684
1.09022e-05
0.00843324
2.7919e-05
0.0084658
6.92017e-05
0.00864045
0.000187913
0.00923358
0.000555974
0.0018116
0.0110119
0.00840003
4.8226e-14
0.00840003
3.05407e-13
0.00840003
1.0674e-12
0.00840003
3.0111e-12
0.00840003
7.98242e-12
0.00840003
2.00744e-11
0.00840003
5.02507e-11
0.00840003
1.24619e-10
0.00840003
3.04633e-10
0.00840003
7.5938e-10
0.00840003
1.83625e-09
0.00840004
4.60884e-09
0.00840004
1.10438e-08
0.00840006
2.79054e-08
0.00840011
6.65679e-08
0.00840013
1.68427e-07
0.00840064
4.0238e-07
0.00840037
1.01385e-06
0.00840416
2.43897e-06
0.00840235
6.11174e-06
0.00842452
1.49192e-05
0.00842681
3.74614e-05
0.00853841
9.53256e-05
0.00876858
0.000259682
0.00079681
0.0097595
0.00840003
2.69657e-14
0.00840003
1.61187e-13
0.00840003
5.86772e-13
0.00840003
1.58915e-12
0.00840003
4.38205e-12
0.00840003
1.05891e-11
0.00840003
2.76371e-11
0.00840003
6.53554e-11
0.00840003
1.67813e-10
0.00840003
3.97928e-10
0.00840003
1.00721e-09
0.00840004
2.41527e-09
0.00840003
6.0283e-09
0.00840006
1.46644e-08
0.00840004
3.59035e-08
0.00840018
8.88583e-08
0.00840017
2.13734e-07
0.00840076
5.36887e-07
0.00840136
1.26968e-06
0.00840334
3.23536e-06
0.00840984
7.6002e-06
0.00841968
1.95385e-05
0.00846342
4.70569e-05
0.00856408
0.000124638
0.000344016
0.00897533
0.00840003
1.36061e-14
0.00840003
8.74321e-14
0.00840003
2.98401e-13
0.00840003
8.64649e-13
0.00840003
2.23407e-12
0.00840003
5.74907e-12
0.00840003
1.41201e-11
0.00840003
3.53018e-11
0.00840003
8.60158e-11
0.00840003
2.12778e-10
0.00840003
5.19817e-10
0.00840003
1.27567e-09
0.00840004
3.12783e-09
0.00840004
7.63362e-09
0.00840005
1.88225e-08
0.00840008
4.55859e-08
0.00840012
1.12954e-07
0.00840045
2.72071e-07
0.00840038
6.77217e-07
0.00840298
1.62483e-06
0.00840182
4.05635e-06
0.00841823
9.78314e-06
0.00841518
2.45701e-05
0.00849928
6.10251e-05
0.00016133
0.00860142
0.00840003
6.80776e-15
0.00840003
4.61456e-14
0.00840003
1.52563e-13
0.00840003
4.55336e-13
0.00840003
1.14654e-12
0.00840003
3.012e-12
0.00840003
7.25513e-12
0.00840003
1.84423e-11
0.00840003
4.4183e-11
0.00840003
1.10697e-10
0.00840003
2.67016e-10
0.00840003
6.60448e-10
0.00840003
1.61047e-09
0.00840003
3.92391e-09
0.00840004
9.70505e-09
0.00840006
2.33312e-08
0.00840007
5.82952e-08
0.00840027
1.39017e-07
0.00840019
3.49242e-07
0.00840166
8.31642e-07
0.00840076
2.0905e-06
0.00841024
4.99716e-06
0.00840595
1.26242e-05
0.0084556
3.06435e-05
7.90945e-05
0.00847784
0.00840003
3.65268e-15
0.00840003
2.26896e-14
0.00840003
7.98809e-14
0.00840003
2.24241e-13
0.00840003
5.95388e-13
0.00840003
1.49216e-12
0.00840003
3.74636e-12
0.00840003
9.15772e-12
0.00840003
2.27363e-11
0.00840003
5.50985e-11
0.00840003
1.36711e-10
0.00840003
3.2978e-10
0.00840003
8.18728e-10
0.00840003
1.97543e-09
0.00840003
4.8922e-09
0.00840005
1.18217e-08
0.00840004
2.92139e-08
0.00840017
7.08879e-08
0.00840014
1.74127e-07
0.00840076
4.25047e-07
0.00840096
1.03881e-06
0.00840362
2.55266e-06
0.00840718
6.21661e-06
0.00842052
1.54284e-05
3.80645e-05
0.0084497
0.00840003
1.81918e-15
0.00840003
1.11261e-14
0.00840003
4.00733e-14
0.00840003
1.10476e-13
0.00840003
2.98614e-13
0.00840003
7.32438e-13
0.00840003
1.88295e-12
0.00840003
4.47934e-12
0.00840003
1.14353e-11
0.00840003
2.69116e-11
0.00840003
6.86157e-11
0.00840003
1.61439e-10
0.00840003
4.09291e-10
0.00840003
9.68899e-10
0.00840003
2.43464e-09
0.00840004
5.82077e-09
0.00840004
1.44499e-08
0.0084001
3.49801e-08
0.0084001
8.56102e-08
0.00840037
2.10228e-07
0.00840061
5.06413e-07
0.0084017
1.26258e-06
0.00840439
2.99677e-06
0.00840877
7.57085e-06
1.79441e-05
0.00842952
0.00840003
8.05725e-16
0.00840003
5.65634e-15
0.00840003
1.87348e-14
0.00840003
5.54589e-14
0.00840003
1.40442e-13
0.00840003
3.67403e-13
0.00840003
8.84283e-13
0.00840003
2.25493e-12
0.00840003
5.35382e-12
0.00840003
1.3574e-11
0.00840003
3.21261e-11
0.00840003
8.09835e-11
0.00840003
1.92762e-10
0.00840003
4.81855e-10
0.00840003
1.1565e-09
0.00840003
2.85868e-09
0.00840005
6.92893e-09
0.00840004
1.6939e-08
0.00840011
4.14972e-08
0.00840012
1.0005e-07
0.00840047
2.47595e-07
0.00840072
5.90594e-07
0.00840217
1.47237e-06
0.00840504
3.48596e-06
8.74814e-06
0.00841142
0.00840003
3.92969e-16
0.00840003
2.44105e-15
0.00840003
9.14915e-15
0.00840003
2.50254e-14
0.00840003
6.82601e-14
0.00840003
1.69611e-13
0.00840003
4.29303e-13
0.00840003
1.04274e-12
0.00840003
2.60013e-12
0.00840003
6.26827e-12
0.00840003
1.55712e-11
0.00840003
3.76026e-11
0.00840003
9.26795e-11
0.00840003
2.24865e-10
0.00840003
5.51213e-10
0.00840003
1.34494e-09
0.00840003
3.26485e-09
0.00840004
8.02403e-09
0.00840006
1.93277e-08
0.00840007
4.77164e-08
0.00840026
1.14261e-07
0.00840024
2.82058e-07
0.00840154
6.76272e-07
0.00840117
1.66395e-06
4.00058e-06
0.00840899
0.00840003
1.6366e-16
0.00840003
1.16619e-15
0.00840003
3.87773e-15
0.00840003
1.2073e-14
0.00840003
3.13047e-14
0.00840003
7.86791e-14
0.00840003
1.98827e-13
0.00840003
4.86411e-13
0.00840003
1.19844e-12
0.00840003
2.9476e-12
0.00840003
7.14667e-12
0.00840003
1.76873e-11
0.00840003
4.25041e-11
0.00840003
1.05848e-10
0.00840003
2.52341e-10
0.00840003
6.30329e-10
0.00840003
1.49898e-09
0.00840003
3.73904e-09
0.00840005
8.90476e-09
0.00840005
2.20373e-08
0.00840015
5.29127e-08
0.00840013
1.29596e-07
0.00840072
3.13503e-07
0.00840067
7.61185e-07
1.85826e-06
0.00840398
0.00840003
1.74773e-16
0.00840003
4.82443e-16
0.00840003
1.85268e-15
0.00840003
5.07599e-15
0.00840003
1.4228e-14
0.00840003
3.57136e-14
0.00840003
9.10148e-14
0.00840003
2.19229e-13
0.00840003
5.52909e-13
0.00840003
1.31774e-12
0.00840003
3.30465e-12
0.00840003
7.91178e-12
0.00840003
1.96098e-11
0.00840003
4.7412e-11
0.00840003
1.15998e-10
0.00840003
2.83502e-10
0.00840003
6.84593e-10
0.00840003
1.68903e-09
0.00840004
4.03372e-09
0.00840005
1.00345e-08
0.00840007
2.37452e-08
0.0084001
5.93037e-08
0.0084003
1.4003e-07
0.00840035
3.49327e-07
8.28131e-07
0.00840184
0.00840003
9.70361e-18
0.00840003
3.13958e-16
0.00840003
1.04799e-15
0.00840003
2.66383e-15
0.00840003
6.88786e-15
0.00840003
1.63629e-14
0.00840003
4.06423e-14
0.00840003
9.89494e-14
0.00840003
2.44075e-13
0.00840003
5.91932e-13
0.00840003
1.46664e-12
0.00840003
3.51708e-12
0.00840003
8.78647e-12
0.00840003
2.08603e-11
0.00840003
5.23143e-11
0.00840003
1.23807e-10
0.00840003
3.10039e-10
0.00840003
7.34526e-10
0.00840003
1.82701e-09
0.00840004
4.36105e-09
0.00840004
1.07269e-08
0.00840009
2.5871e-08
0.00840009
6.28646e-08
0.00840036
1.53353e-07
3.68527e-07
0.00840046
0.00840003
1.55691e-16
0.00840003
4.21185e-16
0.00840003
8.2852e-16
0.00840003
1.49417e-15
0.00840003
3.1733e-15
0.00840003
7.71331e-15
0.00840003
1.76317e-14
0.00840003
4.44131e-14
0.00840003
1.04592e-13
0.00840003
2.63961e-13
0.00840003
6.24794e-13
0.00840003
1.574e-12
0.00840003
3.7344e-12
0.00840003
9.32897e-12
0.00840003
2.2312e-11
0.00840003
5.50485e-11
0.00840003
1.3309e-10
0.00840003
3.23452e-10
0.00840003
7.91789e-10
0.00840003
1.89762e-09
0.00840004
4.69575e-09
0.00840005
1.11261e-08
0.00840007
2.77439e-08
0.00840015
6.53591e-08
1.63581e-07
0.00840022
0.00840003
-8.74138e-17
0.00840003
-5.94143e-17
0.00840003
5.14996e-17
0.00840003
3.84024e-16
0.00840003
1.05444e-15
0.00840003
2.97391e-15
0.00840003
7.46785e-15
0.00840003
1.80486e-14
0.00840003
4.55325e-14
0.00840003
1.09104e-13
0.00840003
2.73053e-13
0.00840003
6.55418e-13
0.00840003
1.62296e-12
0.00840003
3.93065e-12
0.00840003
9.57133e-12
0.00840003
2.35154e-11
0.00840003
5.62632e-11
0.00840003
1.40023e-10
0.00840003
3.30809e-10
0.00840003
8.27417e-10
0.00840003
1.94826e-09
0.00840004
4.86651e-09
0.00840006
1.14757e-08
0.00840006
2.85596e-08
6.77158e-08
0.0084002
0.00840003
9.5464e-17
0.00840003
1.10263e-16
0.00840003
1.75695e-16
0.00840003
2.53649e-16
0.00840003
5.34295e-16
0.00840003
1.26995e-15
0.00840003
3.0413e-15
0.00840003
7.7337e-15
0.00840003
1.86089e-14
0.00840003
4.58851e-14
0.00840003
1.12787e-13
0.00840003
2.75195e-13
0.00840003
6.73988e-13
0.00840003
1.63322e-12
0.00840003
4.03556e-12
0.00840003
9.62783e-12
0.00840003
2.40581e-11
0.00840003
5.67199e-11
0.00840003
1.42397e-10
0.00840003
3.34798e-10
0.00840003
8.36227e-10
0.00840004
1.9765e-09
0.00840004
4.89561e-09
0.00840006
1.16599e-08
2.86043e-08
0.00840006
0.00840003
1.95698e-17
0.00840003
6.63261e-17
0.00840003
8.09357e-17
0.00840003
2.31992e-16
0.00840003
3.63018e-16
0.00840003
6.62176e-16
0.00840003
1.36715e-15
0.00840003
3.19314e-15
0.00840003
7.47793e-15
0.00840003
1.9319e-14
0.00840003
4.50016e-14
0.00840003
1.13025e-13
0.00840003
2.70621e-13
0.00840003
6.73426e-13
0.00840003
1.60589e-12
0.00840003
4.01647e-12
0.00840003
9.49376e-12
0.00840003
2.38235e-11
0.00840003
5.61218e-11
0.00840003
1.40266e-10
0.00840003
3.31817e-10
0.00840003
8.2229e-10
0.00840004
1.95829e-09
0.00840004
4.80218e-09
1.15472e-08
0.00840006
0.00840003
-1.09179e-16
0.00840003
-8.00141e-17
0.00840003
7.23705e-18
0.00840003
3.55076e-18
0.00840003
5.79235e-17
0.00840003
2.12992e-16
0.00840003
6.03602e-16
0.00840003
1.40033e-15
0.00840003
3.36767e-15
0.00840003
7.40559e-15
0.00840003
1.86092e-14
0.00840003
4.36276e-14
0.00840003
1.08338e-13
0.00840003
2.57399e-13
0.00840003
6.43935e-13
0.00840003
1.52664e-12
0.00840003
3.83047e-12
0.00840003
9.03505e-12
0.00840003
2.26383e-11
0.00840003
5.35144e-11
0.00840003
1.33023e-10
0.00840003
3.16174e-10
0.00840003
7.78384e-10
0.00840003
1.86668e-09
4.53582e-09
0.00840004
0.00840003
1.52601e-16
0.00840003
3.09973e-16
0.00840003
4.0129e-16
0.00840003
5.83138e-16
0.00840003
7.36092e-16
0.00840003
8.65139e-16
0.00840003
1.01197e-15
0.00840003
1.23488e-15
0.00840003
1.84282e-15
0.00840003
3.53157e-15
0.00840003
6.98429e-15
0.00840003
1.58551e-14
0.00840003
3.64898e-14
0.00840003
9.00488e-14
0.00840003
2.13848e-13
0.00840003
5.33738e-13
0.00840003
1.27048e-12
0.00840003
3.16004e-12
0.00840003
7.55401e-12
0.00840003
1.85573e-11
0.00840003
4.48836e-11
0.00840003
1.08552e-10
0.00840003
2.65681e-10
0.00840003
6.3323e-10
1.56728e-09
0.00840003
0.00840003
0.00840003
0.00840003
0.00840003
0.00840003
0.00840003
0.00840003
0.00840003
0.00840003
0.00840003
0.00840003
0.00840003
0.00840003
0.00840003
0.00840003
0.00840003
0.00840003
0.00840003
0.00840003
0.00840003
0.00840003
0.00840003
0.00840003
0.00840003
0.00840003
0.00466149
0.00391551
0.00310487
0.00155375
0.00243637
0.000665076
0.00217204
0.000257916
0.00214705
1.77327e-05
0.00231568
-0.000178309
0.00250338
-0.000200057
0.00262259
-0.000132489
0.00267185
-6.1732e-05
0.00267372
-1.4038e-05
0.00264806
1.36432e-05
0.00262474
1.26809e-05
0.0026146
-7.95295e-07
0.00261823
-1.47816e-05
0.00262585
-1.85651e-05
0.00263429
-1.96057e-05
0.00264147
-1.85309e-05
0.00264684
-1.68352e-05
0.0026508
-1.56153e-05
0.00265419
-1.52729e-05
0.00265741
-1.56021e-05
0.00266059
-1.60937e-05
0.00266374
-1.6395e-05
0.0026667
-1.64197e-05
0.00266911
-1.6197e-05
0.00267062
-1.58083e-05
0.00267097
-1.53363e-05
0.00267
-1.48441e-05
0.00266772
-1.43668e-05
0.00266437
-1.39207e-05
0.00266019
-1.35247e-05
0.00265526
-1.31755e-05
0.0026496
-1.2845e-05
0.00264332
-1.25236e-05
0.00263672
-1.21848e-05
0.0026301
-1.18241e-05
0.00262362
-1.14493e-05
0.00261732
-1.10173e-05
0.00261115
-1.05217e-05
0.00260509
-1.00386e-05
0.002599
-9.53964e-06
0.00259278
-9.03658e-06
0.00258643
-8.49732e-06
0.00258
-7.97196e-06
0.00257357
-7.46722e-06
0.00256724
-6.98116e-06
0.0025611
-6.5095e-06
0.0025552
-6.05604e-06
0.00254955
-5.61452e-06
0.00254416
-5.17503e-06
0.00253896
-4.74414e-06
0.00253392
-4.32363e-06
0.00252901
-3.91687e-06
0.00252426
-3.51547e-06
0.00251973
-3.11859e-06
0.00251551
-2.76344e-06
0.00251167
-2.39663e-06
0.00250841
-2.07925e-06
0.00250585
-1.75972e-06
0.0025042
-1.45713e-06
0.00250338
-1.17967e-06
0.00250339
-9.16654e-07
0.00250434
-6.25979e-07
0.0025061
-4.22821e-07
0.00250834
-1.65774e-07