/*--------------------------------*- C++ -*----------------------------------*\
  =========                 |
  \\      /  F ield         | OpenFOAM: The Open Source CFD Toolbox
   \\    /   O peration     | Website:  https://openfoam.org
    \\  /    A nd           | Version:  10
     \\/     M anipulation  |
\*---------------------------------------------------------------------------*/
FoamFile
{
    format      ascii;
    class       volScalarField;
    location    "1";
    object      rho;
}
// * * * * * * * * * * * * * * * * * * * * * * * * * * * * * * * * * * * * * //

dimensions      [1 -3 0 0 0 0 0];

internalField   nonuniform List<scalar> 
5250
(
1.40001
1.40001
1.40002
1.40005
1.40013
1.40026
1.40076
1.40163
1.40457
1.41016
1.42717
1.46206
1.55086
1.73314
2.14319
3.54858
6.31643
5.8931
5.70879
5.73956
5.80696
5.85974
5.90103
5.89421
5.5551
1.40001
1.40001
1.40002
1.40005
1.40012
1.40026
1.40075
1.40159
1.40457
1.40987
1.42703
1.46076
1.54891
1.72803
2.12931
3.49632
6.31663
5.89653
5.7084
5.7387
5.80548
5.85763
5.89912
5.89308
5.55398
1.40001
1.40001
1.40002
1.40005
1.40012
1.40026
1.40073
1.40155
1.40444
1.4096
1.42624
1.45894
1.54446
1.71857
2.0998
3.38773
6.30964
5.89913
5.70279
5.73053
5.7938
5.84294
5.88353
5.87815
5.54085
1.40001
1.40001
1.40002
1.40004
1.40012
1.40025
1.4007
1.4015
1.40428
1.40924
1.42527
1.45664
1.53882
1.70597
2.0616
3.23913
6.27276
5.89252
5.68975
5.71365
5.77049
5.81594
5.8547
5.84843
5.51498
1.40001
1.40001
1.40002
1.40004
1.40011
1.40024
1.40067
1.40143
1.40409
1.40881
1.42413
1.45404
1.53274
1.69289
2.02891
3.11388
6.15974
5.86497
5.67077
5.68954
5.73716
5.77717
5.81547
5.81468
5.49223
1.40001
1.40001
1.40002
1.40004
1.40011
1.40022
1.40064
1.40135
1.40386
1.40831
1.4228
1.45101
1.52579
1.67793
1.99814
2.9797
5.98613
5.81091
5.64806
5.65955
5.69127
5.72592
5.761
5.75666
5.44301
1.40001
1.40001
1.40002
1.40004
1.4001
1.40021
1.40059
1.40126
1.40359
1.40773
1.42129
1.44755
1.51798
1.66102
1.96182
2.83516
5.77021
5.74068
5.62617
5.62216
5.62544
5.6556
5.68516
5.68327
5.39422
1.40001
1.40001
1.40002
1.40003
1.40009
1.40019
1.40054
1.40115
1.4033
1.40706
1.41958
1.44362
1.50898
1.6419
1.9288
2.69271
5.48045
5.67223
5.59733
5.5705
5.54975
5.56401
5.58698
5.57695
5.2948
1.40001
1.40001
1.40002
1.40003
1.40008
1.40017
1.40049
1.40105
1.4029
1.40654
1.41727
1.43998
1.49814
1.62096
1.88702
2.54703
5.10624
5.62493
5.55472
5.48688
5.46056
5.46276
5.46214
5.44224
5.18352
1.40001
1.40001
1.40001
1.40003
1.40006
1.40018
1.40037
1.40105
1.40225
1.40637
1.41396
1.43737
1.48431
1.60041
1.83598
2.40611
4.63794
5.59668
5.52765
5.4074
5.38236
5.34373
5.31333
5.24279
4.89833
1.40001
1.40001
1.40001
1.40002
1.40006
1.40013
1.40037
1.40077
1.40223
1.40474
1.41339
1.42959
1.47614
1.57101
1.78494
2.26596
4.09566
5.59516
5.51654
5.33262
5.26698
5.19804
5.08949
4.88275
4.09951
1.40001
1.40001
1.40001
1.40002
1.40005
1.40012
1.40026
1.40074
1.40158
1.40452
1.40979
1.42676
1.46012
1.54728
1.72344
2.13689
3.4593
5.56033
5.48441
5.27911
5.17623
5.07819
4.90075
4.60222
3.83269
1.40001
1.40001
1.40001
1.40002
1.40004
1.40009
1.40025
1.40052
1.40147
1.40323
1.40879
1.41999
1.45113
1.517
1.6683
1.98858
2.84878
5.43717
5.42019
5.25931
5.08704
4.94582
4.72838
4.40189
3.83856
1.40001
1.40001
1.40001
1.40002
1.40003
1.40008
1.40018
1.40047
1.4011
1.4028
1.40684
1.41677
1.44113
1.49719
1.62321
1.88757
2.54631
4.9818
5.26582
5.18145
4.99049
4.81487
4.58134
4.24864
3.83797
1.40001
1.40001
1.40001
1.40001
1.40003
1.40006
1.40015
1.40037
1.40087
1.40231
1.40525
1.41398
1.43217
1.48007
1.58216
1.80531
2.30361
4.27269
5.17195
5.12082
4.94709
4.73633
4.50098
4.17677
3.82464
1.40001
1.40001
1.40001
1.40001
1.40002
1.40005
1.40012
1.40027
1.40073
1.40161
1.4045
1.40985
1.42666
1.46023
1.54662
1.72259
2.12367
3.47285
5.09744
5.06441
4.93254
4.68302
4.45737
4.15807
3.82604
1.40001
1.40001
1.40001
1.40001
1.40002
1.40004
1.40008
1.40023
1.40048
1.40137
1.40294
1.40825
1.41809
1.44767
1.50718
1.64927
1.93482
2.68356
4.9192
5.00086
4.90308
4.65483
4.40744
4.12828
3.82747
1.40001
1.40001
1.40001
1.40001
1.40002
1.40003
1.40007
1.40016
1.40039
1.40097
1.40231
1.40597
1.41394
1.43543
1.48236
1.59263
1.82001
2.34145
4.33007
4.90855
4.85383
4.66543
4.39706
4.13248
3.85144
1.40001
1.40001
1.40001
1.40001
1.40001
1.40002
1.40005
1.40011
1.4003
1.40065
1.40185
1.40393
1.41109
1.42434
1.4633
1.54228
1.72365
2.1043
3.44683
4.79994
4.76944
4.6537
4.39744
4.12457
3.85986
1.40001
1.40001
1.40001
1.40001
1.40001
1.40002
1.40003
1.40009
1.40019
1.40051
1.40117
1.40299
1.40724
1.41777
1.44314
1.50179
1.63158
1.89132
2.55196
4.54861
4.73077
4.65033
4.44213
4.16098
3.89455
1.40001
1.40001
1.40001
1.40001
1.40001
1.40001
1.40003
1.40006
1.40015
1.40032
1.4009
1.40191
1.40539
1.41173
1.43144
1.47071
1.56989
1.76767
2.20249
3.8528
4.65685
4.61031
4.46969
4.19171
3.91819
1.40001
1.40001
1.40001
1.40001
1.40001
1.40001
1.40002
1.40004
1.40009
1.40025
1.40052
1.40146
1.40317
1.40868
1.41945
1.4503
1.5138
1.66312
1.95513
2.81597
4.46336
4.55445
4.47762
4.26525
3.97418
1.40001
1.40001
1.40001
1.40001
1.40001
1.40001
1.40002
1.40003
1.40007
1.40014
1.4004
1.40085
1.40237
1.40522
1.41401
1.43192
1.47941
1.57967
1.79125
2.25127
3.94315
4.51703
4.47193
4.32319
4.03524
1.40001
1.40001
1.40001
1.40001
1.40001
1.40001
1.40001
1.40002
1.40004
1.40011
1.40023
1.40063
1.40134
1.40381
1.40818
1.42237
1.44984
1.52314
1.67022
1.97705
2.9288
4.31951
4.40049
4.33703
4.15248
1.40001
1.40001
1.40001
1.40001
1.40001
1.40001
1.40001
1.40001
1.40003
1.40006
1.40016
1.40037
1.40093
1.40225
1.40548
1.41366
1.43254
1.47853
1.58015
1.78288
2.24117
3.83531
4.3713
4.32286
4.20851
1.40001
1.40001
1.40001
1.40001
1.40001
1.40001
1.40001
1.40001
1.40002
1.40004
1.40009
1.40025
1.40053
1.40148
1.40316
1.40882
1.41934
1.45043
1.51331
1.65952
1.94209
2.78522
4.1572
4.29063
4.23772
1.40001
1.40001
1.40001
1.40001
1.40001
1.40001
1.40001
1.40001
1.40002
1.40003
1.40006
1.40014
1.40036
1.40083
1.40209
1.40507
1.41236
1.43031
1.47142
1.56682
1.75226
2.16709
3.61154
4.23054
4.19832
1.40001
1.40001
1.40001
1.40001
1.40001
1.40001
1.40001
1.40001
1.40001
1.40002
1.40004
1.40008
1.40022
1.40046
1.4013
1.40278
1.40767
1.41678
1.44389
1.49763
1.62585
1.84745
2.47883
3.9885
4.19201
1.40001
1.40001
1.40001
1.40001
1.40001
1.40001
1.40001
1.40001
1.40001
1.40001
1.40003
1.40005
1.40013
1.40028
1.40076
1.40167
1.40448
1.41013
1.42611
1.45982
1.54285
1.7049
2.05075
3.2625
4.05879
1.40001
1.40001
1.40001
1.40001
1.40001
1.40001
1.40001
1.40001
1.40001
1.40001
1.40002
1.40003
1.40007
1.40017
1.40042
1.40098
1.40252
1.40577
1.41496
1.43409
1.48366
1.58587
1.77402
2.24849
3.69011
1.40001
1.40001
1.40001
1.40001
1.40001
1.40001
1.40001
1.40001
1.40001
1.40001
1.40001
1.40002
1.40004
1.4001
1.40022
1.40058
1.40129
1.4034
1.40785
1.41994
1.44659
1.51134
1.6428
1.90535
2.69955
1.40001
1.40001
1.40001
1.40001
1.40001
1.40001
1.40001
1.40001
1.40001
1.40001
1.40001
1.40001
1.40002
1.40006
1.40013
1.4003
1.40076
1.40177
1.40461
1.41047
1.42716
1.46146
1.5477
1.70439
2.06685
1.40001
1.40001
1.40001
1.40001
1.40001
1.40001
1.40001
1.40001
1.40001
1.40001
1.40001
1.40001
1.40002
1.40003
1.40007
1.40018
1.40037
1.40104
1.40221
1.4061
1.41335
1.43493
1.47785
1.5813
1.75391
1.40001
1.40001
1.40001
1.40001
1.40001
1.40001
1.40001
1.40001
1.40001
1.40001
1.40001
1.40001
1.40001
1.40002
1.40004
1.40009
1.4002
1.40053
1.40115
1.40318
1.40678
1.4186
1.44042
1.50173
1.61467
1.40001
1.40001
1.40001
1.40001
1.40001
1.40001
1.40001
1.40001
1.40001
1.40001
1.40001
1.40001
1.40001
1.40001
1.40002
1.40005
1.40012
1.40024
1.40068
1.40144
1.40398
1.40868
1.42316
1.4516
1.52622
1.40001
1.40001
1.40001
1.40001
1.40001
1.40001
1.40001
1.40001
1.40001
1.40001
1.40001
1.40001
1.40001
1.40001
1.40001
1.40003
1.40006
1.40013
1.40034
1.40074
1.40199
1.40447
1.41164
1.42664
1.46602
1.40001
1.40001
1.40001
1.40001
1.40001
1.40001
1.40001
1.40001
1.40001
1.40001
1.40001
1.40001
1.40001
1.40001
1.40001
1.40002
1.40003
1.40007
1.40016
1.4004
1.40091
1.4024
1.40527
1.41411
1.43095
1.40001
1.40001
1.40001
1.40001
1.40001
1.40001
1.40001
1.40001
1.40001
1.40001
1.40001
1.40001
1.40001
1.40001
1.40001
1.40001
1.40002
1.40004
1.40008
1.4002
1.40043
1.40117
1.4025
1.40684
1.41463
1.40001
1.40001
1.40001
1.40001
1.40001
1.40001
1.40001
1.40001
1.40001
1.40001
1.40001
1.40001
1.40001
1.40001
1.40001
1.40001
1.40001
1.40002
1.40004
1.40009
1.40023
1.4005
1.40133
1.40286
1.4078
1.40001
1.40001
1.40001
1.40001
1.40001
1.40001
1.40001
1.40001
1.40001
1.40001
1.40001
1.40001
1.40001
1.40001
1.40001
1.40001
1.40001
1.40001
1.40002
1.40005
1.4001
1.40026
1.40056
1.40146
1.40336
1.40001
1.40001
1.40001
1.40001
1.40001
1.40001
1.40001
1.40001
1.40001
1.40001
1.40001
1.40001
1.40001
1.40001
1.40001
1.40001
1.40001
1.40001
1.40001
1.40002
1.40005
1.40012
1.40027
1.40065
1.40158
1.40001
1.40001
1.40001
1.40001
1.40001
1.40001
1.40001
1.40001
1.40001
1.40001
1.40001
1.40001
1.40001
1.40001
1.40001
1.40001
1.40001
1.40001
1.40001
1.40001
1.40002
1.40006
1.40012
1.40031
1.40067
1.40001
1.40001
1.40001
1.40001
1.40001
1.40001
1.40001
1.40001
1.40001
1.40001
1.40001
1.40001
1.40001
1.40001
1.40001
1.40001
1.40001
1.40001
1.40001
1.40001
1.40001
1.40003
1.40006
1.40013
1.4003
1.40001
1.40001
1.40001
1.40001
1.40001
1.40001
1.40001
1.40001
1.40001
1.40001
1.40001
1.40001
1.40001
1.40001
1.40001
1.40001
1.40001
1.40001
1.40001
1.40001
1.40001
1.40001
1.40003
1.40006
1.40015
1.40001
1.40001
1.40001
1.40001
1.40001
1.40001
1.40001
1.40001
1.40001
1.40001
1.40001
1.40001
1.40001
1.40001
1.40001
1.40001
1.40001
1.40001
1.40001
1.40001
1.40001
1.40001
1.40001
1.40003
1.40006
1.40001
1.40001
1.40001
1.40001
1.40001
1.40001
1.40001
1.40001
1.40001
1.40001
1.40001
1.40001
1.40001
1.40001
1.40001
1.40001
1.40001
1.40001
1.40001
1.40001
1.40001
1.40001
1.40001
1.40001
1.40003
1.40001
1.40001
1.40001
1.40001
1.40001
1.40001
1.40001
1.40001
1.40001
1.40001
1.40001
1.40001
1.40001
1.40001
1.40001
1.40001
1.40001
1.40001
1.40001
1.40001
1.40001
1.40001
1.40001
1.40001
1.40001
1.40001
1.40001
1.40001
1.40001
1.40001
1.40001
1.40001
1.40001
1.40001
1.40001
1.40001
1.40001
1.40001
1.40001
1.40001
1.40001
1.40001
1.40001
1.40001
1.40001
1.40001
1.40001
1.40001
1.40001
1.40001
1.40001
1.40001
1.40001
1.40001
1.40001
1.40001
1.40001
1.40001
1.40001
1.40001
1.40001
1.40001
1.40001
1.40001
1.40001
1.40001
1.40001
1.40001
1.40001
1.40001
1.40001
1.40001
1.40001
1.40001
1.40001
1.40001
1.40001
1.40001
1.40001
1.40001
1.40001
1.40001
1.40001
1.40001
1.40001
1.40001
1.40001
1.40001
1.40001
1.40001
1.40001
1.40001
1.40001
1.40001
1.40001
1.40001
1.40001
1.40001
1.40001
1.40001
1.75526
0.958274
0.663201
0.580831
0.576459
0.602112
0.662839
0.722081
0.736259
0.734911
0.729473
0.718164
0.70995
0.706615
0.704974
0.703293
0.700831
0.69735
0.692988
0.688258
0.683439
0.678619
0.673836
0.669071
0.66425
0.65928
0.654099
0.648671
0.642991
0.637116
0.631135
0.625095
0.619011
0.612899
0.606815
0.60084
0.59503
0.589407
0.583964
0.5787
0.573579
0.56858
0.563697
0.558943
0.554333
0.549894
0.545646
0.541607
0.537778
0.53416
0.530747
0.527526
0.524483
0.521617
0.518935
0.516446
0.514158
0.512091
0.510295
0.508761
0.507573
0.506606
0.505983
0.505605
0.505515
0.50552
0.505585
0.505799
0.506169
0.50645
0.506838
0.507436
0.508099
0.509381
0.510786
0.51233
0.513909
0.515827
0.517894
0.520058
0.522095
0.523938
0.52561
0.527153
0.528659
0.530301
0.531854
0.533423
0.535058
0.536889
0.538611
0.541758
0.544647
0.55171
0.557341
0.571088
0.580373
0.601704
0.615159
0.651432
2.21026
1.43288
1.08956
0.940708
0.872142
0.825076
0.797648
0.797932
0.801266
0.808624
0.823983
0.824709
0.823078
0.819438
0.812263
0.805223
0.79931
0.794397
0.790066
0.785756
0.781119
0.776179
0.771037
0.765774
0.760419
0.754966
0.749386
0.743627
0.737618
0.731309
0.724708
0.717861
0.710825
0.703706
0.696592
0.68951
0.68251
0.675638
0.668911
0.662421
0.656209
0.65038
0.644717
0.639267
0.633882
0.628595
0.62337
0.61821
0.613137
0.608194
0.603371
0.598702
0.594221
0.589925
0.58583
0.582018
0.578358
0.575074
0.571924
0.569026
0.566422
0.563913
0.561814
0.559846
0.558231
0.557064
0.556056
0.555181
0.555026
0.554797
0.555091
0.555143
0.555885
0.556466
0.557534
0.558124
0.55898
0.559893
0.561218
0.563117
0.564913
0.567496
0.569807
0.572863
0.575557
0.578772
0.58134
0.584496
0.587012
0.59011
0.592485
0.595551
0.597915
0.60121
0.603627
0.607759
0.610936
0.61798
0.623992
0.64202
2.78653
2.02929
1.55516
1.25521
1.06589
0.941813
0.867276
0.836111
0.837052
0.84165
0.851583
0.869488
0.876115
0.875581
0.873059
0.869273
0.862538
0.855688
0.849884
0.844812
0.840053
0.835376
0.830678
0.825866
0.820816
0.815413
0.809607
0.803414
0.796866
0.789964
0.782719
0.775231
0.767614
0.759873
0.752041
0.744262
0.736627
0.72918
0.721916
0.714877
0.708081
0.701603
0.69542
0.689414
0.683537
0.677785
0.672076
0.66644
0.660934
0.655542
0.650283
0.645172
0.640218
0.635435
0.630811
0.626336
0.62203
0.617919
0.613958
0.610223
0.606782
0.60363
0.600742
0.598055
0.595656
0.593567
0.591986
0.590468
0.589479
0.588775
0.588418
0.58795
0.588073
0.588284
0.588964
0.589367
0.589871
0.590609
0.591374
0.592939
0.594058
0.595982
0.597466
0.600035
0.601997
0.605254
0.607697
0.611422
0.614335
0.618538
0.621715
0.626004
0.629108
0.633451
0.636405
0.641324
0.6447
0.651436
0.656371
0.670337
3.12526
2.45223
1.94356
1.58441
1.34109
1.17299
1.06473
0.992435
0.94701
0.920163
0.916318
0.915374
0.917877
0.923745
0.927924
0.9265
0.925199
0.922245
0.916252
0.909639
0.903702
0.898172
0.892858
0.887467
0.881749
0.875546
0.868814
0.861614
0.854053
0.846235
0.83826
0.830198
0.822097
0.814027
0.806064
0.798258
0.790618
0.78309
0.775574
0.768088
0.760711
0.753418
0.746154
0.738945
0.731865
0.724991
0.718409
0.712132
0.706166
0.700556
0.695194
0.689935
0.684806
0.679831
0.674978
0.670141
0.665209
0.660226
0.655345
0.650567
0.645928
0.641539
0.637561
0.633959
0.630717
0.627855
0.625281
0.622967
0.621094
0.619388
0.617956
0.616874
0.615964
0.615432
0.615225
0.615069
0.615032
0.615197
0.615647
0.616701
0.617655
0.619187
0.620418
0.622533
0.624194
0.627099
0.62933
0.632983
0.635923
0.640367
0.643866
0.648675
0.652191
0.656941
0.660161
0.665102
0.668322
0.674532
0.678999
0.691733
3.30254
2.74958
2.2702
1.89641
1.61733
1.41089
1.25743
1.14435
1.06435
1.00605
0.970796
0.953611
0.953159
0.95333
0.956518
0.961365
0.964772
0.96452
0.963498
0.960892
0.955297
0.948077
0.940705
0.93336
0.926075
0.918817
0.911543
0.904204
0.896775
0.889264
0.88168
0.874011
0.86624
0.85836
0.850345
0.8422
0.833992
0.825778
0.817547
0.809271
0.801007
0.792857
0.784918
0.777275
0.769984
0.763051
0.756445
0.750044
0.743844
0.73779
0.731887
0.726094
0.720294
0.714383
0.708322
0.702143
0.69595
0.689873
0.684001
0.678453
0.673321
0.668672
0.664449
0.660539
0.65712
0.654027
0.651222
0.64866
0.646327
0.644039
0.64212
0.640265
0.638466
0.637226
0.636612
0.63573
0.634955
0.634691
0.63484
0.635563
0.636357
0.637591
0.63871
0.640677
0.642246
0.645041
0.647164
0.650831
0.653619
0.658184
0.661601
0.666685
0.670238
0.675503
0.678997
0.684819
0.688553
0.696172
0.701363
0.716304
3.41221
2.9563
2.52854
2.16595
1.87341
1.64359
1.46439
1.32636
1.22044
1.14098
1.08295
1.04047
1.0138
0.998815
0.994136
0.9941
0.994396
0.997227
0.99807
0.997235
0.99577
0.99254
0.98599
0.977976
0.969618
0.961516
0.953812
0.94639
0.939099
0.931837
0.924489
0.916937
0.909112
0.901006
0.892635
0.884079
0.875445
0.866741
0.857934
0.84905
0.840198
0.831484
0.823029
0.814914
0.807184
0.799829
0.792733
0.785897
0.779253
0.772805
0.76652
0.760265
0.753894
0.747334
0.74058
0.733727
0.726913
0.720269
0.713897
0.707859
0.702252
0.69713
0.692436
0.688102
0.684154
0.680462
0.677046
0.673628
0.670583
0.667696
0.664949
0.662313
0.660226
0.658461
0.656923
0.65578
0.654942
0.654234
0.654059
0.654555
0.655274
0.656404
0.657473
0.659263
0.660751
0.663452
0.66553
0.669156
0.671877
0.676299
0.679493
0.684503
0.687944
0.693424
0.69694
0.703324
0.707347
0.715839
0.721438
0.737743
3.47824
3.10186
2.72873
2.39039
2.10001
1.85971
1.66355
1.50553
1.37802
1.27675
1.19568
1.13296
1.08523
1.05037
1.02882
1.01757
1.01173
1.01096
1.01045
1.00998
1.00959
1.0088
1.00687
1.00279
0.99621
0.988963
0.981715
0.974616
0.967576
0.960535
0.953479
0.946332
0.938939
0.931159
0.922963
0.914449
0.905752
0.896868
0.887755
0.878501
0.869299
0.860311
0.851679
0.84346
0.835643
0.828229
0.82119
0.814355
0.807665
0.801111
0.794678
0.788197
0.781437
0.774364
0.767129
0.759894
0.752817
0.746066
0.739717
0.733831
0.728415
0.723433
0.718854
0.714535
0.710539
0.706701
0.702989
0.699168
0.695616
0.692104
0.688836
0.685689
0.682897
0.680682
0.678912
0.677296
0.675677
0.674925
0.674628
0.674817
0.675303
0.676216
0.677321
0.67892
0.680434
0.682762
0.684825
0.688164
0.690779
0.695016
0.698155
0.703155
0.706527
0.712381
0.716083
0.723483
0.728129
0.73831
0.744863
0.764145
3.53715
3.20699
2.87902
2.57224
2.29528
2.0553
1.851
1.6804
1.53874
1.4215
1.32561
1.2469
1.18345
1.1341
1.09558
1.06604
1.04722
1.03535
1.02907
1.02612
1.02481
1.02437
1.0237
1.02242
1.01991
1.01489
1.00857
1.00144
0.993856
0.986075
0.978232
0.970398
0.96253
0.954505
0.946243
0.937759
0.929113
0.920371
0.911614
0.902939
0.894456
0.886296
0.87855
0.871225
0.864286
0.857617
0.85097
0.844196
0.83739
0.830634
0.823799
0.816659
0.809192
0.801575
0.793988
0.786585
0.779482
0.772801
0.766593
0.760837
0.75549
0.750569
0.745973
0.741556
0.737243
0.733007
0.72882
0.724555
0.720548
0.716763
0.71332
0.710034
0.707218
0.705098
0.703286
0.701718
0.700215
0.699391
0.699067
0.699312
0.699747
0.700613
0.701682
0.703237
0.704957
0.707185
0.709389
0.712277
0.714837
0.718707
0.72171
0.726764
0.730126
0.736576
0.740569
0.749119
0.754407
0.766222
0.77357
0.796034
3.58153
3.28857
2.99378
2.71277
2.45318
2.22165
2.01826
1.84245
1.69244
1.56491
1.45701
1.36602
1.28935
1.22556
1.17282
1.13096
1.09739
1.07141
1.05444
1.04365
1.03727
1.03418
1.03247
1.03145
1.03036
1.02815
1.02451
1.01934
1.01289
1.00557
0.99773
0.989556
0.981171
0.97264
0.963995
0.955258
0.946499
0.937792
0.929192
0.920779
0.912678
0.905016
0.897835
0.891081
0.884664
0.878442
0.872157
0.865607
0.858847
0.852025
0.84508
0.837855
0.830357
0.822802
0.815392
0.808263
0.801499
0.795169
0.789297
0.783838
0.778733
0.773949
0.769355
0.764777
0.760221
0.755681
0.751239
0.746769
0.742637
0.738724
0.735195
0.731834
0.729085
0.727122
0.725345
0.723908
0.722828
0.722634
0.722992
0.723905
0.725189
0.726992
0.729105
0.731774
0.73472
0.738325
0.741949
0.74636
0.750213
0.755225
0.758973
0.764994
0.768874
0.776614
0.781173
0.791379
0.797358
0.810859
0.81883
0.845894
3.63204
3.3605
3.09146
2.83143
2.58714
2.36402
2.1637
1.98695
1.83162
1.69729
1.58054
1.48059
1.39445
1.32113
1.2585
1.20592
1.16183
1.12644
1.09763
1.07539
1.06009
1.05
1.04412
1.04102
1.03916
1.03789
1.03636
1.03373
1.02972
1.02428
1.01756
1.00975
1.00115
0.992106
0.982888
0.973668
0.96459
0.955756
0.947223
0.939013
0.931155
0.923716
0.91671
0.910064
0.903667
0.897394
0.891049
0.884431
0.877546
0.870556
0.863489
0.85632
0.849065
0.841926
0.834988
0.828384
0.822066
0.816156
0.810593
0.805404
0.800393
0.795672
0.791027
0.786399
0.781687
0.77711
0.772623
0.768148
0.763982
0.760209
0.756885
0.754169
0.752016
0.750608
0.749742
0.749873
0.75075
0.752742
0.755714
0.759763
0.764609
0.77045
0.776775
0.78391
0.791173
0.799156
0.806604
0.814769
0.821541
0.829542
0.835077
0.843196
0.847916
0.857374
0.862357
0.873315
0.879498
0.893635
0.898126
0.933549
3.66553
3.41888
3.17282
2.93226
2.70319
2.48944
2.29406
2.11779
1.96029
1.82097
1.69805
1.59057
1.49634
1.41477
1.34346
1.28235
1.22956
1.18511
1.14765
1.11718
1.09284
1.07404
1.06073
1.05208
1.04654
1.04308
1.04071
1.03855
1.03596
1.03227
1.02727
1.0208
1.01325
1.00487
0.995932
0.986717
0.977664
0.968807
0.96029
0.952261
0.944772
0.937778
0.931191
0.924899
0.918754
0.91259
0.906257
0.899627
0.892676
0.885551
0.878383
0.871205
0.864137
0.857297
0.850774
0.844581
0.838672
0.833077
0.827793
0.822749
0.817826
0.812986
0.808153
0.803253
0.798344
0.793554
0.789064
0.784793
0.781129
0.778296
0.776067
0.774703
0.774558
0.776162
0.779476
0.784782
0.791993
0.801383
0.812651
0.825902
0.840288
0.856014
0.871921
0.88849
0.903967
0.919471
0.933389
0.947533
0.959447
0.971717
0.980289
0.991097
0.997096
1.00732
1.01185
1.02427
1.02537
1.03974
1.03363
1.0849
3.71827
3.48272
3.25063
3.0255
2.8089
2.60403
2.41348
2.23886
2.08042
1.938
1.81069
1.69761
1.59725
1.5088
1.43099
1.36271
1.30312
1.25154
1.20709
1.16929
1.13758
1.11147
1.09054
1.07403
1.06172
1.05317
1.04709
1.04283
1.0394
1.03608
1.03217
1.02737
1.02165
1.01474
1.00699
0.998699
0.989944
0.981253
0.972946
0.965223
0.958095
0.951551
0.945419
0.939499
0.933625
0.927648
0.921446
0.914936
0.908084
0.90097
0.893796
0.88668
0.87972
0.873028
0.866703
0.860651
0.854895
0.849362
0.844125
0.839093
0.834124
0.829171
0.824278
0.819411
0.814678
0.810366
0.806691
0.804087
0.802518
0.802117
0.804142
0.809106
0.817351
0.829547
0.845337
0.865121
0.888075
0.91416
0.941153
0.971206
1.00253
1.03474
1.0646
1.09234
1.11549
1.13614
1.15236
1.167
1.17705
1.18768
1.19408
1.2043
1.20867
1.22167
1.22371
1.2379
1.2348
1.25142
1.23799
1.30702
3.7715
3.54046
3.32364
3.11042
2.9054
2.70977
2.52541
2.35382
2.1955
2.05112
1.92044
1.80261
1.69743
1.60323
1.51974
1.44572
1.38028
1.3228
1.27246
1.22863
1.1906
1.15802
1.13024
1.10688
1.08782
1.07232
1.06023
1.05098
1.04382
1.03814
1.03311
1.02819
1.02291
1.01737
1.01123
1.00443
0.997225
0.989883
0.982607
0.975563
0.968907
0.962651
0.956682
0.950875
0.945034
0.939061
0.932836
0.926398
0.91969
0.912778
0.905763
0.898802
0.891989
0.885483
0.879366
0.873651
0.868106
0.862678
0.857392
0.852402
0.847545
0.842803
0.838368
0.834237
0.831229
0.829295
0.828907
0.830979
0.836795
0.847688
0.864198
0.887001
0.915918
0.950562
0.98967
1.03677
1.0865
1.1342
1.17579
1.20888
1.23193
1.24764
1.25715
1.26408
1.26758
1.27337
1.2749
1.2821
1.28293
1.29215
1.29369
1.30584
1.30836
1.32387
1.32761
1.34527
1.34942
1.3695
1.37396
1.42556
3.86947
3.62182
3.40092
3.1946
2.99635
2.80777
2.62877
2.46088
2.30438
2.15986
2.02728
1.90649
1.79711
1.69848
1.61007
1.53092
1.46047
1.39777
1.3423
1.29318
1.24985
1.21165
1.17817
1.14898
1.12377
1.10219
1.08407
1.06896
1.05656
1.04649
1.0382
1.03137
1.02538
1.01986
1.01465
1.0093
1.00373
0.997935
0.991992
0.986016
0.980096
0.974204
0.968333
0.962417
0.956395
0.950229
0.943853
0.937227
0.930452
0.923614
0.916784
0.91008
0.903648
0.897557
0.891823
0.88644
0.88129
0.876193
0.871199
0.866537
0.862496
0.859038
0.857634
0.857436
0.859297
0.865623
0.878499
0.899028
0.928453
0.967167
1.01288
1.0716
1.13714
1.19965
1.25125
1.28584
1.3048
1.31534
1.32013
1.32269
1.32363
1.326
1.32467
1.32926
1.3276
1.33407
1.33347
1.34204
1.34225
1.35325
1.35439
1.36808
1.37084
1.38662
1.39066
1.40835
1.41305
1.43162
1.4362
1.47149
3.96376
3.70176
3.47596
3.27441
3.0843
2.90155
2.72794
2.56348
2.40882
2.26457
2.1309
2.0079
1.89545
1.79315
1.7006
1.6174
1.54252
1.47554
1.41546
1.36169
1.31354
1.27044
1.23199
1.19765
1.16723
1.14028
1.11657
1.09595
1.07811
1.06291
1.0503
1.03979
1.03111
1.02393
1.0178
1.01255
1.0078
1.00321
0.998592
0.993785
0.988746
0.983421
0.977799
0.971853
0.965611
0.959103
0.952329
0.945421
0.938448
0.931567
0.924921
0.918684
0.912755
0.907318
0.902299
0.897537
0.893114
0.888846
0.885019
0.882569
0.882457
0.884543
0.890173
0.90287
0.925032
0.958598
1.00455
1.06129
1.13758
1.21766
1.28892
1.33601
1.36055
1.37242
1.37673
1.37845
1.37715
1.3772
1.37423
1.37528
1.37194
1.37515
1.37268
1.37758
1.37671
1.38365
1.38393
1.39294
1.39417
1.4055
1.40744
1.42074
1.42393
1.43916
1.4434
1.46008
1.4642
1.48221
1.48501
1.51408
4.08603
3.81528
3.57388
3.35985
3.1691
2.99168
2.82178
2.66087
2.5086
2.36536
2.23153
2.10715
1.99238
1.88727
1.79127
1.70427
1.6255
1.55435
1.49018
1.43232
1.38005
1.33292
1.29022
1.25169
1.21674
1.18521
1.15675
1.13125
1.10851
1.08853
1.07114
1.05626
1.04386
1.03367
1.02534
1.01859
1.0131
1.00849
1.00433
1.0003
0.996136
0.991628
0.986694
0.981252
0.975331
0.968959
0.962298
0.955453
0.948593
0.941905
0.935537
0.929629
0.9242
0.919347
0.914749
0.911042
0.907962
0.907694
0.909202
0.913404
0.924659
0.946032
0.980832
1.03156
1.09573
1.18533
1.27986
1.36037
1.40595
1.42762
1.4367
1.43802
1.43646
1.4341
1.42876
1.42628
1.42124
1.42114
1.41703
1.41855
1.41611
1.41775
1.41666
1.42036
1.42003
1.42615
1.42623
1.43518
1.43566
1.44693
1.448
1.46084
1.46319
1.47753
1.4811
1.4969
1.50067
1.51796
1.52103
1.54448
4.11926
3.929
3.67621
3.45871
3.26208
3.0815
2.91385
2.75462
2.60446
2.46263
2.32914
2.20437
2.08816
1.98072
1.88197
1.79147
1.70914
1.63424
1.56628
1.50463
1.44874
1.3978
1.35155
1.30915
1.27051
1.23502
1.20263
1.17301
1.14615
1.12188
1.10021
1.08116
1.06461
1.05052
1.03883
1.02932
1.02167
1.0155
1.01045
1.00613
1.00213
0.99813
0.993828
0.989041
0.983708
0.97786
0.971611
0.965104
0.958556
0.952092
0.946008
0.940284
0.935466
0.931491
0.928825
0.929796
0.933431
0.941292
0.958765
0.989675
1.04016
1.10697
1.20393
1.31434
1.41133
1.46564
1.49138
1.50157
1.50183
1.49839
1.49253
1.48634
1.47892
1.47484
1.46883
1.46628
1.46076
1.45869
1.4544
1.45315
1.44969
1.4505
1.44772
1.45084
1.44932
1.45496
1.45396
1.46218
1.46189
1.47205
1.47269
1.48385
1.48582
1.49874
1.50199
1.51651
1.52029
1.53645
1.54048
1.55858
4.15359
4.03552
3.791
3.55645
3.35415
3.17342
3.00537
2.84983
2.69983
2.55856
2.42501
2.29953
2.18213
2.0728
1.97178
1.87858
1.79315
1.71501
1.64372
1.57864
1.51924
1.46488
1.41507
1.36937
1.32725
1.28853
1.25272
1.21977
1.18941
1.16162
1.13633
1.11348
1.09317
1.07535
1.05994
1.0469
1.03608
1.0273
1.02022
1.01441
1.00946
1.00501
1.00068
0.996239
0.991459
0.986276
0.980766
0.974967
0.969181
0.963485
0.958424
0.95448
0.952353
0.953942
0.959013
0.97137
0.993766
1.03612
1.10236
1.19412
1.31966
1.4399
1.51521
1.55049
1.56627
1.56755
1.56389
1.55669
1.54721
1.5393
1.53118
1.52443
1.51646
1.50967
1.50194
1.49601
1.48904
1.48449
1.47818
1.4758
1.47087
1.47051
1.46688
1.46914
1.4664
1.47141
1.46922
1.47636
1.47529
1.48374
1.48384
1.49344
1.49491
1.50623
1.50912
1.5221
1.52625
1.54021
1.54638
1.55867
4.11071
4.06368
3.92663
3.68189
3.46419
3.27391
3.09906
2.94072
2.79324
2.65269
2.51948
2.39388
2.27567
2.1649
2.06168
1.966
1.8777
1.79648
1.72197
1.65371
1.59108
1.53369
1.48083
1.43216
1.38714
1.34542
1.3067
1.27069
1.23729
1.20639
1.17787
1.15186
1.12818
1.10693
1.0881
1.07163
1.05743
1.04536
1.03524
1.02688
1.01989
1.01395
1.00865
1.00369
0.9989
0.994086
0.989253
0.984452
0.980186
0.976521
0.976088
0.977972
0.984288
0.999877
1.02756
1.08124
1.1596
1.28576
1.42916
1.54572
1.59932
1.62729
1.63282
1.63253
1.62391
1.61369
1.603
1.59341
1.58345
1.57324
1.56238
1.55182
1.54086
1.53103
1.52104
1.51322
1.50443
1.49874
1.49158
1.48815
1.4825
1.4818
1.47723
1.47915
1.47534
1.47966
1.47657
1.48249
1.4809
1.48786
1.48746
1.4958
1.49683
1.50671
1.50947
1.52072
1.52533
1.53682
1.54353
1.55246
4.07863
4.04053
3.96975
3.80479
3.57831
3.37703
3.20074
3.03573
2.88539
2.74501
2.61265
2.48698
2.36858
2.25692
2.15208
2.05407
1.96301
1.87878
1.8011
1.72976
1.66417
1.60392
1.5484
1.49704
1.44943
1.40509
1.36371
1.32508
1.28895
1.25529
1.22401
1.19504
1.16848
1.14424
1.1223
1.10267
1.08529
1.07004
1.0568
1.04535
1.03553
1.0271
1.0199
1.01357
1.00798
1.00291
0.998974
0.99606
0.996832
0.999923
1.00807
1.02548
1.05885
1.12359
1.21471
1.36997
1.53186
1.63219
1.67812
1.69851
1.69966
1.69334
1.68394
1.67188
1.66018
1.6487
1.63575
1.62234
1.60814
1.59417
1.57998
1.56685
1.55377
1.54284
1.53145
1.52283
1.51341
1.50737
1.49955
1.49633
1.4898
1.48907
1.48346
1.48494
1.48061
1.4834
1.48032
1.48446
1.48281
1.48822
1.48797
1.49479
1.4959
1.50409
1.50705
1.51589
1.52127
1.5295
1.53676
1.54305
3.83711
4.01121
3.98486
3.89593
3.70624
3.49011
3.30325
3.13784
2.98583
2.84348
2.70924
2.58265
2.46213
2.34867
2.24232
2.14233
2.049
1.96214
1.88168
1.80743
1.73902
1.676
1.61784
1.56399
1.51388
1.46714
1.4233
1.38223
1.34366
1.30755
1.27374
1.2423
1.21307
1.18618
1.16153
1.13911
1.11882
1.10062
1.0844
1.06997
1.05725
1.04603
1.03622
1.02781
1.02096
1.01591
1.01671
1.01993
1.02844
1.04699
1.08403
1.15645
1.25883
1.43385
1.61422
1.70522
1.75183
1.76321
1.76358
1.75424
1.74247
1.7297
1.71659
1.70231
1.68651
1.66995
1.65244
1.63557
1.61869
1.60296
1.58741
1.57365
1.56011
1.549
1.53735
1.52907
1.51921
1.51364
1.50538
1.50218
1.49516
1.49371
1.48799
1.48817
1.48364
1.48492
1.48182
1.48439
1.48274
1.48694
1.48672
1.49213
1.49349
1.4997
1.50323
1.50932
1.51517
1.52106
1.52757
1.53226
3.22152
3.88139
3.96109
3.9264
3.82946
3.62409
3.4261
3.24591
3.08488
2.94001
2.80511
2.67846
2.55895
2.44316
2.33322
2.23075
2.13509
2.04612
1.96337
1.88671
1.81578
1.75022
1.68946
1.63308
1.58049
1.53135
1.48523
1.44184
1.40107
1.36263
1.32662
1.29279
1.26131
1.23197
1.20492
1.17999
1.15716
1.13632
1.11736
1.1002
1.08475
1.0709
1.05877
1.04899
1.04392
1.04584
1.05378
1.07168
1.10841
1.17941
1.29037
1.47553
1.6729
1.76803
1.81937
1.82645
1.82351
1.81304
1.79932
1.78517
1.76973
1.75235
1.73344
1.71406
1.69457
1.67506
1.65619
1.63857
1.62161
1.60583
1.59076
1.57756
1.56449
1.55384
1.54244
1.53449
1.52444
1.51881
1.51001
1.50632
1.49846
1.49626
1.48996
1.48876
1.4839
1.48384
1.48032
1.48186
1.48
1.48297
1.48269
1.48665
1.48794
1.49237
1.49576
1.50014
1.50508
1.50991
1.51527
1.51881
2.20273
3.51089
3.90494
3.90543
3.85862
3.7429
3.5466
3.3631
3.19637
3.04125
2.90027
2.77063
2.64959
2.53555
2.42692
2.32168
2.22273
2.13098
2.04607
1.96725
1.89393
1.82596
1.76272
1.70392
1.64895
1.59753
1.54918
1.5037
1.46074
1.42024
1.38205
1.34612
1.31244
1.28096
1.25168
1.22453
1.19942
1.1763
1.15498
1.13553
1.11785
1.10235
1.08942
1.08867
1.09272
1.10718
1.14201
1.20657
1.31944
1.50966
1.72235
1.82685
1.88623
1.89225
1.88682
1.87318
1.85586
1.83857
1.81927
1.79848
1.77682
1.75522
1.73407
1.71353
1.69364
1.67473
1.65697
1.64021
1.62431
1.60946
1.59542
1.58271
1.57006
1.55976
1.54827
1.54019
1.52946
1.52331
1.51362
1.50871
1.50031
1.49667
1.48972
1.48725
1.4817
1.48044
1.47642
1.47674
1.47449
1.47606
1.47523
1.47772
1.47828
1.48132
1.4835
1.4871
1.49045
1.49457
1.49867
1.50108
1.84855
2.4967
3.6219
3.88298
3.86782
3.81148
3.68166
3.48648
3.30771
3.15059
3.00498
2.86786
2.74209
2.62566
2.51643
2.41303
2.31472
2.21973