/*--------------------------------*- C++ -*----------------------------------*\
  =========                 |
  \\      /  F ield         | OpenFOAM: The Open Source CFD Toolbox
   \\    /   O peration     | Website:  https://openfoam.org
    \\  /    A nd           | Version:  10
     \\/     M anipulation  |
\*---------------------------------------------------------------------------*/
FoamFile
{
    format      ascii;
    class       volScalarField;
    location    "0.42";
    object      Exp1;
}
// * * * * * * * * * * * * * * * * * * * * * * * * * * * * * * * * * * * * * //

dimensions      [0 0 0 0 0 0 0];

internalField   uniform 0;

boundaryField
{
    frontAndBack
    {
        type            empty;
    }
    inlet
    {
        type            calculated;
        value           uniform 0;
    }
    outlet
    {
        type            calculated;
        value           uniform 0;
    }
    substrate
    {
        type            calculated;
        value           nonuniform List<scalar> 
400
(
1.22039e-08
3.65454e-08
6.07323e-08
8.46952e-08
1.08374e-07
1.31716e-07
1.54675e-07
1.77208e-07
1.9928e-07
2.20859e-07
2.41918e-07
2.62434e-07
2.82389e-07
3.01766e-07
3.20553e-07
3.38742e-07
3.56327e-07
3.73303e-07
3.89671e-07
4.0543e-07
4.20584e-07
4.35136e-07
4.49095e-07
4.62465e-07
4.75256e-07
4.87478e-07
4.99139e-07
5.10251e-07
5.20826e-07
5.30874e-07
5.40407e-07
5.49438e-07
5.57979e-07
5.66042e-07
5.73639e-07
5.80784e-07
5.87487e-07
5.93761e-07
5.99617e-07
6.05068e-07
6.10125e-07
6.14798e-07
6.19099e-07
6.23039e-07
6.26628e-07
6.29876e-07
6.32793e-07
6.35389e-07
6.37673e-07
6.39654e-07
6.41341e-07
6.42743e-07
6.43867e-07
6.44723e-07
6.45317e-07
6.45658e-07
6.45753e-07
6.45609e-07
6.45234e-07
6.44634e-07
6.43815e-07
6.42785e-07
6.41549e-07
6.40114e-07
6.38486e-07
6.3667e-07
6.34673e-07
6.32499e-07
6.30155e-07
6.27645e-07
6.24975e-07
6.2215e-07
6.19175e-07
6.16055e-07
6.12794e-07
6.09398e-07
6.05871e-07
6.02217e-07
5.98441e-07
5.94547e-07
5.9054e-07
5.86424e-07
5.82203e-07
5.77881e-07
5.73462e-07
5.68951e-07
5.6435e-07
5.59664e-07
5.54897e-07
5.50052e-07
5.45134e-07
5.40145e-07
5.35089e-07
5.29971e-07
5.24792e-07
5.19558e-07
5.1427e-07
5.08933e-07
5.03549e-07
4.98122e-07
4.92656e-07
4.87152e-07
4.81615e-07
4.76047e-07
4.70451e-07
4.6483e-07
4.59187e-07
4.53525e-07
4.47847e-07
4.42155e-07
4.36451e-07
4.30739e-07
4.25022e-07
4.19301e-07
4.13579e-07
4.07858e-07
4.02141e-07
3.96431e-07
3.90728e-07
3.85037e-07
3.79358e-07
3.73693e-07
3.68046e-07
3.62417e-07
3.56809e-07
3.51224e-07
3.45663e-07
3.40128e-07
3.34621e-07
3.29144e-07
3.23698e-07
3.18285e-07
3.12906e-07
3.07562e-07
3.02256e-07
2.96988e-07
2.91761e-07
2.86574e-07
2.81429e-07
2.76327e-07
2.7127e-07
2.66259e-07
2.61294e-07
2.56376e-07
2.51507e-07
2.46687e-07
2.41917e-07
2.37198e-07
2.3253e-07
2.27915e-07
2.23352e-07
2.18842e-07
2.14386e-07
2.09985e-07
2.05638e-07
2.01347e-07
1.97111e-07
1.92931e-07
1.88807e-07
1.8474e-07
1.8073e-07
1.76776e-07
1.72879e-07
1.69039e-07
1.65256e-07
1.61531e-07
1.57862e-07
1.54251e-07
1.50697e-07
1.47199e-07
1.43759e-07
1.40375e-07
1.37048e-07
1.33778e-07
1.30563e-07
1.27404e-07
1.24301e-07
1.21253e-07
1.1826e-07
1.15322e-07
1.12437e-07
1.09607e-07
1.0683e-07
1.04107e-07
1.01436e-07
9.88165e-08
9.62493e-08
9.37332e-08
9.12678e-08
8.88526e-08
8.64871e-08
8.41707e-08
8.19029e-08
7.96831e-08
7.75108e-08
7.53854e-08
7.33062e-08
7.12728e-08
6.92845e-08
6.73406e-08
6.54407e-08
6.3584e-08
6.177e-08
5.99981e-08
5.82675e-08
5.65777e-08
5.4928e-08
5.33178e-08
5.17465e-08
5.02134e-08
4.87179e-08
4.72594e-08
4.58372e-08
4.44507e-08
4.30992e-08
4.17821e-08
4.04988e-08
3.92487e-08
3.80311e-08
3.68455e-08
3.56911e-08
3.45674e-08
3.34738e-08
3.24097e-08
3.13744e-08
3.03675e-08
2.93882e-08
2.8436e-08
2.75103e-08
2.66106e-08
2.57363e-08
2.48868e-08
2.40616e-08
2.32601e-08
2.24819e-08
2.17262e-08
2.09927e-08
2.02808e-08
1.959e-08
1.89198e-08
1.82697e-08
1.76393e-08
1.70279e-08
1.64352e-08
1.58607e-08
1.53039e-08
1.47644e-08
1.42417e-08
1.37354e-08
1.32451e-08
1.27703e-08
1.23107e-08
1.18658e-08
1.14353e-08
1.10187e-08
1.06156e-08
1.02258e-08
9.84875e-09
9.48419e-09
9.13174e-09
8.79107e-09
8.46182e-09
8.14369e-09
7.83633e-09
7.53945e-09
7.25272e-09
6.97586e-09
6.70856e-09
6.45054e-09
6.20151e-09
5.96122e-09
5.72938e-09
5.50574e-09
5.29005e-09
5.08205e-09
4.88151e-09
4.68819e-09
4.50186e-09
4.3223e-09
4.14929e-09
3.98262e-09
3.82209e-09
3.66749e-09
3.51863e-09
3.37531e-09
3.23736e-09
3.1046e-09
2.97685e-09
2.85394e-09
2.73571e-09
2.622e-09
2.51265e-09
2.40751e-09
2.30644e-09
2.20929e-09
2.11594e-09
2.02623e-09
1.94005e-09
1.85727e-09
1.77777e-09
1.70143e-09
1.62813e-09
1.55777e-09
1.49024e-09
1.42544e-09
1.36326e-09
1.30361e-09
1.24639e-09
1.19151e-09
1.1389e-09
1.08845e-09
1.04009e-09
9.93742e-10
9.49326e-10
9.06769e-10
8.65999e-10
8.26948e-10
7.89548e-10
7.53736e-10
7.19449e-10
6.86628e-10
6.55214e-10
6.25152e-10
5.96388e-10
5.6887e-10
5.42549e-10
5.17375e-10
4.93304e-10
4.70289e-10
4.48289e-10
4.27261e-10
4.07166e-10
3.87966e-10
3.69622e-10
3.52101e-10
3.35367e-10
3.19388e-10
3.04132e-10
2.89568e-10
2.75668e-10
2.62404e-10
2.49747e-10
2.37674e-10
2.26157e-10
2.15175e-10
2.04703e-10
1.9472e-10
1.85204e-10
1.76136e-10
1.67496e-10
1.59265e-10
1.51425e-10
1.4396e-10
1.36852e-10
1.30086e-10
1.23648e-10
1.17522e-10
1.11695e-10
1.06154e-10
1.00886e-10
9.58785e-11
9.11207e-11
8.66014e-11
8.23099e-11
7.82363e-11
7.43709e-11
7.07047e-11
6.72288e-11
6.3935e-11
6.08154e-11
5.78623e-11
5.50688e-11
5.24278e-11
4.9933e-11
4.75783e-11
4.53577e-11
4.32659e-11
4.12975e-11
3.94476e-11
3.77117e-11
3.60853e-11
3.45643e-11
3.31448e-11
3.18232e-11
3.05962e-11
2.94606e-11
2.84134e-11
2.7452e-11
2.65739e-11
2.57768e-11
2.50587e-11
2.44175e-11
2.38518e-11
2.336e-11
2.29409e-11
2.25932e-11
2.23162e-11
2.21091e-11
2.19713e-11
2.19025e-11
)
;
    }
    Wall
    {
        type            calculated;
        value           nonuniform List<scalar> 
400
(
1.22039e-08
3.65457e-08
6.0733e-08
8.46964e-08
1.08376e-07
1.31718e-07
1.54676e-07
1.77209e-07
1.99281e-07
2.20859e-07
2.41918e-07
2.62434e-07
2.82388e-07
3.01764e-07
3.20551e-07
3.3874e-07
3.56324e-07
3.733e-07
3.89667e-07
4.05425e-07
4.20579e-07
4.35131e-07
4.49089e-07
4.62459e-07
4.75249e-07
4.8747e-07
4.99131e-07
5.10243e-07
5.20817e-07
5.30864e-07
5.40397e-07
5.49428e-07
5.57968e-07
5.66031e-07
5.73628e-07
5.80772e-07
5.87475e-07
5.93748e-07
5.99604e-07
6.05055e-07
6.10111e-07
6.14785e-07
6.19086e-07
6.23025e-07
6.26614e-07
6.29862e-07
6.32779e-07
6.35374e-07
6.37658e-07
6.39639e-07
6.41325e-07
6.42727e-07
6.43851e-07
6.44707e-07
6.45301e-07
6.45642e-07
6.45737e-07
6.45593e-07
6.45217e-07
6.44617e-07
6.43798e-07
6.42768e-07
6.41532e-07
6.40097e-07
6.38469e-07
6.36653e-07
6.34656e-07
6.32482e-07
6.30138e-07
6.27628e-07
6.24958e-07
6.22133e-07
6.19158e-07
6.16038e-07
6.12777e-07
6.09381e-07
6.05854e-07
6.022e-07
5.98424e-07
5.9453e-07
5.90524e-07
5.86408e-07
5.82186e-07
5.77865e-07
5.73446e-07
5.68934e-07
5.64334e-07
5.59648e-07
5.54881e-07
5.50036e-07
5.45118e-07
5.40129e-07
5.35074e-07
5.29955e-07
5.24777e-07
5.19542e-07
5.14255e-07
5.08918e-07
5.03534e-07
4.98108e-07
4.92641e-07
4.87138e-07
4.81601e-07
4.76033e-07
4.70437e-07
4.64816e-07
4.59174e-07
4.53512e-07
4.47833e-07
4.42141e-07
4.36438e-07
4.30726e-07
4.25009e-07
4.19288e-07
4.13566e-07
4.07846e-07
4.02129e-07
3.96419e-07
3.90717e-07
3.85025e-07
3.79346e-07
3.73682e-07
3.68035e-07
3.62406e-07
3.56798e-07
3.51213e-07
3.45652e-07
3.40118e-07
3.34611e-07
3.29134e-07
3.23688e-07
3.18275e-07
3.12896e-07
3.07553e-07
3.02247e-07
2.96979e-07
2.91752e-07
2.86565e-07
2.8142e-07
2.76319e-07
2.71262e-07
2.66251e-07
2.61286e-07
2.56369e-07
2.515e-07
2.4668e-07
2.4191e-07
2.37191e-07
2.32523e-07
2.27908e-07
2.23345e-07
2.18835e-07
2.1438e-07
2.09978e-07
2.05632e-07
2.01341e-07
1.97105e-07
1.92925e-07
1.88802e-07
1.84735e-07
1.80724e-07
1.7677e-07
1.72873e-07
1.69034e-07
1.65251e-07
1.61526e-07
1.57857e-07
1.54246e-07
1.50692e-07
1.47195e-07
1.43755e-07
1.40371e-07
1.37044e-07
1.33773e-07
1.30559e-07
1.274e-07
1.24297e-07
1.21249e-07
1.18256e-07
1.15318e-07
1.12434e-07
1.09604e-07
1.06827e-07
1.04103e-07
1.01432e-07
9.88136e-08
9.62464e-08
9.37304e-08
9.12651e-08
8.88499e-08
8.64845e-08
8.41682e-08
8.19005e-08
7.96807e-08
7.75085e-08
7.53831e-08
7.33041e-08
7.12707e-08
6.92824e-08
6.73387e-08
6.54388e-08
6.35822e-08
6.17682e-08
5.99963e-08
5.82658e-08
5.6576e-08
5.49264e-08
5.33163e-08
5.1745e-08
5.0212e-08
4.87165e-08
4.7258e-08
4.58359e-08
4.44494e-08
4.30979e-08
4.17809e-08
4.04977e-08
3.92476e-08
3.80301e-08
3.68444e-08
3.56901e-08
3.45665e-08
3.34729e-08
3.24088e-08
3.13736e-08
3.03666e-08
2.93874e-08
2.84352e-08
2.75096e-08
2.66099e-08
2.57356e-08
2.48861e-08
2.4061e-08
2.32595e-08
2.24812e-08
2.17256e-08
2.09921e-08
2.02803e-08
1.95895e-08
1.89193e-08
1.82693e-08
1.76388e-08
1.70274e-08
1.64348e-08
1.58603e-08
1.53035e-08
1.4764e-08
1.42413e-08
1.37351e-08
1.32448e-08
1.277e-08
1.23104e-08
1.18655e-08
1.1435e-08
1.10184e-08
1.06154e-08
1.02255e-08
9.8485e-09
9.48395e-09
9.13151e-09
8.79085e-09
8.46161e-09
8.14349e-09
7.83614e-09
7.53926e-09
7.25254e-09
6.97569e-09
6.70839e-09
6.45038e-09
6.20136e-09
5.96107e-09
5.72924e-09
5.50561e-09
5.28992e-09
5.08193e-09
4.88139e-09
4.68808e-09
4.50176e-09
4.3222e-09
4.1492e-09
3.98253e-09
3.822e-09
3.66741e-09
3.51855e-09
3.37524e-09
3.23729e-09
3.10453e-09
2.97679e-09
2.85388e-09
2.73565e-09
2.62194e-09
2.51259e-09
2.40746e-09
2.30639e-09
2.20925e-09
2.11589e-09
2.02619e-09
1.94001e-09
1.85723e-09
1.77773e-09
1.70139e-09
1.6281e-09
1.55774e-09
1.49021e-09
1.42541e-09
1.36323e-09
1.30358e-09
1.24636e-09
1.19149e-09
1.13887e-09
1.08843e-09
1.04007e-09
9.93723e-10
9.49308e-10
9.06752e-10
8.65983e-10
8.26933e-10
7.89534e-10
7.53723e-10
7.19437e-10
6.86616e-10
6.55203e-10
6.25141e-10
5.96378e-10
5.68861e-10
5.4254e-10
5.17367e-10
4.93296e-10
4.70282e-10
4.48282e-10
4.27255e-10
4.0716e-10
3.8796e-10
3.69617e-10
3.52095e-10
3.35362e-10
3.19383e-10
3.04127e-10
2.89564e-10
2.75664e-10
2.624e-10
2.49744e-10
2.3767e-10
2.26154e-10
2.15172e-10
2.047e-10
1.94717e-10
1.85202e-10
1.76134e-10
1.67494e-10
1.59263e-10
1.51423e-10
1.43958e-10
1.3685e-10
1.30085e-10
1.23647e-10
1.17521e-10
1.11694e-10
1.06153e-10
1.00885e-10
9.58775e-11
9.11198e-11
8.66005e-11
8.23091e-11
7.82355e-11
7.43702e-11
7.0704e-11
6.72282e-11
6.39345e-11
6.08149e-11
5.78619e-11
5.50683e-11
5.24274e-11
4.99327e-11
4.75779e-11
4.53574e-11
4.32656e-11
4.12972e-11
3.94474e-11
3.77115e-11
3.60851e-11
3.45641e-11
3.31446e-11
3.18231e-11
3.05961e-11
2.94604e-11
2.84133e-11
2.74519e-11
2.65738e-11
2.57767e-11
2.50586e-11
2.44175e-11
2.38518e-11
2.336e-11
2.29408e-11
2.25932e-11
2.23161e-11
2.2109e-11
2.19712e-11
2.19024e-11
)
;
    }
}


// ************************************************************************* //
