/*--------------------------------*- C++ -*----------------------------------*\
  =========                 |
  \\      /  F ield         | OpenFOAM: The Open Source CFD Toolbox
   \\    /   O peration     | Website:  https://openfoam.org
    \\  /    A nd           | Version:  10
     \\/     M anipulation  |
\*---------------------------------------------------------------------------*/
FoamFile
{
    format      ascii;
    class       volScalarField;
    location    "0.42";
    object      N1;
}
// * * * * * * * * * * * * * * * * * * * * * * * * * * * * * * * * * * * * * //

dimensions      [0 0 0 0 0 0 0];

internalField   nonuniform List<scalar> 
8000
(
9.26389e-08
2.77525e-07
4.61373e-07
6.43651e-07
8.23898e-07
1.00171e-06
1.17672e-06
1.34861e-06
1.51711e-06
1.68197e-06
1.84297e-06
1.99994e-06
2.15271e-06
2.30117e-06
2.44522e-06
2.58479e-06
2.7198e-06
2.85024e-06
2.97608e-06
3.09733e-06
3.214e-06
3.32612e-06
3.43372e-06
3.53685e-06
3.63558e-06
3.72997e-06
3.82008e-06
3.906e-06
3.98781e-06
4.06559e-06
4.13942e-06
4.20941e-06
4.27563e-06
4.33818e-06
4.39716e-06
4.45265e-06
4.50474e-06
4.55352e-06
4.59909e-06
4.64153e-06
4.68092e-06
4.71736e-06
4.75093e-06
4.7817e-06
4.80976e-06
4.83519e-06
4.85805e-06
4.87843e-06
4.8964e-06
4.91202e-06
4.92536e-06
4.9365e-06
4.94549e-06
4.9524e-06
4.95729e-06
4.96021e-06
4.96123e-06
4.9604e-06
4.95778e-06
4.95341e-06
4.94736e-06
4.93966e-06
4.93037e-06
4.91954e-06
4.90721e-06
4.89344e-06
4.87825e-06
4.8617e-06
4.84383e-06
4.82468e-06
4.80429e-06
4.78269e-06
4.75994e-06
4.73606e-06
4.7111e-06
4.68509e-06
4.65806e-06
4.63006e-06
4.60111e-06
4.57125e-06
4.54051e-06
4.50893e-06
4.47654e-06
4.44337e-06
4.40945e-06
4.37481e-06
4.33948e-06
4.3035e-06
4.26688e-06
4.22967e-06
4.19189e-06
4.15356e-06
4.11472e-06
4.07539e-06
4.0356e-06
3.99537e-06
3.95473e-06
3.91371e-06
3.87233e-06
3.83062e-06
3.7886e-06
3.7463e-06
3.70373e-06
3.66093e-06
3.61791e-06
3.5747e-06
3.53132e-06
3.48779e-06
3.44413e-06
3.40036e-06
3.35651e-06
3.31259e-06
3.26863e-06
3.22464e-06
3.18064e-06
3.13666e-06
3.0927e-06
3.04878e-06
3.00494e-06
2.96117e-06
2.9175e-06
2.87394e-06
2.83051e-06
2.78723e-06
2.7441e-06
2.70115e-06
2.65839e-06
2.61582e-06
2.57348e-06
2.53135e-06
2.48947e-06
2.44784e-06
2.40648e-06
2.36538e-06
2.32458e-06
2.28407e-06
2.24386e-06
2.20397e-06
2.1644e-06
2.12517e-06
2.08628e-06
2.04774e-06
2.00956e-06
1.97174e-06
1.93429e-06
1.89722e-06
1.86054e-06
1.82424e-06
1.78834e-06
1.75285e-06
1.71775e-06
1.68307e-06
1.64881e-06
1.61496e-06
1.58153e-06
1.54852e-06
1.51595e-06
1.4838e-06
1.45208e-06
1.4208e-06
1.38996e-06
1.35955e-06
1.32958e-06
1.30005e-06
1.27096e-06
1.2423e-06
1.21409e-06
1.18632e-06
1.15898e-06
1.13209e-06
1.10563e-06
1.0796e-06
1.05402e-06
1.02886e-06
1.00414e-06
9.79844e-07
9.55978e-07
9.32537e-07
9.09518e-07
8.86919e-07
8.64738e-07
8.42971e-07
8.21615e-07
8.00668e-07
7.80125e-07
7.59982e-07
7.40238e-07
7.20887e-07
7.01926e-07
6.83352e-07
6.65159e-07
6.47344e-07
6.29902e-07
6.12831e-07
5.96124e-07
5.79777e-07
5.63787e-07
5.48148e-07
5.32856e-07
5.17906e-07
5.03294e-07
4.89015e-07
4.75064e-07
4.61436e-07
4.48126e-07
4.3513e-07
4.22443e-07
4.10059e-07
3.97974e-07
3.86184e-07
3.74682e-07
3.63465e-07
3.52527e-07
3.41863e-07
3.31469e-07
3.2134e-07
3.1147e-07
3.01856e-07
2.92492e-07
2.83373e-07
2.74495e-07
2.65853e-07
2.57442e-07
2.49258e-07
2.41296e-07
2.33552e-07
2.2602e-07
2.18697e-07
2.11578e-07
2.04658e-07
1.97934e-07
1.91401e-07
1.85054e-07
1.7889e-07
1.72905e-07
1.67093e-07
1.61452e-07
1.55977e-07
1.50664e-07
1.4551e-07
1.4051e-07
1.35661e-07
1.30959e-07
1.26401e-07
1.21982e-07
1.177e-07
1.13551e-07
1.09531e-07
1.05637e-07
1.01866e-07
9.82148e-08
9.46799e-08
9.12583e-08
8.7947e-08
8.47429e-08
8.16432e-08
7.86449e-08
7.57452e-08
7.29414e-08
7.02308e-08
6.76108e-08
6.50786e-08
6.26319e-08
6.02681e-08
5.79847e-08
5.57796e-08
5.36503e-08
5.15945e-08
4.96101e-08
4.76949e-08
4.58468e-08
4.40638e-08
4.23438e-08
4.06849e-08
3.90853e-08
3.75429e-08
3.60561e-08
3.46231e-08
3.32422e-08
3.19116e-08
3.06298e-08
2.93951e-08
2.82061e-08
2.70612e-08
2.5959e-08
2.48981e-08
2.3877e-08
2.28945e-08
2.19492e-08
2.10399e-08
2.01654e-08
1.93244e-08
1.85158e-08
1.77385e-08
1.69913e-08
1.62733e-08
1.55834e-08
1.49206e-08
1.4284e-08
1.36726e-08
1.30854e-08
1.25217e-08
1.19806e-08
1.14612e-08
1.09628e-08
1.04846e-08
1.00258e-08
9.58579e-09
9.16376e-09
8.75908e-09
8.3711e-09
7.99918e-09
7.64272e-09
7.30112e-09
6.97382e-09
6.66027e-09
6.35993e-09
6.0723e-09
5.79687e-09
5.53318e-09
5.28075e-09
5.03915e-09
4.80795e-09
4.58673e-09
4.37509e-09
4.17266e-09
3.97906e-09
3.79393e-09
3.61693e-09
3.44772e-09
3.286e-09
3.13145e-09
2.98378e-09
2.84271e-09
2.70795e-09
2.57926e-09
2.45636e-09
2.33903e-09
2.22702e-09
2.12012e-09
2.01811e-09
1.92077e-09
1.82791e-09
1.73934e-09
1.65488e-09
1.57434e-09
1.49756e-09
1.42438e-09
1.35464e-09
1.28819e-09
1.22488e-09
1.16459e-09
1.10717e-09
1.05251e-09
1.00048e-09
9.50958e-10
9.03845e-10
8.59031e-10
8.16414e-10
7.75897e-10
7.37387e-10
7.00796e-10
6.66038e-10
6.33033e-10
6.01704e-10
5.71976e-10
5.43779e-10
5.17047e-10
4.91715e-10
4.67722e-10
4.45011e-10
4.23526e-10
4.03214e-10
3.84027e-10
3.65917e-10
3.48839e-10
3.32751e-10
3.17613e-10
3.03386e-10
2.90035e-10
2.77526e-10
2.65829e-10
2.54912e-10
2.44748e-10
2.35311e-10
2.26577e-10
2.18523e-10
2.11129e-10
2.04376e-10
1.98246e-10
1.92722e-10
1.87792e-10
1.83441e-10
1.79659e-10
1.76435e-10
1.73761e-10
1.71631e-10
1.70037e-10
1.68978e-10
1.68449e-10
9.35867e-08
2.80451e-07
4.66433e-07
6.51021e-07
8.33757e-07
1.01423e-06
1.19208e-06
1.36698e-06
1.53864e-06
1.70679e-06
1.87121e-06
2.03172e-06
2.18814e-06
2.34033e-06
2.48818e-06
2.6316e-06
2.77052e-06
2.90489e-06
3.03468e-06
3.15987e-06
3.28048e-06
3.39651e-06
3.50799e-06
3.61495e-06
3.71746e-06
3.81556e-06
3.90931e-06
3.9988e-06
4.08408e-06
4.16524e-06
4.24236e-06
4.31553e-06
4.38484e-06
4.45036e-06
4.5122e-06
4.57043e-06
4.62516e-06
4.67646e-06
4.72443e-06
4.76916e-06
4.81074e-06
4.84924e-06
4.88475e-06
4.91736e-06
4.94715e-06
4.97419e-06
4.99857e-06
5.02035e-06
5.03962e-06
5.05644e-06
5.07089e-06
5.08303e-06
5.09293e-06
5.10065e-06
5.10627e-06
5.10983e-06
5.11141e-06
5.11105e-06
5.10882e-06
5.10477e-06
5.09895e-06
5.09142e-06
5.08222e-06
5.07142e-06
5.05905e-06
5.04517e-06
5.02981e-06
5.01303e-06
4.99488e-06
4.97538e-06
4.95459e-06
4.93255e-06
4.9093e-06
4.88487e-06
4.85932e-06
4.83266e-06
4.80495e-06
4.77622e-06
4.74651e-06
4.71584e-06
4.68426e-06
4.65181e-06
4.6185e-06
4.58439e-06
4.54949e-06
4.51385e-06
4.47749e-06
4.44044e-06
4.40274e-06
4.36442e-06
4.3255e-06
4.28602e-06
4.246e-06
4.20547e-06
4.16446e-06
4.123e-06
4.08111e-06
4.03882e-06
3.99616e-06
3.95316e-06
3.90983e-06
3.8662e-06
3.82231e-06
3.77816e-06
3.73379e-06
3.68922e-06
3.64447e-06
3.59957e-06
3.55453e-06
3.50938e-06
3.46415e-06
3.41884e-06
3.37348e-06
3.32809e-06
3.2827e-06
3.23731e-06
3.19195e-06
3.14664e-06
3.1014e-06
3.05623e-06
3.01117e-06
2.96622e-06
2.92141e-06
2.87674e-06
2.83224e-06
2.78791e-06
2.74378e-06
2.69986e-06
2.65615e-06
2.61268e-06
2.56946e-06
2.5265e-06
2.4838e-06
2.44139e-06
2.39928e-06
2.35747e-06
2.31597e-06
2.2748e-06
2.23397e-06
2.19348e-06
2.15334e-06
2.11356e-06
2.07415e-06
2.03512e-06
1.99647e-06
1.95821e-06
1.92035e-06
1.88289e-06
1.84584e-06
1.8092e-06
1.77298e-06
1.73718e-06
1.70182e-06
1.66688e-06
1.63238e-06
1.59831e-06
1.56469e-06
1.53151e-06
1.49877e-06
1.46649e-06
1.43465e-06
1.40327e-06
1.37233e-06
1.34185e-06
1.31183e-06
1.28225e-06
1.25313e-06
1.22447e-06
1.19625e-06
1.16849e-06
1.14118e-06
1.11432e-06
1.08791e-06
1.06195e-06
1.03643e-06
1.01135e-06
9.86719e-07
9.62525e-07
9.38766e-07
9.15441e-07
8.92546e-07
8.70079e-07
8.48037e-07
8.26416e-07
8.05212e-07
7.84422e-07
7.64043e-07
7.4407e-07
7.24499e-07
7.05327e-07
6.86549e-07
6.68161e-07
6.50159e-07
6.32538e-07
6.15294e-07
5.98422e-07
5.81918e-07
5.65776e-07
5.49992e-07
5.34562e-07
5.1948e-07
5.04741e-07
4.90341e-07
4.76275e-07
4.62537e-07
4.49123e-07
4.36028e-07
4.23246e-07
4.10773e-07
3.98603e-07
3.86732e-07
3.75154e-07
3.63864e-07
3.52857e-07
3.42129e-07
3.31674e-07
3.21487e-07
3.11563e-07
3.01898e-07
2.92486e-07
2.83322e-07
2.74402e-07
2.65721e-07
2.57274e-07
2.49056e-07
2.41062e-07
2.33289e-07
2.2573e-07
2.18382e-07
2.1124e-07
2.043e-07
1.97556e-07
1.91005e-07
1.84643e-07
1.78465e-07
1.72467e-07
1.66644e-07
1.60993e-07
1.55509e-07
1.50189e-07
1.45028e-07
1.40024e-07
1.35171e-07
1.30466e-07
1.25905e-07
1.21485e-07
1.17202e-07
1.13053e-07
1.09034e-07
1.05142e-07
1.01373e-07
9.77247e-08
9.41931e-08
9.07753e-08
8.74682e-08
8.42687e-08
8.1174e-08
7.81811e-08
7.52872e-08
7.24894e-08
6.97851e-08
6.71715e-08
6.46461e-08
6.22062e-08
5.98495e-08
5.75734e-08
5.53756e-08
5.32537e-08
5.12055e-08
4.92287e-08
4.73212e-08
4.54808e-08
4.37056e-08
4.19933e-08
4.03422e-08
3.87503e-08
3.72157e-08
3.57366e-08
3.43112e-08
3.29378e-08
3.16148e-08
3.03404e-08
2.91132e-08
2.79315e-08
2.67938e-08
2.56988e-08
2.46449e-08
2.36308e-08
2.26551e-08
2.17166e-08
2.08139e-08
1.99458e-08
1.91112e-08
1.83089e-08
1.75378e-08
1.67967e-08
1.60846e-08
1.54005e-08
1.47434e-08
1.41123e-08
1.35062e-08
1.29244e-08
1.23659e-08
1.18298e-08
1.13154e-08
1.08218e-08
1.03483e-08
9.89406e-09
9.45846e-09
9.04076e-09
8.6403e-09
8.25642e-09
7.8885e-09
7.53592e-09
7.19809e-09
6.87445e-09
6.56446e-09
6.26757e-09
5.98329e-09
5.71112e-09
5.45057e-09
5.2012e-09
4.96257e-09
4.73423e-09
4.51579e-09
4.30685e-09
4.10702e-09
3.91593e-09
3.73324e-09
3.5586e-09
3.39168e-09
3.23216e-09
3.07974e-09
2.93413e-09
2.79504e-09
2.6622e-09
2.53536e-09
2.41425e-09
2.29864e-09
2.1883e-09
2.08301e-09
1.98254e-09
1.88669e-09
1.79528e-09
1.7081e-09
1.62497e-09
1.54572e-09
1.47019e-09
1.3982e-09
1.32961e-09
1.26427e-09
1.20204e-09
1.14278e-09
1.08636e-09
1.03265e-09
9.8154e-10
9.32912e-10
8.86657e-10
8.42669e-10
8.00849e-10
7.61101e-10
7.23332e-10
6.87457e-10
6.53391e-10
6.21053e-10
5.9037e-10
5.61266e-10
5.33674e-10
5.07527e-10
4.82763e-10
4.59321e-10
4.37146e-10
4.16181e-10
3.96377e-10
3.77685e-10
3.60058e-10
3.43452e-10
3.27827e-10
3.13142e-10
2.99362e-10
2.86451e-10
2.74377e-10
2.63109e-10
2.52618e-10
2.42878e-10
2.33863e-10
2.25551e-10
2.17919e-10
2.10948e-10
2.04621e-10
1.9892e-10
1.93831e-10
1.8934e-10
1.85436e-10
1.82109e-10
1.79349e-10
1.7715e-10
1.75506e-10
1.74412e-10
1.73866e-10
9.45151e-08
2.83279e-07
4.71257e-07
6.57966e-07
8.42963e-07
1.02584e-06
1.20624e-06
1.38382e-06
1.55829e-06
1.72937e-06
1.89685e-06
2.0605e-06
2.22015e-06
2.37566e-06
2.52689e-06
2.67374e-06
2.81612e-06
2.95399e-06
3.08729e-06
3.21599e-06
3.3401e-06
3.45961e-06
3.57455e-06
3.68493e-06
3.7908e-06
3.89221e-06
3.98922e-06
4.08188e-06
4.17027e-06
4.25445e-06
4.33451e-06
4.41053e-06
4.48259e-06
4.55077e-06
4.61517e-06
4.67587e-06
4.73296e-06
4.78652e-06
4.83666e-06
4.88344e-06
4.92697e-06
4.96732e-06
5.00459e-06
5.03885e-06
5.07019e-06
5.09869e-06
5.12442e-06
5.14747e-06
5.16791e-06
5.18581e-06
5.20125e-06
5.2143e-06
5.22502e-06
5.23349e-06
5.23976e-06
5.24391e-06
5.24598e-06
5.24606e-06
5.24418e-06
5.24042e-06
5.23482e-06
5.22744e-06
5.21834e-06
5.20756e-06
5.19516e-06
5.18118e-06
5.16568e-06
5.1487e-06
5.13029e-06
5.11049e-06
5.08935e-06
5.06691e-06
5.04321e-06
5.0183e-06
4.99221e-06
4.96499e-06
4.93666e-06
4.90729e-06
4.87689e-06
4.8455e-06
4.81317e-06
4.77993e-06
4.74581e-06
4.71085e-06
4.67508e-06
4.63854e-06
4.60126e-06
4.56326e-06
4.52459e-06
4.48527e-06
4.44533e-06
4.40481e-06
4.36374e-06
4.32214e-06
4.28004e-06
4.23747e-06
4.19446e-06
4.15104e-06
4.10723e-06
4.06306e-06
4.01856e-06
3.97375e-06
3.92866e-06
3.88331e-06
3.83773e-06
3.79194e-06
3.74597e-06
3.69984e-06
3.65356e-06
3.60717e-06
3.56069e-06
3.51413e-06
3.46753e-06
3.42089e-06
3.37424e-06
3.3276e-06
3.28099e-06
3.23442e-06
3.18792e-06
3.14151e-06
3.09519e-06
3.049e-06
3.00294e-06
2.95703e-06
2.91129e-06
2.86574e-06
2.82038e-06
2.77523e-06
2.73031e-06
2.68563e-06
2.64121e-06
2.59705e-06
2.55317e-06
2.50958e-06
2.46629e-06
2.42331e-06
2.38066e-06
2.33834e-06
2.29637e-06
2.25475e-06
2.21349e-06
2.1726e-06
2.1321e-06
2.09197e-06
2.05225e-06
2.01292e-06
1.974e-06
1.9355e-06
1.89741e-06
1.85975e-06
1.82252e-06
1.78572e-06
1.74937e-06
1.71346e-06
1.67799e-06
1.64297e-06
1.60841e-06
1.5743e-06
1.54066e-06
1.50747e-06
1.47474e-06
1.44248e-06
1.41068e-06
1.37935e-06
1.34848e-06
1.31809e-06
1.28815e-06
1.25868e-06
1.22968e-06
1.20115e-06
1.17307e-06
1.14546e-06
1.11831e-06
1.09162e-06
1.06539e-06
1.03962e-06
1.0143e-06
9.89425e-07
9.65002e-07
9.41025e-07
9.17491e-07
8.94396e-07
8.71738e-07
8.49512e-07
8.27716e-07
8.06345e-07
7.85397e-07
7.64865e-07
7.44748e-07
7.2504e-07
7.05737e-07
6.86836e-07
6.6833e-07
6.50217e-07
6.32491e-07
6.15147e-07
5.98182e-07
5.81589e-07
5.65364e-07
5.49502e-07
5.33999e-07
5.18848e-07
5.04046e-07
4.89587e-07
4.75465e-07
4.61676e-07
4.48215e-07
4.35076e-07
4.22254e-07
4.09744e-07
3.97541e-07
3.85639e-07
3.74034e-07
3.62719e-07
3.51691e-07
3.40944e-07
3.30472e-07
3.20271e-07
3.10336e-07
3.00661e-07
2.91241e-07
2.82072e-07
2.73148e-07
2.64465e-07
2.56017e-07
2.478e-07
2.39809e-07
2.32039e-07
2.24486e-07
2.17144e-07
2.1001e-07
2.03078e-07
1.96344e-07
1.89804e-07
1.83453e-07
1.77287e-07
1.71302e-07
1.65493e-07
1.59856e-07
1.54387e-07
1.49082e-07
1.43937e-07
1.38949e-07
1.34112e-07
1.29424e-07
1.2488e-07
1.20478e-07
1.16213e-07
1.12082e-07
1.08081e-07
1.04207e-07
1.00456e-07
9.68258e-08
9.33124e-08
8.99129e-08
8.66241e-08
8.34428e-08
8.03663e-08
7.73915e-08
7.45155e-08
7.17356e-08
6.90489e-08
6.64529e-08
6.39449e-08
6.15223e-08
5.91826e-08
5.69234e-08
5.47422e-08
5.26367e-08
5.06047e-08
4.86438e-08
4.6752e-08
4.49271e-08
4.31671e-08
4.14698e-08
3.98334e-08
3.82559e-08
3.67354e-08
3.52702e-08
3.38584e-08
3.24984e-08
3.11884e-08
2.99269e-08
2.87122e-08
2.75427e-08
2.64171e-08
2.53337e-08
2.42913e-08
2.32883e-08
2.23235e-08
2.13956e-08
2.05033e-08
1.96454e-08
1.88207e-08
1.8028e-08
1.72661e-08
1.65342e-08
1.58309e-08
1.51554e-08
1.45067e-08
1.38837e-08
1.32857e-08
1.27115e-08
1.21605e-08
1.16317e-08
1.11243e-08
1.06375e-08
1.01706e-08
9.72282e-09
9.29346e-09
8.8818e-09
8.4872e-09
8.10899e-09
7.74655e-09
7.39928e-09
7.0666e-09
6.74794e-09
6.44276e-09
6.15053e-09
5.87075e-09
5.60292e-09
5.34658e-09
5.10127e-09
4.86656e-09
4.64201e-09
4.42723e-09
4.22181e-09
4.02539e-09
3.83759e-09
3.65806e-09
3.48648e-09
3.3225e-09
3.16582e-09
3.01614e-09
2.87316e-09
2.73661e-09
2.60622e-09
2.48173e-09
2.36289e-09
2.24947e-09
2.14123e-09
2.03795e-09
1.93943e-09
1.84546e-09
1.75584e-09
1.67039e-09
1.58893e-09
1.51128e-09
1.43728e-09
1.36678e-09
1.29961e-09
1.23564e-09
1.17472e-09
1.11672e-09
1.06151e-09
1.00897e-09
9.58988e-10
9.11439e-10
8.66222e-10
8.23233e-10
7.82374e-10
7.4355e-10
7.06672e-10
6.71653e-10
6.38413e-10
6.06871e-10
5.76954e-10
5.48591e-10
5.21713e-10
4.96257e-10
4.7216e-10
4.49364e-10
4.27814e-10
4.07456e-10
3.88241e-10
3.70122e-10
3.53052e-10
3.3699e-10
3.21895e-10
3.0773e-10
2.94458e-10
2.82046e-10
2.70463e-10
2.59679e-10
2.49667e-10
2.404e-10
2.31855e-10
2.2401e-10
2.16845e-10
2.1034e-10
2.0448e-10
1.99249e-10
1.94632e-10
1.90619e-10
1.87199e-10
1.84362e-10
1.82101e-10
1.80411e-10
1.79287e-10
1.78725e-10
9.53846e-08
2.85911e-07
4.75715e-07
6.6434e-07
8.51358e-07
1.03637e-06
1.21902e-06
1.39896e-06
1.5759e-06
1.74956e-06
1.9197e-06
2.08611e-06
2.2486e-06
2.40701e-06
2.56119e-06
2.71104e-06
2.85646e-06
2.99739e-06
3.13376e-06
3.26554e-06
3.39272e-06
3.51528e-06
3.63324e-06
3.74662e-06
3.85545e-06
3.95977e-06
4.05963e-06
4.15508e-06
4.2462e-06
4.33304e-06
4.41569e-06
4.49421e-06
4.5687e-06
4.63923e-06
4.70588e-06
4.76875e-06
4.82792e-06
4.88348e-06
4.93552e-06
4.98412e-06
5.02937e-06
5.07136e-06
5.11017e-06
5.14589e-06
5.17861e-06
5.20839e-06
5.23533e-06
5.2595e-06
5.28098e-06
5.29984e-06
5.31616e-06
5.33001e-06
5.34146e-06
5.35058e-06
5.35744e-06
5.3621e-06
5.36463e-06
5.36508e-06
5.36353e-06
5.36002e-06
5.35462e-06
5.34738e-06
5.33836e-06
5.32761e-06
5.31518e-06
5.30113e-06
5.2855e-06
5.26835e-06
5.24972e-06
5.22965e-06
5.2082e-06
5.18541e-06
5.16133e-06
5.13598e-06
5.10943e-06
5.0817e-06
5.05284e-06
5.02289e-06
4.99189e-06
4.95988e-06
4.92688e-06
4.89295e-06
4.85811e-06
4.82241e-06
4.78587e-06
4.74854e-06
4.71044e-06
4.67161e-06
4.63208e-06
4.59188e-06
4.55105e-06
4.50962e-06
4.46761e-06
4.42506e-06
4.382e-06
4.33846e-06
4.29446e-06
4.25004e-06
4.20521e-06
4.16002e-06
4.11449e-06
4.06863e-06
4.02249e-06
3.97608e-06
3.92943e-06
3.88257e-06
3.83552e-06
3.7883e-06
3.74093e-06
3.69345e-06
3.64587e-06
3.59821e-06
3.5505e-06
3.50276e-06
3.455e-06
3.40725e-06
3.35954e-06
3.31187e-06
3.26426e-06
3.21674e-06
3.16933e-06
3.12203e-06
3.07488e-06
3.02787e-06
2.98104e-06
2.9344e-06
2.88796e-06
2.84174e-06
2.79574e-06
2.75e-06
2.70451e-06
2.6593e-06
2.61437e-06
2.56973e-06
2.52541e-06
2.48141e-06
2.43773e-06
2.3944e-06
2.35143e-06
2.30881e-06
2.26656e-06
2.2247e-06
2.18322e-06
2.14214e-06
2.10146e-06
2.06119e-06
2.02134e-06
1.98191e-06
1.94291e-06
1.90435e-06
1.86623e-06
1.82855e-06
1.79132e-06
1.75455e-06
1.71823e-06
1.68238e-06
1.64699e-06
1.61206e-06
1.57761e-06
1.54362e-06
1.51011e-06
1.47708e-06
1.44452e-06
1.41244e-06
1.38083e-06
1.3497e-06
1.31905e-06
1.28888e-06
1.25918e-06
1.22996e-06
1.20121e-06
1.17294e-06
1.14514e-06
1.11781e-06
1.09095e-06
1.06456e-06
1.03863e-06
1.01316e-06
9.8815e-07
9.63598e-07
9.39499e-07
9.15851e-07
8.92649e-07
8.6989e-07
8.47571e-07
8.25688e-07
8.04236e-07
7.83213e-07
7.62613e-07
7.42432e-07
7.22667e-07
7.03311e-07
6.84362e-07
6.65814e-07
6.47663e-07
6.29904e-07
6.12531e-07
5.9554e-07
5.78926e-07
5.62684e-07
5.46808e-07
5.31295e-07
5.16137e-07
5.01331e-07
4.86871e-07
4.72751e-07
4.58967e-07
4.45512e-07
4.32383e-07
4.19573e-07
4.07077e-07
3.9489e-07
3.83006e-07
3.7142e-07
3.60128e-07
3.49123e-07
3.384e-07
3.27954e-07
3.1778e-07
3.07873e-07
2.98227e-07
2.88838e-07
2.797e-07
2.70809e-07
2.62158e-07
2.53744e-07
2.45562e-07
2.37605e-07
2.29871e-07
2.22353e-07
2.15047e-07
2.07949e-07
2.01054e-07
1.94357e-07
1.87854e-07
1.8154e-07
1.75411e-07
1.69462e-07
1.6369e-07
1.5809e-07
1.52658e-07
1.4739e-07
1.42282e-07
1.37329e-07
1.32529e-07
1.27876e-07
1.23368e-07
1.19001e-07
1.1477e-07
1.10673e-07
1.06706e-07
1.02866e-07
9.91484e-08
9.55508e-08
9.20697e-08
8.8702e-08
8.54445e-08
8.22941e-08
7.92479e-08
7.63029e-08
7.34563e-08
7.07053e-08
6.8047e-08
6.54788e-08
6.29981e-08
6.06022e-08
5.82888e-08
5.60553e-08
5.38993e-08
5.18186e-08
4.98107e-08
4.78735e-08
4.60048e-08
4.42025e-08
4.24645e-08
4.07889e-08
3.91735e-08
3.76166e-08
3.61162e-08
3.46706e-08
3.3278e-08
3.19366e-08
3.06448e-08
2.94009e-08
2.82034e-08
2.70507e-08
2.59414e-08
2.48739e-08
2.38469e-08
2.2859e-08
2.19089e-08
2.09952e-08
2.01167e-08
1.92721e-08
1.84604e-08
1.76803e-08
1.69308e-08
1.62107e-08
1.5519e-08
1.48547e-08
1.42168e-08
1.36043e-08
1.30164e-08
1.24522e-08
1.19107e-08
1.13911e-08
1.08927e-08
1.04146e-08
9.95605e-09
9.51638e-09
9.09485e-09
8.69078e-09
8.3035e-09
7.93237e-09
7.57677e-09
7.23611e-09
6.9098e-09
6.5973e-09
6.29806e-09
6.01157e-09
5.73732e-09
5.47483e-09
5.22364e-09
4.98329e-09
4.75336e-09
4.53342e-09
4.32308e-09
4.12194e-09
3.92964e-09
3.74581e-09
3.57011e-09
3.4022e-09
3.24176e-09
3.08849e-09
2.94208e-09
2.80225e-09
2.66874e-09
2.54126e-09
2.41957e-09
2.30342e-09
2.19259e-09
2.08684e-09
1.98595e-09
1.88972e-09
1.79796e-09
1.71046e-09
1.62704e-09
1.54753e-09
1.47176e-09
1.39956e-09
1.33078e-09
1.26528e-09
1.2029e-09
1.14351e-09
1.08697e-09
1.03318e-09
9.8199e-10
9.33302e-10
8.87e-10
8.4298e-10
8.01141e-10
7.61385e-10
7.23623e-10
6.87764e-10
6.53726e-10
6.21428e-10
5.90793e-10
5.6175e-10
5.34227e-10
5.0816e-10
4.83485e-10
4.60143e-10
4.38076e-10
4.1723e-10
3.97554e-10
3.79e-10
3.6152e-10
3.45073e-10
3.29616e-10
3.15111e-10
3.01521e-10
2.88812e-10
2.76951e-10
2.65908e-10
2.55655e-10
2.46166e-10
2.37416e-10
2.29383e-10
2.22046e-10
2.15386e-10
2.09385e-10
2.04028e-10
1.99301e-10
1.95191e-10
1.91689e-10
1.88784e-10
1.86469e-10
1.84739e-10
1.83587e-10
1.83012e-10
9.61654e-08
2.88268e-07
4.79693e-07
6.70005e-07
8.58789e-07
1.04566e-06
1.23025e-06
1.41223e-06
1.5913e-06
1.76717e-06
1.93961e-06
2.10838e-06
2.2733e-06
2.43419e-06
2.59091e-06
2.74333e-06
2.89136e-06
3.0349e-06
3.17391e-06
3.30833e-06
3.43814e-06
3.56333e-06
3.68389e-06
3.79984e-06
3.91121e-06
4.01803e-06
4.12034e-06
4.21819e-06
4.31166e-06
4.40079e-06
4.48566e-06
4.56634e-06
4.64292e-06
4.71546e-06
4.78407e-06
4.84881e-06
4.90978e-06
4.96706e-06
5.02074e-06
5.0709e-06
5.11765e-06
5.16105e-06
5.2012e-06
5.23818e-06
5.27208e-06
5.30298e-06
5.33096e-06
5.3561e-06
5.37848e-06
5.39817e-06
5.41525e-06
5.4298e-06
5.44188e-06
5.45158e-06
5.45894e-06
5.46405e-06
5.46697e-06
5.46775e-06
5.46648e-06
5.46319e-06
5.45797e-06
5.45085e-06
5.4419e-06
5.43118e-06
5.41873e-06
5.40462e-06
5.38888e-06
5.37158e-06
5.35276e-06
5.33247e-06
5.31076e-06
5.28767e-06
5.26325e-06
5.23754e-06
5.21058e-06
5.18242e-06
5.1531e-06
5.12266e-06
5.09114e-06
5.05858e-06
5.02502e-06
4.99049e-06
4.95504e-06
4.91869e-06
4.88149e-06
4.84347e-06
4.80467e-06
4.76512e-06
4.72485e-06
4.6839e-06
4.64229e-06
4.60007e-06
4.55726e-06
4.5139e-06
4.47001e-06
4.42562e-06
4.38077e-06
4.33548e-06
4.28979e-06
4.24371e-06
4.19728e-06
4.15053e-06
4.10348e-06
4.05616e-06
4.00859e-06
3.9608e-06
3.91281e-06
3.86465e-06
3.81635e-06
3.76792e-06
3.71939e-06
3.67078e-06
3.62212e-06
3.57342e-06
3.52471e-06
3.47601e-06
3.42734e-06
3.37871e-06
3.33016e-06
3.28168e-06
3.23332e-06
3.18507e-06
3.13697e-06
3.08902e-06
3.04125e-06
2.99367e-06
2.9463e-06
2.89914e-06
2.85222e-06
2.80556e-06
2.75915e-06
2.71303e-06
2.66719e-06
2.62166e-06
2.57644e-06
2.53155e-06
2.487e-06
2.4428e-06
2.39895e-06
2.35547e-06
2.31238e-06
2.26967e-06
2.22735e-06
2.18544e-06
2.14394e-06
2.10286e-06
2.0622e-06
2.02198e-06
1.98219e-06
1.94285e-06
1.90396e-06
1.86552e-06
1.82754e-06
1.79002e-06
1.75297e-06
1.71639e-06
1.68029e-06
1.64466e-06
1.60951e-06
1.57483e-06
1.54065e-06
1.50694e-06
1.47373e-06
1.44099e-06
1.40875e-06
1.37699e-06
1.34572e-06
1.31494e-06
1.28464e-06
1.25483e-06
1.2255e-06
1.19666e-06
1.16829e-06
1.14041e-06
1.11301e-06
1.08608e-06
1.05963e-06
1.03365e-06
1.00813e-06
9.83083e-07
9.58497e-07
9.3437e-07
9.10699e-07
8.8748e-07
8.6471e-07
8.42384e-07
8.20499e-07
7.9905e-07
7.78034e-07
7.57445e-07
7.3728e-07
7.17533e-07
6.98201e-07
6.79278e-07
6.6076e-07
6.42641e-07
6.24917e-07
6.07582e-07
5.90633e-07
5.74062e-07
5.57866e-07
5.42038e-07
5.26574e-07
5.11468e-07
4.96716e-07
4.82311e-07
4.68247e-07
4.54521e-07
4.41126e-07
4.28057e-07
4.15308e-07
4.02875e-07
3.90751e-07
3.78931e-07
3.6741e-07
3.56182e-07
3.45243e-07
3.34586e-07
3.24206e-07
3.14099e-07
3.04258e-07
2.94679e-07
2.85356e-07
2.76285e-07
2.6746e-07
2.58875e-07
2.50527e-07
2.4241e-07
2.34519e-07
2.26849e-07
2.19396e-07
2.12154e-07
2.0512e-07
1.98287e-07
1.91652e-07
1.85211e-07
1.78958e-07
1.72889e-07
1.67e-07
1.61287e-07
1.55745e-07
1.5037e-07
1.45159e-07
1.40106e-07
1.35208e-07
1.30462e-07
1.25863e-07
1.21407e-07
1.17091e-07
1.12911e-07
1.08864e-07
1.04946e-07
1.01153e-07
9.74829e-08
9.39314e-08
9.04956e-08
8.71722e-08
8.39582e-08
8.08504e-08
7.78459e-08
7.49417e-08
7.2135e-08
6.94229e-08
6.68028e-08
6.42719e-08
6.18277e-08
5.94675e-08
5.71888e-08
5.49892e-08
5.28664e-08
5.08179e-08
4.88415e-08
4.69351e-08
4.50963e-08
4.33232e-08
4.16136e-08
3.99656e-08
3.83772e-08
3.68465e-08
3.53717e-08
3.39509e-08
3.25824e-08
3.12644e-08
2.99954e-08
2.87737e-08
2.75977e-08
2.6466e-08
2.53769e-08
2.43291e-08
2.33212e-08
2.23519e-08
2.14197e-08
2.05234e-08
1.96618e-08
1.88337e-08
1.80378e-08
1.72731e-08
1.65385e-08
1.58328e-08
1.5155e-08
1.45043e-08
1.38794e-08
1.32796e-08
1.27039e-08
1.21515e-08
1.16214e-08
1.11129e-08
1.06251e-08
1.01574e-08
9.7088e-09
9.27875e-09
8.86651e-09
8.4714e-09
8.09276e-09
7.72997e-09
7.38242e-09
7.04952e-09
6.7307e-09
6.42541e-09
6.13312e-09
5.85333e-09
5.58553e-09
5.32926e-09
5.08405e-09
4.84947e-09
4.62509e-09
4.41049e-09
4.20529e-09
4.0091e-09
3.82155e-09
3.64229e-09
3.47099e-09
3.30731e-09
3.15094e-09
3.00157e-09
2.85892e-09
2.7227e-09
2.59264e-09
2.46849e-09
2.35e-09
2.23692e-09
2.12903e-09
2.02611e-09
1.92793e-09
1.83431e-09
1.74504e-09
1.65994e-09
1.57882e-09
1.50152e-09
1.42786e-09
1.35769e-09
1.29086e-09
1.22722e-09
1.16663e-09
1.10895e-09
1.05407e-09
1.00185e-09
9.52173e-10
9.04935e-10
8.60025e-10
8.17339e-10
7.7678e-10
7.38254e-10
7.0167e-10
6.66944e-10
6.33993e-10
6.02739e-10
5.73108e-10
5.45029e-10
5.18435e-10
4.93261e-10
4.69447e-10
4.46933e-10
4.25666e-10
4.05592e-10
3.86663e-10
3.6883e-10
3.5205e-10
3.36281e-10
3.21482e-10
3.07617e-10
2.94651e-10
2.82551e-10
2.71285e-10
2.60825e-10
2.51144e-10
2.42217e-10
2.34021e-10
2.26536e-10
2.19741e-10
2.13618e-10
2.08153e-10
2.03331e-10
1.99138e-10
1.95565e-10
1.92601e-10
1.9024e-10
1.88474e-10
1.87299e-10
1.86713e-10
9.68386e-08
2.90299e-07
4.83112e-07
6.7486e-07
8.6514e-07
1.05357e-06
1.2398e-06
1.42349e-06
1.60433e-06
1.78206e-06
1.95641e-06
2.12715e-06
2.2941e-06
2.45706e-06
2.61589e-06
2.77046e-06
2.92065e-06
3.06639e-06
3.20759e-06
3.34421e-06
3.47622e-06
3.60359e-06
3.72632e-06
3.84442e-06
3.95791e-06
4.06681e-06
4.17118e-06
4.27104e-06
4.36646e-06
4.45751e-06
4.54424e-06
4.62673e-06
4.70505e-06
4.77929e-06
4.84952e-06
4.91583e-06
4.97831e-06
5.03703e-06
5.09209e-06
5.14357e-06
5.19156e-06
5.23615e-06
5.27742e-06
5.31547e-06
5.35036e-06
5.3822e-06
5.41105e-06
5.437e-06
5.46014e-06
5.48053e-06
5.49825e-06
5.51339e-06
5.526e-06
5.53618e-06
5.54397e-06
5.54946e-06
5.5527e-06
5.55377e-06
5.55273e-06
5.54964e-06
5.54456e-06
5.53754e-06
5.52866e-06
5.51796e-06
5.5055e-06
5.49133e-06
5.47551e-06
5.45809e-06
5.43911e-06
5.41864e-06
5.3967e-06
5.37336e-06
5.34866e-06
5.32264e-06
5.29535e-06
5.26683e-06
5.23712e-06
5.20627e-06
5.17432e-06
5.1413e-06
5.10726e-06
5.07224e-06
5.03627e-06
4.99939e-06
4.96163e-06
4.92304e-06
4.88365e-06
4.84349e-06
4.80261e-06
4.76102e-06
4.71877e-06
4.67589e-06
4.63241e-06
4.58836e-06
4.54377e-06
4.49868e-06
4.45312e-06
4.40711e-06
4.36068e-06
4.31386e-06
4.26668e-06
4.21918e-06
4.17136e-06
4.12327e-06
4.07493e-06
4.02637e-06
3.9776e-06
3.92866e-06
3.87956e-06
3.83034e-06
3.78102e-06
3.73162e-06
3.68216e-06
3.63266e-06
3.58315e-06
3.53365e-06
3.48417e-06
3.43475e-06
3.38539e-06
3.33612e-06
3.28696e-06
3.23792e-06
3.18902e-06
3.14028e-06
3.09172e-06
3.04335e-06
2.9952e-06
2.94726e-06
2.89957e-06
2.85213e-06
2.80496e-06
2.75807e-06
2.71147e-06
2.66519e-06
2.61922e-06
2.57359e-06
2.5283e-06
2.48336e-06
2.43879e-06
2.39459e-06
2.35078e-06
2.30736e-06
2.26434e-06
2.22173e-06
2.17955e-06
2.13778e-06
2.09645e-06
2.05556e-06
2.01511e-06
1.97512e-06
1.93558e-06
1.89651e-06
1.8579e-06
1.81976e-06
1.78209e-06
1.7449e-06
1.7082e-06
1.67198e-06
1.63624e-06
1.601e-06
1.56624e-06
1.53198e-06
1.49821e-06
1.46493e-06
1.43215e-06
1.39987e-06
1.36808e-06
1.33678e-06
1.30598e-06
1.27567e-06
1.24586e-06
1.21654e-06
1.1877e-06
1.15936e-06
1.1315e-06
1.10413e-06
1.07723e-06
1.05082e-06
1.02488e-06
9.99416e-07
9.74422e-07
9.49894e-07
9.2583e-07
9.02225e-07
8.79077e-07
8.5638e-07
8.34131e-07
8.12326e-07
7.9096e-07
7.7003e-07
7.49529e-07
7.29455e-07
7.09801e-07
6.90564e-07
6.71738e-07
6.53318e-07
6.353e-07
6.17677e-07
6.00446e-07
5.836e-07
5.67134e-07
5.51044e-07
5.35323e-07
5.19966e-07
5.04969e-07
4.90324e-07
4.76027e-07
4.62073e-07
4.48455e-07
4.35169e-07
4.22209e-07
4.09569e-07
3.97243e-07
3.85227e-07
3.73514e-07
3.621e-07
3.50979e-07
3.40145e-07
3.29593e-07
3.19317e-07
3.09313e-07
2.99575e-07
2.90097e-07
2.80875e-07
2.71903e-07
2.63176e-07
2.5469e-07
2.46438e-07
2.38415e-07
2.30618e-07
2.23041e-07
2.15679e-07
2.08528e-07
2.01582e-07
1.94837e-07
1.88288e-07
1.81931e-07
1.75762e-07
1.69775e-07
1.63967e-07
1.58333e-07
1.52869e-07
1.4757e-07
1.42434e-07
1.37455e-07
1.32629e-07
1.27954e-07
1.23424e-07
1.19036e-07
1.14787e-07
1.10673e-07
1.0669e-07
1.02834e-07
9.91026e-08
9.54921e-08
9.19992e-08
8.86206e-08
8.53531e-08
8.21937e-08
7.91392e-08
7.61868e-08
7.33335e-08
7.05764e-08
6.79127e-08
6.53398e-08
6.28549e-08
6.04555e-08
5.8139e-08
5.59028e-08
5.37447e-08
5.16622e-08
4.9653e-08
4.77149e-08
4.58456e-08
4.4043e-08
4.2305e-08
4.06296e-08
3.90149e-08
3.74587e-08
3.59594e-08
3.45149e-08
3.31237e-08
3.17839e-08
3.04938e-08
2.92518e-08
2.80562e-08
2.69057e-08
2.57985e-08
2.47333e-08
2.37087e-08
2.27232e-08
2.17756e-08
2.08644e-08
1.99885e-08
1.91466e-08
1.83375e-08
1.75601e-08
1.68132e-08
1.60958e-08
1.54068e-08
1.47452e-08
1.411e-08
1.35003e-08
1.2915e-08
1.23534e-08
1.18145e-08
1.12975e-08
1.08017e-08
1.03261e-08
9.87011e-09
9.43291e-09
9.01382e-09
8.61214e-09
8.22721e-09
7.8584e-09
7.50507e-09
7.16664e-09
6.84252e-09
6.53216e-09
6.23502e-09
5.95057e-09
5.67833e-09
5.4178e-09
5.16852e-09
4.93004e-09
4.70193e-09
4.48377e-09
4.27516e-09
4.0757e-09
3.88504e-09
3.70281e-09
3.52866e-09
3.36225e-09
3.20328e-09
3.05144e-09
2.90641e-09
2.76793e-09
2.63572e-09
2.5095e-09
2.38904e-09
2.27409e-09
2.1644e-09
2.05977e-09
1.95996e-09
1.86478e-09
1.77403e-09
1.68752e-09
1.60505e-09
1.52646e-09
1.45158e-09
1.38025e-09
1.31231e-09
1.24761e-09
1.18601e-09
1.12738e-09
1.07158e-09
1.01849e-09
9.67992e-10
9.19969e-10
8.74313e-10
8.30918e-10
7.89686e-10
7.50519e-10
7.13328e-10
6.78024e-10
6.44526e-10
6.12753e-10
5.82629e-10
5.54084e-10
5.27048e-10
5.01456e-10
4.77246e-10
4.54358e-10
4.32738e-10
4.12331e-10
3.93086e-10
3.74958e-10
3.57899e-10
3.41868e-10
3.26823e-10
3.12728e-10
2.99546e-10
2.87245e-10
2.75792e-10
2.65158e-10
2.55316e-10
2.46241e-10
2.37909e-10
2.30299e-10
2.23391e-10
2.17167e-10
2.11611e-10
2.06709e-10
2.02446e-10
1.98814e-10
1.95801e-10
1.934e-10
1.91605e-10
1.90411e-10
1.89815e-10
9.73911e-08
2.91964e-07
4.85912e-07
6.78829e-07
8.70322e-07
1.06002e-06
1.24756e-06
1.43262e-06
1.6149e-06
1.79411e-06
1.96999e-06
2.14232e-06
2.31088e-06
2.4755e-06
2.63602e-06
2.79231e-06
2.94424e-06
3.09172e-06
3.23468e-06
3.37306e-06
3.50683e-06
3.63595e-06
3.76042e-06
3.88024e-06
3.99543e-06
4.10601e-06
4.21201e-06
4.31348e-06
4.41048e-06
4.50306e-06
4.59128e-06
4.67522e-06
4.75495e-06
4.83055e-06
4.90209e-06
4.96966e-06
5.03334e-06
5.09322e-06
5.14939e-06
5.20193e-06
5.25092e-06
5.29647e-06
5.33864e-06
5.37754e-06
5.41324e-06
5.44582e-06
5.47538e-06
5.50199e-06
5.52573e-06
5.54669e-06
5.56493e-06
5.58054e-06
5.59358e-06
5.60414e-06
5.61228e-06
5.61807e-06
5.62158e-06
5.62288e-06
5.62203e-06
5.61909e-06
5.61413e-06
5.6072e-06
5.59837e-06
5.58769e-06
5.57522e-06
5.56102e-06
5.54513e-06