/*--------------------------------*- C++ -*----------------------------------*\
  =========                 |
  \\      /  F ield         | OpenFOAM: The Open Source CFD Toolbox
   \\    /   O peration     | Website:  https://openfoam.org
    \\  /    A nd           | Version:  10
     \\/     M anipulation  |
\*---------------------------------------------------------------------------*/
FoamFile
{
    format      ascii;
    class       volScalarField;
    location    "0.18";
    object      N1;
}
// * * * * * * * * * * * * * * * * * * * * * * * * * * * * * * * * * * * * * //

dimensions      [0 0 0 0 0 0 0];

internalField   nonuniform List<scalar> 
8000
(
0.000901406
0.00269891
0.00448188
0.00624225
0.00797275
0.00966673
0.0113181
0.0129215
0.0144718
0.0159648
0.0173963
0.0187632
0.0200624
0.0212915
0.0224486
0.0235322
0.0245412
0.0254748
0.0263328
0.0271153
0.0278225
0.0284553
0.0290145
0.0295015
0.0299176
0.0302646
0.0305444
0.0307589
0.0309104
0.0310012
0.0310337
0.0310104
0.0309339
0.0308069
0.0306321
0.0304121
0.0301497
0.0298476
0.0295084
0.029135
0.0287299
0.0282958
0.0278352
0.0273506
0.0268444
0.0263191
0.0257769
0.02522
0.0246505
0.0240706
0.0234821
0.022887
0.0222869
0.0216835
0.0210785
0.0204733
0.0198693
0.0192678
0.0186701
0.0180772
0.0174902
0.01691
0.0163374
0.0157734
0.0152185
0.0146735
0.0141388
0.013615
0.0131025
0.0126016
0.0121128
0.0116361
0.0111718
0.0107201
0.0102811
0.00985474
0.00944116
0.00904032
0.00865217
0.00827661
0.00791354
0.00756284
0.00722434
0.00689786
0.00658321
0.00628018
0.00598853
0.00570804
0.00543844
0.00517949
0.00493092
0.00469244
0.0044638
0.0042447
0.00403487
0.00383403
0.00364188
0.00345816
0.00328257
0.00311484
0.00295471
0.00280188
0.00265611
0.00251712
0.00238466
0.00225847
0.00213832
0.00202395
0.00191514
0.00181165
0.00171326
0.00161976
0.00153094
0.00144659
0.00136651
0.00129053
0.00121844
0.00115009
0.00108528
0.00102387
0.000965691
0.00091059
0.000858421
0.000809044
0.000762323
0.000718129
0.000676336
0.000636827
0.000599487
0.000564206
0.000530881
0.000499412
0.000469702
0.000441663
0.000415205
0.000390247
0.00036671
0.000344519
0.000323601
0.000303888
0.000285317
0.000267824
0.000251351
0.000235843
0.000221245
0.000207509
0.000194586
0.000182431
0.000171001
0.000160254
0.000150153
0.000140661
0.000131742
0.000123365
0.000115497
0.00010811
0.000101176
9.4668e-05
8.85613e-05
8.28324e-05
7.74592e-05
7.24204e-05
6.76964e-05
6.32683e-05
5.91185e-05
5.52302e-05
5.15878e-05
4.81763e-05
4.49818e-05
4.19911e-05
3.91918e-05
3.6572e-05
3.41209e-05
3.18279e-05
2.96834e-05
2.76781e-05
2.58033e-05
2.40509e-05
2.24132e-05
2.0883e-05
1.94536e-05
1.81185e-05
1.68718e-05
1.57079e-05
1.46215e-05
1.36076e-05
1.26615e-05
1.1779e-05
1.09559e-05
1.01883e-05
9.47263e-06
8.80555e-06
8.18386e-06
7.60458e-06
7.06493e-06
6.56229e-06
6.09423e-06
5.65844e-06
5.25278e-06
4.87525e-06
4.52397e-06
4.19717e-06
3.89321e-06
3.61055e-06
3.34774e-06
3.10346e-06
2.87642e-06
2.66547e-06
2.46949e-06
2.28746e-06
2.11843e-06
1.9615e-06
1.81582e-06
1.68063e-06
1.55519e-06
1.43882e-06
1.33089e-06
1.23081e-06
1.13802e-06
1.05201e-06
9.72308e-07
8.98459e-07
8.30049e-07
7.66691e-07
7.08024e-07
6.53712e-07
6.03442e-07
5.56923e-07
5.13884e-07
4.74074e-07
4.37256e-07
4.03215e-07
3.71747e-07
3.42663e-07
3.15789e-07
2.90961e-07
2.6803e-07
2.46855e-07
2.27304e-07
2.09258e-07
1.92605e-07
1.77239e-07
1.63065e-07
1.49993e-07
1.3794e-07
1.26828e-07
1.16587e-07
1.0715e-07
9.84561e-08
9.04483e-08
8.30741e-08
7.62849e-08
7.00357e-08
6.42846e-08
5.89932e-08
5.41257e-08
4.96492e-08
4.55332e-08
4.17494e-08
3.82719e-08
3.50764e-08
3.21408e-08
2.94446e-08
2.69687e-08
2.46957e-08
2.26094e-08
2.06948e-08
1.89382e-08
1.7327e-08
1.58495e-08
1.44947e-08
1.32529e-08
1.21149e-08
1.10721e-08
1.01169e-08
9.24209e-09
8.44107e-09
7.7078e-09
7.03668e-09
6.42258e-09
5.8608e-09
5.34698e-09
4.87713e-09
4.44759e-09
4.05499e-09
3.69623e-09
3.36847e-09
3.0691e-09
2.79571e-09
2.54611e-09
2.31829e-09
2.11038e-09
1.92069e-09
1.74767e-09
1.58988e-09
1.44601e-09
1.31487e-09
1.19536e-09
1.08646e-09
9.8727e-10
8.96934e-10
8.14681e-10
7.39806e-10
6.71662e-10
6.09659e-10
5.53255e-10
5.01957e-10
4.55314e-10
4.12912e-10
3.74374e-10
3.39357e-10
3.07546e-10
2.78655e-10
2.5242e-10
2.28604e-10
2.06988e-10
1.87374e-10
1.6958e-10
1.53441e-10
1.38807e-10
1.2554e-10
1.13515e-10
1.02619e-10
9.27475e-11
8.38066e-11
7.57105e-11
6.83808e-11
6.17468e-11
5.57436e-11
5.03126e-11
4.54004e-11
4.09584e-11
3.69425e-11
3.33128e-11
3.00329e-11
2.70697e-11
2.43932e-11
2.19764e-11
1.97944e-11
1.7825e-11
1.60479e-11
1.44446e-11
1.29985e-11
1.16945e-11
1.05188e-11
9.45921e-12
8.50437e-12
7.64414e-12
6.86934e-12
6.17165e-12
5.54354e-12
4.9782e-12
4.46949e-12
4.01183e-12
3.6002e-12
3.23006e-12
2.8973e-12
2.59822e-12
2.32948e-12
2.08806e-12
1.87123e-12
1.67653e-12
1.50175e-12
1.34488e-12
1.20413e-12
1.07787e-12
9.64643e-13
8.63123e-13
7.72125e-13
6.9058e-13
6.17527e-13
5.52101e-13
4.93522e-13
4.41091e-13
3.94178e-13
3.52217e-13
3.14702e-13
2.81175e-13
2.51228e-13
2.24492e-13
2.0064e-13
1.79377e-13
1.60438e-13
1.43587e-13
1.28615e-13
1.15332e-13
1.03572e-13
9.31857e-14
8.40416e-14
7.60234e-14
6.90286e-14
6.29675e-14
5.77625e-14
5.33465e-14
4.96625e-14
4.66628e-14
4.43085e-14
4.25691e-14
4.14218e-14
4.08519e-14
0.000910636
0.0027274
0.00453111
0.00631385
0.00806835
0.0097879
0.0114663
0.013098
0.0146778
0.0162012
0.017664
0.0190627
0.0203941
0.0216556
0.0228451
0.0239608
0.0250015
0.0259663
0.0268546
0.0276664
0.028402
0.0290618
0.0296467
0.0301578
0.0305966
0.0309646
0.0312635
0.0314956
0.0316627
0.0317674
0.0318119
0.0317988
0.0317308
0.0316104
0.0314404
0.0312236
0.0309626
0.0306604
0.0303197
0.0299431
0.0295335
0.0290936
0.0286259
0.0281331
0.0276177
0.027082
0.0265286
0.0259597
0.0253774
0.024784
0.0241814
0.0235716
0.0229564
0.0223375
0.0217167
0.0210954
0.0204751
0.0198571
0.0192428
0.0186333
0.0180296
0.0174328
0.0168438
0.0162634
0.0156923
0.0151312
0.0145806
0.0140412
0.0135133
0.0129974
0.0124937
0.0120025
0.0115241
0.0110585
0.010606
0.0101666
0.00974019
0.00932693
0.00892671
0.00853945
0.00816506
0.00780338
0.00745428
0.00711755
0.00679301
0.00648043
0.00617959
0.00589024
0.00561212
0.00534497
0.00508852
0.00484249
0.00460658
0.00438052
0.00416402
0.00395678
0.00375852
0.00356894
0.00338775
0.00321468
0.00304943
0.00289172
0.00274129
0.00259786
0.00246116
0.00233094
0.00220694
0.00208891
0.00197661
0.00186981
0.00176827
0.00167177
0.0015801
0.00149305
0.00141041
0.00133198
0.00125759
0.00118703
0.00112015
0.00105677
0.000996722
0.000939852
0.000886008
0.000835045
0.000786823
0.00074121
0.000698075
0.000657296
0.000618757
0.000582343
0.000547947
0.000515466
0.000484802
0.000455861
0.000428554
0.000402794
0.0003785
0.000355595
0.000334005
0.000313659
0.00029449
0.000276435
0.000259433
0.000243426
0.000228359
0.000214181
0.000200843
0.000188297
0.000176499
0.000165407
0.000154981
0.000145184
0.000135978
0.000127332
0.000119211
0.000111587
0.000104429
9.77121e-05
9.14091e-05
8.5496e-05
7.995e-05
7.47492e-05
6.98733e-05
6.53028e-05
6.10195e-05
5.70062e-05
5.32467e-05
4.97255e-05
4.64283e-05
4.33415e-05
4.04521e-05
3.77481e-05
3.52181e-05
3.28514e-05
3.06379e-05
2.85681e-05
2.6633e-05
2.48243e-05
2.31339e-05
2.15545e-05
2.00791e-05
1.87011e-05
1.74144e-05
1.6213e-05
1.50917e-05
1.40452e-05
1.30687e-05
1.21578e-05
1.13082e-05
1.05159e-05
9.77724e-06
9.08871e-06
8.44703e-06
7.84912e-06
7.29212e-06
6.77332e-06
6.2902e-06
5.8404e-06
5.4217e-06
5.03203e-06
4.66945e-06
4.33214e-06
4.0184e-06
3.72665e-06
3.4554e-06
3.20325e-06
2.96892e-06
2.75118e-06
2.5489e-06
2.36102e-06
2.18655e-06
2.02457e-06
1.87422e-06
1.73468e-06
1.6052e-06
1.48509e-06
1.37369e-06
1.27039e-06
1.17462e-06
1.08584e-06
1.00358e-06
9.27351e-07
8.56741e-07
7.91346e-07
7.30792e-07
6.74734e-07
6.22847e-07
5.74832e-07
5.30409e-07
4.89318e-07
4.51317e-07
4.16181e-07
3.83701e-07
3.53682e-07
3.25943e-07
3.00318e-07
2.76649e-07
2.54793e-07
2.34614e-07
2.15988e-07
1.98798e-07
1.82939e-07
1.68309e-07
1.54816e-07
1.42375e-07
1.30907e-07
1.20336e-07
1.10596e-07
1.01622e-07
9.33568e-08
8.57455e-08
7.8738e-08
7.22878e-08
6.63518e-08
6.08902e-08
5.58662e-08
5.12458e-08
4.69974e-08
4.30919e-08
3.95026e-08
3.62044e-08
3.31744e-08
3.03914e-08
2.78359e-08
2.54898e-08
2.33364e-08
2.13603e-08
1.95472e-08
1.78842e-08
1.63591e-08
1.49608e-08
1.36791e-08
1.25044e-08
1.14282e-08
1.04422e-08
9.53928e-09
8.71251e-09
7.95565e-09
7.26295e-09
6.62911e-09
6.04926e-09
5.51892e-09
5.03396e-09
4.59061e-09
4.18539e-09
3.81509e-09
3.47679e-09
3.16779e-09
2.88561e-09
2.62799e-09
2.39284e-09
2.17824e-09
1.98246e-09
1.80387e-09
1.641e-09
1.49251e-09
1.35715e-09
1.23379e-09
1.1214e-09
1.01902e-09
9.25776e-10
8.40878e-10
7.63595e-10
6.9326e-10
6.29263e-10
5.71046e-10
5.18098e-10
4.69955e-10
4.26189e-10
3.86413e-10
3.5027e-10
3.17436e-10
2.87615e-10
2.60537e-10
2.35955e-10
2.13644e-10
1.93399e-10
1.75033e-10
1.58375e-10
1.4327e-10
1.29577e-10
1.17165e-10
1.05919e-10
9.57298e-11
8.65015e-11
7.8145e-11
7.05797e-11
6.37323e-11
5.75361e-11
5.19304e-11
4.68602e-11
4.22754e-11
3.81304e-11
3.4384e-11
3.09986e-11
2.79401e-11
2.51776e-11
2.2683e-11
2.04309e-11
1.83982e-11
1.65639e-11
1.49091e-11
1.34164e-11
1.20705e-11
1.08571e-11
9.76337e-12
8.77783e-12
7.88994e-12
7.09023e-12
6.3701e-12
5.7218e-12
5.13828e-12
4.6132e-12
4.14083e-12
3.71596e-12
3.33392e-12
2.99046e-12
2.68177e-12
2.40439e-12
2.1552e-12
1.9314e-12
1.73044e-12
1.55003e-12
1.38813e-12
1.24285e-12
1.11253e-12
9.95661e-13
8.90876e-13
7.96952e-13
7.12786e-13
6.37384e-13
5.69854e-13
5.09391e-13
4.55274e-13
4.06852e-13
3.63543e-13
3.24821e-13
2.90216e-13
2.59306e-13
2.31711e-13
2.07092e-13
1.85145e-13
1.65596e-13
1.48204e-13
1.3275e-13
1.1904e-13
1.06902e-13
9.6182e-14
8.67439e-14
7.84679e-14
7.12481e-14
6.49922e-14
5.96198e-14
5.50618e-14
5.12594e-14
4.81633e-14
4.57334e-14
4.39379e-14
4.27536e-14
4.21653e-14
0.000919673
0.00275492
0.00457802
0.0063813
0.00815758
0.00990014
0.0116028
0.0132597
0.0148658
0.0164162
0.0179067
0.0193336
0.0206936
0.0219838
0.0232019
0.0243461
0.0254149
0.0264072
0.0273225
0.0281604
0.028921
0.0296048
0.0302125
0.0307451
0.031204
0.0315906
0.0319067
0.0321543
0.0323355
0.0324525
0.0325078
0.0325038
0.0324433
0.0323288
0.0321632
0.0319492
0.0316897
0.0313874
0.0310453
0.030666
0.0302525
0.0298074
0.0293335
0.0288333
0.0283096
0.0277649
0.0272015
0.0266218
0.0260281
0.0254227
0.0248075
0.0241846
0.0235559
0.0229232
0.0222882
0.0216525
0.0210177
0.020385
0.0197559
0.0191315
0.018513
0.0179014
0.0172976
0.0167025
0.0161168
0.0155414
0.0149766
0.0144232
0.0138816
0.0133521
0.0128352
0.012331
0.0118399
0.011362
0.0108974
0.0104461
0.0100083
0.00958392
0.00917289
0.00877515
0.0083906
0.00801909
0.00766048
0.00731456
0.00698115
0.00666002
0.00635094
0.00605365
0.00576789
0.00549339
0.00522988
0.00497706
0.00473465
0.00450235
0.00427986
0.00406689
0.00386314
0.00366831
0.0034821
0.00330423
0.00313439
0.00297231
0.0028177
0.00267029
0.00252979
0.00239595
0.0022685
0.00214719
0.00203176
0.00192198
0.00181762
0.00171843
0.00162421
0.00153473
0.00144978
0.00136917
0.0012927
0.00122018
0.00115143
0.00108628
0.00102456
0.000966102
0.000910756
0.000858371
0.000808803
0.000761916
0.000717577
0.00067566
0.000636044
0.000598613
0.000563257
0.000529869
0.000498349
0.000468599
0.000440529
0.000414049
0.000389077
0.000365532
0.000343339
0.000322424
0.00030272
0.00028416
0.000266683
0.000250229
0.000234741
0.000220167
0.000206456
0.00019356
0.000181432
0.00017003
0.000159313
0.000149242
0.000139779
0.000130891
0.000122543
0.000114706
0.000107348
0.000100443
9.39641e-05
8.78857e-05
8.21847e-05
7.68385e-05
7.18263e-05
6.71281e-05
6.27251e-05
5.85996e-05
5.4735e-05
5.11154e-05
4.77261e-05
4.45529e-05
4.15828e-05
3.88032e-05
3.62025e-05
3.37697e-05
3.14943e-05
2.93666e-05
2.73775e-05
2.55182e-05
2.37806e-05
2.2157e-05
2.06404e-05
1.92239e-05
1.79012e-05
1.66662e-05
1.55135e-05
1.44378e-05
1.3434e-05
1.24976e-05
1.16243e-05
1.08098e-05
1.00505e-05
9.34276e-06
8.68314e-06
8.06852e-06
7.49595e-06
6.96265e-06
6.46603e-06
6.00365e-06
5.57325e-06
5.17269e-06
4.79997e-06
4.45323e-06
4.13073e-06
3.83082e-06
3.55199e-06
3.29279e-06
3.05191e-06
2.82808e-06
2.62015e-06
2.42702e-06
2.24767e-06
2.08117e-06
1.92661e-06
1.78316e-06
1.65007e-06
1.5266e-06
1.41209e-06
1.3059e-06
1.20745e-06
1.1162e-06
1.03163e-06
9.53273e-07
8.8069e-07
8.13466e-07
7.5122e-07
6.93595e-07
6.40258e-07
5.90901e-07
5.45236e-07
5.02996e-07
4.63933e-07
4.27815e-07
3.94427e-07
3.63568e-07
3.35055e-07
3.08713e-07
2.84382e-07
2.61915e-07
2.41172e-07
2.22025e-07
2.04356e-07
1.88053e-07
1.73014e-07
1.59144e-07
1.46355e-07
1.34566e-07
1.237e-07
1.13687e-07
1.04463e-07
9.59665e-08
8.81425e-08
8.09391e-08
7.43085e-08
6.82066e-08
6.25923e-08
5.74279e-08
5.26783e-08
4.83111e-08
4.42965e-08
4.06068e-08
3.72164e-08
3.41017e-08
3.1241e-08
2.86141e-08
2.62024e-08
2.39887e-08
2.19574e-08
2.00937e-08
1.83842e-08
1.68164e-08
1.53791e-08
1.40615e-08
1.2854e-08
1.17476e-08
1.07341e-08
9.80595e-09
8.95606e-09
8.17805e-09
7.46598e-09
6.81442e-09
6.21836e-09
5.67319e-09
5.17468e-09
4.71894e-09
4.30239e-09
3.92174e-09
3.57398e-09
3.25634e-09
2.96628e-09
2.70145e-09
2.45973e-09
2.23913e-09
2.03787e-09
1.85429e-09
1.68687e-09
1.53423e-09
1.39509e-09
1.26828e-09
1.15275e-09
1.0475e-09
9.51655e-10
8.64385e-10
7.84941e-10
7.1264e-10
6.46854e-10
5.87009e-10
5.32582e-10
4.83092e-10
4.38103e-10
3.97215e-10
3.60061e-10
3.2631e-10
2.95655e-10
2.6782e-10
2.42551e-10
2.19617e-10
1.98806e-10
1.79926e-10
1.62803e-10
1.47275e-10
1.33199e-10
1.20441e-10
1.0888e-10
9.8406e-11
8.89197e-11
8.03296e-11
7.25528e-11
6.55139e-11
5.91445e-11
5.33822e-11
4.81702e-11
4.34572e-11
3.91964e-11
3.53452e-11
3.18652e-11
2.87212e-11
2.58814e-11
2.33171e-11
2.10021e-11
1.89125e-11
1.7027e-11
1.53258e-11
1.37915e-11
1.24079e-11
1.11606e-11
1.00363e-11
9.02322e-12
8.11051e-12
7.28845e-12
6.54819e-12
5.88175e-12
5.28193e-12
4.74217e-12
4.25659e-12
3.81985e-12
3.42712e-12
3.07406e-12
2.75674e-12
2.47161e-12
2.21545e-12
1.98539e-12
1.77881e-12
1.59337e-12
1.42693e-12
1.2776e-12
1.14363e-12
1.0235e-12
9.15782e-13
8.19232e-13
7.32713e-13
6.55203e-13
5.85785e-13
5.23632e-13
4.68002e-13
4.18227e-13
3.73706e-13
3.33902e-13
2.9833e-13
2.66555e-13
2.38189e-13
2.12882e-13
1.90321e-13
1.70226e-13
1.52348e-13
1.36461e-13
1.22368e-13
1.09891e-13
9.8871e-14
8.91691e-14
8.06617e-14
7.32401e-14
6.68093e-14
6.12868e-14
5.66014e-14
5.26927e-14
4.95101e-14
4.70123e-14
4.51666e-14
4.39487e-14
4.33439e-14
0.000928148
0.00278056
0.00462139
0.00644322
0.00823896
0.0100019
0.0117259
0.0134051
0.0150342
0.0166083
0.0181231
0.0195746
0.0209595
0.0222747
0.0235179
0.024687
0.0257803
0.0267967
0.0277354
0.028596
0.0293786
0.0300833
0.030711
0.0312624
0.0317388
0.0321418
0.0324729
0.0327341
0.0329276
0.0330554
0.0331201
0.0331242
0.0330703
0.0329611
0.0327993
0.0325879
0.0323296
0.0320273
0.0316839
0.0313023
0.0308853
0.0304358
0.0299564
0.0294499
0.028919
0.0283662
0.027794
0.0272049
0.0266012
0.0259852
0.025359
0.0247246
0.0240841
0.0234392
0.0227918
0.0221435
0.0214958
0.0208502
0.0202081
0.0195706
0.018939
0.0183143
0.0176975
0.0170895
0.0164911
0.0159029
0.0153257
0.01476
0.0142062
0.0136649
0.0131363
0.0126207
0.0121184
0.0116295
0.0111543
0.0106927
0.0102447
0.00981054
0.00938998
0.008983
0.0085895
0.00820933
0.00784233
0.00748832
0.00714709
0.00681842
0.00650206
0.00619777
0.00590527
0.0056243
0.00535456
0.00509576
0.00484761
0.0046098
0.00438204
0.00416401
0.00395542
0.00375596
0.00356533
0.00338322
0.00320934
0.0030434
0.0028851
0.00273417
0.00259032
0.00245329
0.0023228
0.00219859
0.00208041
0.00196801
0.00186115
0.00175959
0.00166311
0.00157149
0.00148451
0.00140197
0.00132367
0.00124942
0.00117903
0.00111232
0.00104911
0.000989258
0.000932586
0.000878946
0.000828191
0.000780181
0.00073478
0.000691858
0.000651293
0.000612965
0.000576762
0.000542574
0.000510298
0.000479835
0.000451092
0.000423978
0.000398407
0.000374298
0.000351572
0.000330156
0.00030998
0.000290975
0.000273079
0.00025623
0.000240371
0.000225448
0.000211408
0.000198202
0.000185783
0.000174108
0.000163134
0.000152821
0.000143131
0.00013403
0.000125482
0.000117457
0.000109923
0.000102852
9.62177e-05
8.99936e-05
8.41558e-05
7.86815e-05
7.3549e-05
6.87381e-05
6.42295e-05
6.00051e-05
5.60478e-05
5.23414e-05
4.88708e-05
4.56215e-05
4.25801e-05
3.97339e-05
3.70708e-05
3.45797e-05
3.22497e-05
3.0071e-05
2.80341e-05
2.61302e-05
2.43509e-05
2.26885e-05
2.11354e-05
1.9685e-05
1.83305e-05
1.7066e-05
1.58856e-05
1.4784e-05
1.37562e-05
1.27974e-05
1.19031e-05
1.10691e-05
1.02916e-05
9.56685e-06
8.8914e-06
8.26204e-06
7.67574e-06
7.12965e-06
6.62111e-06
6.14765e-06
5.70692e-06
5.29675e-06
4.9151e-06
4.56004e-06
4.2298e-06
3.9227e-06
3.63718e-06
3.37177e-06
3.12511e-06
2.89591e-06
2.68299e-06
2.48523e-06
2.30158e-06
2.13108e-06
1.97281e-06
1.82593e-06
1.68965e-06
1.56322e-06
1.44596e-06
1.33722e-06
1.23641e-06
1.14297e-06
1.05637e-06
9.76137e-07
9.01812e-07
8.32977e-07
7.69238e-07
7.1023e-07
6.55614e-07
6.05073e-07
5.58313e-07
5.1506e-07
4.7506e-07
4.38076e-07
4.03886e-07
3.72288e-07
3.43091e-07
3.16117e-07
2.91203e-07
2.68197e-07
2.46956e-07
2.2735e-07
2.09257e-07
1.92563e-07
1.77163e-07
1.62961e-07
1.49866e-07
1.37793e-07
1.26667e-07
1.16414e-07
1.06968e-07
9.82681e-08
9.02564e-08
8.28803e-08
7.60907e-08
6.98424e-08
6.40935e-08
5.88052e-08
5.39417e-08
4.94698e-08
4.53589e-08
4.15807e-08
3.8109e-08
3.49196e-08
3.19903e-08
2.93003e-08
2.68308e-08
2.45641e-08
2.2484e-08
2.05756e-08
1.88251e-08
1.72197e-08
1.57479e-08
1.43987e-08
1.31623e-08
1.20294e-08
1.09916e-08
1.00411e-08
9.17086e-09
8.37418e-09
7.64504e-09
6.97786e-09
6.3675e-09
5.80926e-09
5.29879e-09
4.83211e-09
4.40557e-09
4.01579e-09
3.6597e-09
3.33444e-09
3.03742e-09
2.76624e-09
2.51872e-09
2.29284e-09
2.08675e-09
1.89876e-09
1.72733e-09
1.57103e-09
1.42855e-09
1.2987e-09
1.18039e-09
1.07263e-09
9.74479e-10
8.85115e-10
8.03767e-10
7.29731e-10
6.62367e-10
6.01087e-10
5.45355e-10
4.94678e-10
4.4861e-10
4.06741e-10
3.68697e-10
3.34135e-10
3.02746e-10
2.74243e-10
2.48368e-10
2.24884e-10
2.03574e-10
1.84241e-10
1.66707e-10
1.50808e-10
1.36393e-10
1.23329e-10
1.11491e-10
1.00766e-10
9.10522e-11
8.22561e-11
7.42928e-11
6.70851e-11
6.05629e-11
5.46624e-11
4.93255e-11
4.44994e-11
4.01364e-11
3.61929e-11
3.26294e-11
2.941e-11
2.65021e-11
2.38763e-11
2.15058e-11
1.93661e-11
1.74353e-11
1.56934e-11
1.41223e-11
1.27055e-11
1.14282e-11
1.0277e-11
9.23962e-12
8.30502e-12
7.46324e-12
6.70523e-12
6.02281e-12
5.4086e-12
4.8559e-12
4.35867e-12
3.91145e-12
3.50931e-12
3.14779e-12
2.82285e-12
2.53088e-12
2.26858e-12
2.033e-12
1.82147e-12
1.63158e-12
1.46115e-12
1.30824e-12
1.17106e-12
1.04804e-12
9.37744e-13
8.38879e-13
7.50284e-13
6.70916e-13
5.99833e-13
5.3619e-13
4.79225e-13
4.28257e-13
3.82668e-13
3.4191e-13
3.05484e-13
2.72948e-13
2.43901e-13
2.17987e-13
1.94885e-13
1.74308e-13
1.56001e-13
1.39734e-13
1.25303e-13
1.12526e-13
1.01242e-13
9.13075e-14
8.2596e-14
7.49964e-14
6.84114e-14
6.27565e-14
5.79588e-14
5.39564e-14
5.06976e-14
4.814e-14
4.62502e-14
4.5003e-14
4.43836e-14
0.00093576
0.00280353
0.00466011
0.00649825
0.00831099
0.0100917
0.0118341
0.0135325
0.0151813
0.0167758
0.0183113
0.0197839
0.0211902
0.0225269
0.0237914
0.0249817
0.026096
0.027133
0.0280918
0.0289719
0.0297732
0.0304959
0.0311406
0.0317082
0.0321997
0.0326166
0.0329606
0.0332336
0.0334375
0.0335747
0.0336475
0.0336585
0.0336103
0.0335056
0.0333472
0.0331379
0.0328807
0.0325785
0.0322341
0.0318505
0.0314305
0.0309771
0.0304931
0.0299811
0.029444
0.0288843
0.0283046
0.0277075
0.0270952
0.0264701
0.0258344
0.0251902
0.0245394
0.0238841
0.023226
0.0225668
0.0219081
0.0212514
0.020598
0.0199493
0.0193064
0.0186705
0.0180425
0.0174234
0.0168139
0.0162149
0.0156269
0.0150505
0.0144863
0.0139347
0.013396
0.0128706
0.0123586
0.0118604
0.0113759
0.0109054
0.0104488
0.0100061
0.00957731
0.00916236
0.00876113
0.00837349
0.00799926
0.00763826
0.00729029
0.00695511
0.00663248
0.00632215
0.00602384
0.00573727
0.00546216
0.0051982
0.00494509
0.00470254
0.00447022
0.00424783
0.00403507
0.00383161
0.00363715
0.00345139
0.00327402
0.00310475
0.00294328
0.00278931
0.00264257
0.00250278
0.00236966
0.00224295
0.00212239
0.00200773
0.00189872
0.00179511
0.00169669
0.00160322
0.00151449
0.00143029
0.00135041
0.00127466
0.00120284
0.00113479
0.00107031
0.00100924
0.000951429
0.000896706
0.000844926
0.000795946
0.000749628
0.00070584
0.000664455
0.000625353
0.000588418
0.00055354
0.000520612
0.000489534
0.00046021
0.000432548
0.00040646
0.000381864
0.000358679
0.00033683
0.000316246
0.000296857
0.000278599
0.00026141
0.00024523
0.000230005
0.000215681
0.000202209
0.000189539
0.000177628
0.000166432
0.00015591
0.000146025
0.000136739
0.000128019
0.000119831
0.000112145
0.000104932
9.8163e-05
9.1813e-05
8.58572e-05
8.02722e-05
7.5036e-05
7.01278e-05
6.55281e-05
6.12183e-05
5.7181e-05
5.33996e-05
4.98588e-05
4.65439e-05
4.3441e-05
4.05372e-05
3.78203e-05
3.52788e-05
3.29017e-05
3.0679e-05
2.86009e-05
2.66585e-05
2.48432e-05
2.31472e-05
2.15628e-05
2.0083e-05
1.87011e-05
1.7411e-05
1.62068e-05
1.50829e-05
1.40343e-05
1.30561e-05
1.21437e-05
1.12929e-05
1.04997e-05
9.76027e-06
9.07117e-06
8.42908e-06
7.83092e-06
7.27379e-06
6.75498e-06
6.27194e-06
5.8223e-06
5.40384e-06
5.01447e-06
4.65224e-06
4.31532e-06
4.00201e-06
3.71071e-06
3.43994e-06
3.18829e-06
2.95446e-06
2.73724e-06
2.53547e-06
2.34812e-06
2.17417e-06
2.0127e-06
1.86285e-06
1.72381e-06
1.59482e-06
1.47519e-06
1.36425e-06
1.26141e-06
1.16607e-06
1.07773e-06
9.95872e-07
9.20045e-07
8.49817e-07
7.84789e-07
7.24589e-07
6.68868e-07
6.17306e-07
5.69601e-07
5.25473e-07
4.84665e-07
4.46932e-07
4.12052e-07
3.79815e-07
3.50027e-07
3.22508e-07
2.9709e-07
2.73619e-07
2.51949e-07
2.31947e-07
2.13487e-07
1.96456e-07
1.80745e-07
1.66256e-07
1.52895e-07
1.40579e-07
1.29227e-07
1.18767e-07
1.09131e-07
1.00255e-07
9.20811e-08
8.45558e-08
7.7629e-08
7.12544e-08
6.53893e-08
5.99941e-08
5.50322e-08
5.04699e-08
4.62759e-08
4.24213e-08
3.88794e-08
3.56256e-08
3.2637e-08
2.98927e-08
2.73732e-08
2.50607e-08
2.29385e-08
2.09915e-08
1.92056e-08
1.75679e-08
1.60663e-08
1.46898e-08
1.34284e-08
1.22726e-08
1.12138e-08
1.02441e-08
9.35626e-09
8.54348e-09
7.7996e-09
7.11892e-09
6.49623e-09
5.9267e-09
5.40591e-09
4.9298e-09
4.49464e-09
4.09698e-09
3.73368e-09
3.40185e-09
3.09882e-09
2.82216e-09
2.56964e-09
2.33919e-09
2.12893e-09
1.93715e-09
1.76225e-09
1.60279e-09
1.45743e-09
1.32496e-09
1.20426e-09
1.09431e-09
9.94179e-10
9.03009e-10
8.20016e-10
7.44484e-10
6.75758e-10
6.13239e-10
5.56379e-10
5.04679e-10
4.57679e-10
4.14964e-10
3.7615e-10
3.4089e-10
3.08866e-10
2.79787e-10
2.53389e-10
2.2943e-10
2.07689e-10
1.87966e-10
1.70077e-10
1.53856e-10
1.39151e-10
1.25822e-10
1.13745e-10
1.02803e-10
9.28929e-11
8.39189e-11
7.57947e-11
6.84413e-11
6.17873e-11
5.57674e-11
5.03226e-11
4.5399e-11
4.09478e-11
3.69246e-11
3.3289e-11
3.00045e-11
2.70379e-11
2.4359e-11
2.19405e-11
1.97576e-11
1.77878e-11
1.60106e-11
1.44078e-11
1.29624e-11
1.16593e-11
1.04848e-11
9.4264e-12
8.47291e-12
7.61411e-12
6.84078e-12
6.14457e-12
5.51794e-12
4.95406e-12
4.44678e-12
3.99053e-12
3.58025e-12
3.21142e-12
2.87992e-12
2.58204e-12
2.31444e-12
2.0741e-12
1.85829e-12
1.66456e-12
1.49069e-12
1.33468e-12
1.19474e-12
1.06923e-12
9.56701e-13
8.55837e-13
7.65452e-13
6.84479e-13
6.11959e-13
5.47029e-13
4.88913e-13
4.36914e-13
3.90404e-13
3.48821e-13
3.1166e-13
2.78465e-13
2.48831e-13
2.22393e-13
1.98824e-13
1.77832e-13
1.59155e-13
1.42559e-13
1.27836e-13
1.14801e-13
1.03289e-13
9.31532e-14
8.42656e-14
7.65124e-14
6.97943e-14
6.40251e-14
5.91304e-14
5.50472e-14
5.17225e-14
4.91134e-14
4.71854e-14
4.59131e-14
4.52811e-14
0.000942321
0.00282331
0.00469337
0.00654541
0.00837254
0.0101682
0.0119261
0.0136405
0.0153059
0.0169173
0.0184701
0.0199604
0.0213843
0.0227389
0.0240213
0.0252292
0.026361
0.0274151
0.0283906
0.0292869
0.0301038
0.0308415
0.0315004
0.0320813
0.0325854
0.033014
0.0333687
0.0336514
0.0338642
0.0340091
0.0340887
0.0341055
0.034062
0.0339611
0.0338055
0.0335981
0.0333418
0.0330396
0.0326944
0.0323091
0.0318868
0.0314302
0.0309422
0.0304257
0.0298834
0.029318
0.0287321
0.0281282
0.0275087
0.026876
0.0262324
0.0255799
0.0249207
0.0242567
0.0235896
0.0229213
0.0222534
0.0215873
0.0209246
0.0202664
0.0196142
0.0189688
0.0183315
0.017703
0.0170843
0.0164762
0.0158792
0.0152939
0.014721
0.0141608
0.0136136
0.01308
0.0125599
0.0120538
0.0115617
0.0110836
0.0106197
0.0101699
0.00973429
0.00931267
0.00890497
0.00851106
0.00813077
0.00776392
0.0074103
0.00706967
0.00674179
0.00642639
0.00612321
0.00583196
0.00555234
0.00528406
0.0050268
0.00478026
0.00454413
0.00431809
0.00410182
0.00389502
0.00369736
0.00350854
0.00332824
0.00315618
0.00299204
0.00283553
0.00268637
0.00254426
0.00240895
0.00228014
0.00215759
0.00204103
0.00193021
0.00182489
0.00172484
0.00162982
0.00153962
0.00145402
0.00137282
0.00129581
0.00122281
0.00115362
0.00108808
0.001026
0.000967224
0.000911593
0.000858954
0.000809162
0.000762075
0.00071756
0.000675489
0.000635738
0.00059819
0.000562732
0.000529258
0.000497664
0.000467853
0.000439732
0.000413211
0.000388206
0.000364636
0.000342425
0.000321499
0.000301788
0.000283226
0.000265752
0.000249304
0.000233826
0.000219264
0.000205568
0.000192688
0.000180579
0.000169196
0.0001585
0.000148451
0.000139011
0.000130146
0.000121822
0.000114008
0.000106675
9.97936e-05
9.33382e-05
8.72835e-05
8.16057e-05
7.62825e-05
7.12928e-05
6.66167e-05
6.22353e-05
5.81309e-05
5.42867e-05
5.06871e-05
4.73171e-05
4.41627e-05
4.12107e-05
3.84486e-05
3.58648e-05
3.34483e-05
3.11886e-05
2.9076e-05
2.71014e-05
2.5256e-05
2.35317e-05
2.1921e-05
2.04166e-05
1.90118e-05
1.77002e-05
1.6476e-05
1.53335e-05
1.42675e-05
1.3273e-05
1.23455e-05
1.14805e-05
1.06741e-05
9.92241e-06
9.22186e-06
8.56911e-06
7.96101e-06
7.39463e-06
6.86719e-06
6.37613e-06
5.91903e-06
5.49361e-06
5.09777e-06
4.72952e-06
4.38701e-06
4.06849e-06
3.77236e-06
3.49709e-06
3.24125e-06
3.00354e-06
2.78271e-06
2.5776e-06
2.38712e-06
2.21028e-06
2.04613e-06
1.89379e-06
1.75244e-06
1.62132e-06
1.4997e-06
1.38692e-06
1.28236e-06
1.18545e-06
1.09563e-06
1.01242e-06
9.35329e-07
8.63935e-07
7.97827e-07
7.36626e-07
6.7998e-07
6.27561e-07
5.79063e-07
5.34203e-07
4.92716e-07
4.54357e-07
4.18897e-07
3.86124e-07
3.55842e-07
3.27865e-07
3.02026e-07
2.78164e-07
2.56134e-07
2.358e-07
2.17034e-07
1.99719e-07
1.83748e-07
1.69017e-07
1.55435e-07
1.42914e-07
1.31374e-07
1.2074e-07
1.10944e-07
1.0192e-07
9.36108e-08
8.59605e-08
7.89186e-08
7.24381e-08
6.64755e-08
6.09907e-08
5.59464e-08
5.13084e-08
4.70447e-08
4.3126e-08
3.95253e-08
3.62174e-08
3.31792e-08
3.03893e-08
2.78279e-08
2.5477e-08
2.33196e-08
2.13403e-08
1.95247e-08
1.78597e-08
1.63332e-08
1.49338e-08
1.36514e-08
1.24764e-08
1.14001e-08
1.04143e-08
9.51169e-09
8.68541e-09
7.92917e-09
7.23718e-09
6.60414e-09
6.02515e-09
5.49572e-09
5.0117e-09
4.5693e-09
4.16504e-09
3.79571e-09
3.45836e-09
3.1503e-09
2.86905e-09
2.61232e-09
2.37805e-09
2.1643e-09
1.96933e-09
1.79152e-09
1.62941e-09
1.48164e-09
1.34697e-09
1.22426e-09
1.11249e-09
1.01069e-09
9.1801e-10
8.33638e-10
7.56851e-10
6.86984e-10
6.23426e-10
5.65622e-10
5.13063e-10
4.65282e-10
4.21857e-10
3.82399e-10
3.46553e-10
3.13997e-10
2.84435e-10
2.57598e-10
2.33241e-10
2.11139e-10
1.91088e-10
1.72903e-10
1.56412e-10
1.41462e-10
1.27913e-10
1.15634e-10
1.04511e-10
9.44361e-11
8.5313e-11
7.70538e-11
6.95783e-11
6.28137e-11
5.66939e-11
5.11586e-11
4.61532e-11
4.16281e-11
3.7538e-11
3.3842e-11
3.0503e-11
2.74871e-11
2.47637e-11
2.2305e-11
2.00858e-11
1.80833e-11
1.62766e-11
1.46471e-11
1.31777e-11
1.1853e-11
1.06589e-11
9.583e-12
8.61367e-12
7.7406e-12
6.95442e-12
6.24664e-12
5.6096e-12
5.03636e-12
4.52066e-12
4.05682e-12
3.63973e-12
3.26477e-12
2.92776e-12
2.62494e-12
2.35289e-12
2.10856e-12
1.88917e-12
1.69222e-12
1.51546e-12
1.35685e-12
1.21458e-12
1.08699e-12
9.72595e-13
8.70055e-13
7.78168e-13
6.9585e-13
6.22125e-13
5.56117e-13
4.97035e-13
4.44172e-13
3.9689e-13
3.54616e-13
3.16837e-13
2.83091e-13
2.52965e-13
2.26088e-13
2.02127e-13
1.80786e-13
1.61799e-13
1.44927e-13
1.2996e-13
1.16708e-13
1.05004e-13
9.47007e-14
8.56655e-14
7.77835e-14
7.09538e-14
6.50887e-14
6.01127e-14
5.59617e-14
5.25819e-14
4.99294e-14
4.79695e-14
4.66761e-14
4.60336e-14
0.000947704
0.00283952
0.00472061
0.00658395
0.00842274
0.0102305
0.0120009
0.0137281
0.0154068
0.0170318
0.0185985
0.0201028
0.0215409
0.0229097
0.0242063
0.0254284
0.0265741
0.0276419
0.0286308
0.02954
0.0303694
0.031119
0.0317893
0.0323809
0.0328951
0.033333
0.0336963
0.0339868
0.0342066
0.0343578
0.0344428
0.0344642
0.0344246
0.0343267
0.0341734
0.0339674
0.0337119
0.0334097
0.0330639
0.0326773
0.032253
0.0317938
0.0313028
0.0307827
0.0302362
0.0296662
0.0290753
0.028466
0.0278408
0.027202
0.026552
0.025893
0.0252269
0.0245559
0.0238817
0.0232061
0.0225307
0.0218572
0.0211869
0.0205212
0.0198614
0.0192085
0.0185636
0.0179277
0.0173016
0.0166861
0.0160819
0.0154895
0.0149095
0.0143424
0.0137885
0.0132482
0.0127217
0.0122092
0.0117109
0.0112269
0.0107571
0.0103016
0.00986045
0.00943346
0.00902057
0.00862163
0.00823647
0.00786492
0.00750675
0.00716174
0.00682964
0.00651017
0.00620308
0.00590806
0.00562483
0.00535307
0.00509248
0.00484274
0.00460354
0.00437456
0.00415548
0.00394598
0.00374575
0.00355447
0.00337182
0.00319751
0.00303123
0.00287268
0.00272157
0.00257761
0.00244052
0.00231004
0.00218588
0.00206779
0.00195552
0.00184883
0.00174746
0.0016512
0.00155982
0.0014731
0.00139083
0.00131282
0.00123886
0.00116876
0.00110236
0.00103947
0.000979921
0.00092356
0.000870231
0.000819785
0.000772081
0.000726982
0.000684358
0.000644086
0.000606045
0.000570122
0.000536208
0.000504199
0.000473997
0.000445507
0.000418638
0.000393305
0.000369425
0.000346922
0.000325721
0.000305752
0.000286946
0.000269242
0.000252578
0.000236897
0.000222144
0.000208268
0.000195219
0.00018295
0.000171419
0.000160582
0.000150401
0.000140837
0.000131855
0.000123422
0.000115506
0.000108076
0.000101105
9.45643e-05
8.843e-05
8.26777e-05
7.72846e-05
7.22293e-05
6.74917e-05
6.30528e-05
5.88945e-05
5.49999e-05
5.13529e-05
4.79386e-05
4.47428e-05
4.1752e-05
3.89537e-05
3.6336e-05
3.38877e-05
3.15983e-05
2.9458e-05
2.74574e-05
2.55877e-05