/*--------------------------------*- C++ -*----------------------------------*\
  =========                 |
  \\      /  F ield         | OpenFOAM: The Open Source CFD Toolbox
   \\    /   O peration     | Website:  https://openfoam.org
    \\  /    A nd           | Version:  10
     \\/     M anipulation  |
\*---------------------------------------------------------------------------*/
FoamFile
{
    format      ascii;
    class       volScalarField;
    location    "0.26";
    object      beta;
}
// * * * * * * * * * * * * * * * * * * * * * * * * * * * * * * * * * * * * * //

dimensions      [0 0 0 0 0 0 0];

internalField   uniform 0;

boundaryField
{
    frontAndBack
    {
        type            empty;
    }
    inlet
    {
        type            calculated;
        value           uniform 0;
    }
    outlet
    {
        type            calculated;
        value           uniform 0;
    }
    substrate
    {
        type            calculated;
        value           nonuniform List<scalar> 
400
(
0.0026533
0.00287584
0.0030867
0.00329126
0.00349207
0.00369041
0.00388686
0.00408167
0.00427486
0.00446633
0.00465591
0.00484335
0.00502841
0.00521082
0.00539031
0.00556664
0.00573956
0.00590886
0.00607433
0.0062358
0.00639313
0.00654619
0.00669488
0.00683912
0.00697885
0.00711406
0.00724472
0.00737084
0.00749244
0.00760956
0.00772226
0.00783059
0.00793462
0.00803446
0.00813017
0.00822187
0.00830966
0.00839364
0.00847392
0.00855063
0.00862387
0.00869377
0.00876043
0.00882399
0.00888454
0.00894222
0.00899712
0.00904937
0.00909907
0.00914632
0.00919124
0.00923393
0.00927448
0.00931299
0.00934954
0.00938424
0.00941717
0.0094484
0.00947803
0.00950612
0.00953275
0.009558
0.00958192
0.00960459
0.00962606
0.0096464
0.00966567
0.00968391
0.00970118
0.00971753
0.00973301
0.00974766
0.00976152
0.00977464
0.00978705
0.00979879
0.0098099
0.0098204
0.00983034
0.00983973
0.00984862
0.00985702
0.00986496
0.00987247
0.00987957
0.00988628
0.00989263
0.00989862
0.00990429
0.00990964
0.0099147
0.00991948
0.009924
0.00992827
0.0099323
0.00993611
0.00993971
0.00994311
0.00994632
0.00994935
0.00995221
0.00995492
0.00995747
0.00995988
0.00996216
0.00996431
0.00996634
0.00996826
0.00997007
0.00997177
0.00997339
0.00997491
0.00997634
0.0099777
0.00997898
0.00998019
0.00998132
0.0099824
0.00998341
0.00998437
0.00998527
0.00998612
0.00998693
0.00998768
0.0099884
0.00998907
0.00998971
0.00999031
0.00999087
0.0099914
0.00999191
0.00999238
0.00999283
0.00999325
0.00999364
0.00999402
0.00999437
0.0099947
0.00999501
0.00999531
0.00999559
0.00999585
0.00999609
0.00999633
0.00999654
0.00999675
0.00999694
0.00999713
0.0099973
0.00999746
0.00999761
0.00999776
0.00999789
0.00999802
0.00999814
0.00999825
0.00999836
0.00999846
0.00999855
0.00999864
0.00999872
0.0099988
0.00999887
0.00999894
0.00999901
0.00999907
0.00999912
0.00999918
0.00999923
0.00999928
0.00999932
0.00999936
0.0099994
0.00999944
0.00999947
0.00999951
0.00999954
0.00999957
0.00999959
0.00999962
0.00999964
0.00999967
0.00999969
0.00999971
0.00999972
0.00999974
0.00999976
0.00999977
0.00999979
0.0099998
0.00999981
0.00999983
0.00999984
0.00999985
0.00999986
0.00999987
0.00999988
0.00999988
0.00999989
0.0099999
0.0099999
0.00999991
0.00999992
0.00999992
0.00999993
0.00999993
0.00999994
0.00999994
0.00999994
0.00999995
0.00999995
0.00999995
0.00999996
0.00999996
0.00999996
0.00999997
0.00999997
0.00999997
0.00999997
0.00999997
0.00999998
0.00999998
0.00999998
0.00999998
0.00999998
0.00999998
0.00999998
0.00999998
0.00999999
0.00999999
0.00999999
0.00999999
0.00999999
0.00999999
0.00999999
0.00999999
0.00999999
0.00999999
0.00999999
0.00999999
0.00999999
0.00999999
0.00999999
0.01
0.01
0.01
0.01
0.01
0.01
0.01
0.01
0.01
0.01
0.01
0.01
0.01
0.01
0.01
0.01
0.01
0.01
0.01
0.01
0.01
0.01
0.01
0.01
0.01
0.01
0.01
0.01
0.01
0.01
0.01
0.01
0.01
0.01
0.01
0.01
0.01
0.01
0.01
0.01
0.01
0.01
0.01
0.01
0.01
0.01
0.01
0.01
0.01
0.01
0.01
0.01
0.01
0.01
0.01
0.01
0.01
0.01
0.01
0.01
0.01
0.01
0.01
0.01
0.01
0.01
0.01
0.01
0.01
0.01
0.01
0.01
0.01
0.01
0.01
0.01
0.01
0.01
0.01
0.01
0.01
0.01
0.01
0.01
0.01
0.01
0.01
0.01
0.01
0.01
0.01
0.01
0.01
0.01
0.01
0.01
0.01
0.01
0.01
0.01
0.01
0.01
0.01
0.01
0.01
0.01
0.01
0.01
0.01
0.01
0.01
0.01
0.01
0.01
0.01
0.01
0.01
0.01
0.01
0.01
0.01
0.01
0.01
0.01
0.01
0.01
0.01
0.01
0.01
0.01
0.01
0.01
0.01
0.01
0.01
0.01
0.01
0.01
0.01
0.01
0.01
0.01
0.01
0.01
0.01
0.01
0.01
0.01
0.01
0.01
0.01
0.01
0.01
0.01
0.01
0.01
0.01
)
;
    }
    Wall
    {
        type            calculated;
        value           nonuniform List<scalar> 
400
(
0.0026533
0.00287585
0.00308669
0.00329125
0.00349207
0.00369041
0.00388686
0.00408167
0.00427486
0.00446634
0.00465591
0.00484335
0.00502841
0.00521081
0.0053903
0.00556663
0.00573955
0.00590884
0.00607431
0.00623578
0.0063931
0.00654616
0.00669484
0.00683908
0.00697882
0.00711402
0.00724468
0.00737079
0.00749239
0.00760951
0.00772221
0.00783054
0.00793457
0.00803441
0.00813012
0.00822182
0.00830961
0.00839359
0.00847387
0.00855058
0.00862383
0.00869372
0.00876039
0.00882394
0.0088845
0.00894217
0.00899708
0.00904932
0.00909902
0.00914628
0.00919121
0.00923389
0.00927444
0.00931295
0.00934951
0.00938421
0.00941714
0.00944837
0.009478
0.00950609
0.00953273
0.00955797
0.0095819
0.00960457
0.00962604
0.00964638
0.00966565
0.00968389
0.00970117
0.00971752
0.009733
0.00974764
0.00976151
0.00977463
0.00978704
0.00979878
0.00980989
0.00982039
0.00983033
0.00983972
0.00984861
0.00985701
0.00986496
0.00987247
0.00987957
0.00988628
0.00989262
0.00989862
0.00990428
0.00990964
0.0099147
0.00991948
0.009924
0.00992826
0.0099323
0.00993611
0.00993971
0.0099431
0.00994632
0.00994935
0.00995221
0.00995492
0.00995747
0.00995988
0.00996216
0.00996431
0.00996634
0.00996826
0.00997007
0.00997177
0.00997339
0.00997491
0.00997634
0.0099777
0.00997898
0.00998018
0.00998132
0.0099824
0.00998341
0.00998437
0.00998527
0.00998612
0.00998693
0.00998768
0.0099884
0.00998907
0.00998971
0.00999031
0.00999087
0.0099914
0.00999191
0.00999238
0.00999283
0.00999325
0.00999364
0.00999402
0.00999437
0.0099947
0.00999501
0.00999531
0.00999559
0.00999585
0.00999609
0.00999633
0.00999654
0.00999675
0.00999694
0.00999713
0.0099973
0.00999746
0.00999761
0.00999776
0.00999789
0.00999802
0.00999814
0.00999825
0.00999836
0.00999846
0.00999855
0.00999864
0.00999872
0.0099988
0.00999887
0.00999894
0.00999901
0.00999907
0.00999912
0.00999918
0.00999923
0.00999928
0.00999932
0.00999936
0.0099994
0.00999944
0.00999947
0.00999951
0.00999954
0.00999957
0.00999959
0.00999962
0.00999964
0.00999967
0.00999969
0.00999971
0.00999972
0.00999974
0.00999976
0.00999977
0.00999979
0.0099998
0.00999981
0.00999983
0.00999984
0.00999985
0.00999986
0.00999987
0.00999988
0.00999988
0.00999989
0.0099999
0.0099999
0.00999991
0.00999992
0.00999992
0.00999993
0.00999993
0.00999994
0.00999994
0.00999994
0.00999995
0.00999995
0.00999995
0.00999996
0.00999996
0.00999996
0.00999997
0.00999997
0.00999997
0.00999997
0.00999997
0.00999998
0.00999998
0.00999998
0.00999998
0.00999998
0.00999998
0.00999998
0.00999998
0.00999999
0.00999999
0.00999999
0.00999999
0.00999999
0.00999999
0.00999999
0.00999999
0.00999999
0.00999999
0.00999999
0.00999999
0.00999999
0.00999999
0.00999999
0.01
0.01
0.01
0.01
0.01
0.01
0.01
0.01
0.01
0.01
0.01
0.01
0.01
0.01
0.01
0.01
0.01
0.01
0.01
0.01
0.01
0.01
0.01
0.01
0.01
0.01
0.01
0.01
0.01
0.01
0.01
0.01
0.01
0.01
0.01
0.01
0.01
0.01
0.01
0.01
0.01
0.01
0.01
0.01
0.01
0.01
0.01
0.01
0.01
0.01
0.01
0.01
0.01
0.01
0.01
0.01
0.01
0.01
0.01
0.01
0.01
0.01
0.01
0.01
0.01
0.01
0.01
0.01
0.01
0.01
0.01
0.01
0.01
0.01
0.01
0.01
0.01
0.01
0.01
0.01
0.01
0.01
0.01
0.01
0.01
0.01
0.01
0.01
0.01
0.01
0.01
0.01
0.01
0.01
0.01
0.01
0.01
0.01
0.01
0.01
0.01
0.01
0.01
0.01
0.01
0.01
0.01
0.01
0.01
0.01
0.01
0.01
0.01
0.01
0.01
0.01
0.01
0.01
0.01
0.01
0.01
0.01
0.01
0.01
0.01
0.01
0.01
0.01
0.01
0.01
0.01
0.01
0.01
0.01
0.01
0.01
0.01
0.01
0.01
0.01
0.01
0.01
0.01
0.01
0.01
0.01
0.01
0.01
0.01
0.01
0.01
0.01
0.01
0.01
0.01
0.01
0.01
)
;
    }
}


// ************************************************************************* //
