/*--------------------------------*- C++ -*----------------------------------*\
  =========                 |
  \\      /  F ield         | OpenFOAM: The Open Source CFD Toolbox
   \\    /   O peration     | Website:  https://openfoam.org
    \\  /    A nd           | Version:  10
     \\/     M anipulation  |
\*---------------------------------------------------------------------------*/
FoamFile
{
    format      ascii;
    class       volScalarField;
    location    "0.26";
    object      Exp1;
}
// * * * * * * * * * * * * * * * * * * * * * * * * * * * * * * * * * * * * * //

dimensions      [0 0 0 0 0 0 0];

internalField   uniform 0;

boundaryField
{
    frontAndBack
    {
        type            empty;
    }
    inlet
    {
        type            calculated;
        value           uniform 0;
    }
    outlet
    {
        type            calculated;
        value           uniform 0;
    }
    substrate
    {
        type            calculated;
        value           nonuniform List<scalar> 
400
(
3.95096e-06
1.183e-05
1.96547e-05
2.73999e-05
3.50433e-05
4.25651e-05
4.99477e-05
5.71753e-05
6.42336e-05
7.11104e-05
7.77948e-05
8.42774e-05
9.05502e-05
9.66066e-05
0.000102441
0.00010805
0.000113429
0.000118576
0.000123491
0.000128172
0.00013262
0.000136836
0.000140821
0.000144578
0.000148108
0.000151416
0.000154503
0.000157374
0.000160033
0.000162483
0.00016473
0.000166777
0.000168629
0.000170291
0.000171768
0.000173064
0.000174185
0.000175135
0.000175919
0.000176542
0.00017701
0.000177326
0.000177497
0.000177526
0.000177418
0.00017718
0.000176814
0.000176326
0.00017572
0.000175001
0.000174174
0.000173243
0.000172212
0.000171085
0.000169868
0.000168564
0.000167177
0.000165711
0.000164171
0.00016256
0.000160882
0.000159141
0.000157341
0.000155485
0.000153577
0.000151621
0.00014962
0.000147577
0.000145496
0.000143379
0.000141231
0.000139053
0.00013685
0.000134624
0.000132378
0.000130114
0.000127836
0.000125546
0.000123246
0.00012094
0.000118629
0.000116315
0.000114002
0.00011169
0.000109383
0.000107082
0.000104789
0.000102506
0.000100235
9.79772e-05
9.57343e-05
9.3508e-05
9.12998e-05
8.91109e-05
8.69427e-05
8.47965e-05
8.26733e-05
8.05744e-05
7.85008e-05
7.64534e-05
7.4433e-05
7.24406e-05
7.04769e-05
6.85425e-05
6.66382e-05
6.47646e-05
6.2922e-05
6.1111e-05
5.93321e-05
5.75855e-05
5.58715e-05
5.41905e-05
5.25425e-05
5.09278e-05
4.93465e-05
4.77986e-05
4.62842e-05
4.48032e-05
4.33556e-05
4.19412e-05
4.05601e-05
3.92119e-05
3.78965e-05
3.66137e-05
3.53632e-05
3.41447e-05
3.2958e-05
3.18026e-05
3.06783e-05
2.95847e-05
2.85214e-05
2.74879e-05
2.64838e-05
2.55088e-05
2.45623e-05
2.36439e-05
2.2753e-05
2.18893e-05
2.10522e-05
2.02411e-05
1.94557e-05
1.86953e-05
1.79595e-05
1.72477e-05
1.65593e-05
1.58939e-05
1.5251e-05
1.46299e-05
1.40303e-05
1.34514e-05
1.28929e-05
1.23541e-05
1.18347e-05
1.13339e-05
1.08515e-05
1.03867e-05
9.9392e-06
9.50843e-06
9.09391e-06
8.69516e-06
8.31171e-06
7.9431e-06
7.58885e-06
7.24853e-06
6.92168e-06
6.60789e-06
6.30671e-06
6.01773e-06
5.74054e-06
5.47475e-06
5.21997e-06
4.9758e-06
4.74189e-06
4.51786e-06
4.30337e-06
4.09806e-06
3.90161e-06
3.71369e-06
3.53397e-06
3.36214e-06
3.19792e-06
3.041e-06
2.89111e-06
2.74797e-06
2.61131e-06
2.48087e-06
2.35642e-06
2.23769e-06
2.12447e-06
2.01652e-06
1.91363e-06
1.81559e-06
1.72219e-06
1.63323e-06
1.54853e-06
1.4679e-06
1.39117e-06
1.31816e-06
1.24872e-06
1.18269e-06
1.11991e-06
1.06024e-06
1.00354e-06
9.4967e-07
8.98508e-07
8.49926e-07
8.03807e-07
7.60034e-07
7.185e-07
6.79098e-07
6.41728e-07
6.06293e-07
5.72701e-07
5.40863e-07
5.10695e-07
4.82115e-07
4.55045e-07
4.29412e-07
4.05145e-07
3.82176e-07
3.6044e-07
3.39876e-07
3.20425e-07
3.0203e-07
2.84637e-07
2.68196e-07
2.52658e-07
2.37976e-07
2.24106e-07
2.11006e-07
1.98635e-07
1.86956e-07
1.75931e-07
1.65527e-07
1.55711e-07
1.4645e-07
1.37716e-07
1.29479e-07
1.21714e-07
1.14395e-07
1.07496e-07
1.00997e-07
9.48736e-08
8.91062e-08
8.36751e-08
7.85616e-08
7.37479e-08
6.92174e-08
6.49543e-08
6.09434e-08
5.71705e-08
5.36222e-08
5.02858e-08
4.71491e-08
4.42007e-08
4.14298e-08
3.88262e-08
3.63802e-08
3.40827e-08
3.19251e-08
2.98992e-08
2.79973e-08
2.62122e-08
2.45369e-08
2.29649e-08
2.14902e-08
2.0107e-08
1.88098e-08
1.75934e-08
1.64531e-08
1.53843e-08
1.43826e-08
1.3444e-08
1.25646e-08
1.1741e-08
1.09696e-08
1.02472e-08
9.57094e-09
8.9379e-09
8.34542e-09
7.791e-09
7.27227e-09
6.78703e-09
6.33318e-09
5.90876e-09
5.51193e-09
5.14096e-09
4.79421e-09
4.47016e-09
4.16736e-09
3.88448e-09
3.62025e-09
3.37347e-09
3.14303e-09
2.92788e-09
2.72704e-09
2.53958e-09
2.36465e-09
2.20144e-09
2.04917e-09
1.90715e-09
1.7747e-09
1.65119e-09
1.53604e-09
1.42871e-09
1.32868e-09
1.23546e-09
1.1486e-09
1.06769e-09
9.92327e-10
9.22144e-10
8.56794e-10
7.95954e-10
7.39321e-10
6.86614e-10
6.37567e-10
5.91934e-10
5.49483e-10
5.09999e-10
4.7328e-10
4.39138e-10
4.07398e-10
3.77893e-10
3.50473e-10
3.24992e-10
3.01318e-10
2.79327e-10
2.589e-10
2.39931e-10
2.22318e-10
2.05967e-10
1.90789e-10
1.76703e-10
1.63631e-10
1.51504e-10
1.40254e-10
1.2982e-10
1.20143e-10
1.11171e-10
1.02854e-10
9.51437e-11
8.79984e-11
8.13773e-11
7.5243e-11
6.95605e-11
6.42974e-11
5.94236e-11
5.49109e-11
5.07333e-11
4.68665e-11
4.3288e-11
3.99767e-11
3.69133e-11
3.40797e-11
3.1459e-11
2.90357e-11
2.67953e-11
2.47243e-11
2.28103e-11
2.10416e-11
1.94076e-11
1.78983e-11
1.65044e-11
1.52173e-11
1.40292e-11
1.29326e-11
1.19208e-11
1.09874e-11
1.01266e-11
9.33291e-12
8.60137e-12
7.92732e-12
7.30648e-12
6.73487e-12
6.20884e-12
5.725e-12
5.28021e-12
4.87161e-12
4.49652e-12
4.1525e-12
3.8373e-12
3.54884e-12
3.28523e-12
3.04472e-12
2.82571e-12
2.62675e-12
2.4465e-12
2.28378e-12
2.13747e-12
2.0066e-12
1.89029e-12
1.78775e-12
1.69829e-12
1.62129e-12
1.55625e-12
1.50271e-12
1.46031e-12
1.42877e-12
1.40785e-12
1.39743e-12
)
;
    }
    Wall
    {
        type            calculated;
        value           nonuniform List<scalar> 
400
(
3.95097e-06
1.18301e-05
1.9655e-05
2.74002e-05
3.50437e-05
4.25656e-05
4.99482e-05
5.71756e-05
6.42339e-05
7.11105e-05
7.77948e-05
8.42772e-05
9.05498e-05
9.66061e-05
0.00010244
0.000108049
0.000113428
0.000118575
0.000123489
0.00012817
0.000132618
0.000136834
0.000140819
0.000144575
0.000148106
0.000151413
0.0001545
0.000157371
0.00016003
0.00016248
0.000164726
0.000166773
0.000168625
0.000170287
0.000171764
0.00017306
0.000174181
0.00017513
0.000175915
0.000176538
0.000177005
0.000177322
0.000177492
0.000177521
0.000177414
0.000177175
0.000176809
0.000176321
0.000175715
0.000174996
0.000174169
0.000173237
0.000172206
0.00017108
0.000169863
0.000168558
0.000167171
0.000165706
0.000164165
0.000162555
0.000160877
0.000159136
0.000157336
0.00015548
0.000153572
0.000151616
0.000149615
0.000147572
0.000145491
0.000143374
0.000141226
0.000139049
0.000136846
0.00013462
0.000132373
0.00013011
0.000127832
0.000125542
0.000123242
0.000120936
0.000118625
0.000116311
0.000113998
0.000111687
0.000109379
0.000107079
0.000104786
0.000102503
0.000100232
9.79739e-05
9.57311e-05
9.35049e-05
9.12967e-05
8.91079e-05
8.69398e-05
8.47936e-05
8.26706e-05
8.05718e-05
7.84982e-05
7.64508e-05
7.44305e-05
7.24382e-05
7.04745e-05
6.85403e-05
6.66361e-05
6.47624e-05
6.29199e-05
6.1109e-05
5.93301e-05
5.75836e-05
5.58697e-05
5.41887e-05
5.25408e-05
5.09262e-05
4.93449e-05
4.77971e-05
4.62827e-05
4.48018e-05
4.33542e-05
4.19399e-05
4.05588e-05
3.92107e-05
3.78953e-05
3.66126e-05
3.53621e-05
3.41437e-05
3.2957e-05
3.18017e-05
3.06774e-05
2.95838e-05
2.85205e-05
2.74871e-05
2.64831e-05
2.55081e-05
2.45616e-05
2.36432e-05
2.27524e-05
2.18887e-05
2.10516e-05
2.02406e-05
1.94552e-05
1.86948e-05
1.7959e-05
1.72472e-05
1.65589e-05
1.58935e-05
1.52506e-05
1.46296e-05
1.40299e-05
1.34511e-05
1.28926e-05
1.23538e-05
1.18344e-05
1.13337e-05
1.08512e-05
1.03865e-05
9.93897e-06
9.50821e-06
9.0937e-06
8.69497e-06
8.31153e-06
7.94292e-06
7.58869e-06
7.24837e-06
6.92154e-06
6.60775e-06
6.30658e-06
6.01761e-06
5.74043e-06
5.47464e-06
5.21986e-06
4.97571e-06
4.7418e-06
4.51778e-06
4.30329e-06
4.09799e-06
3.90154e-06
3.71362e-06
3.53391e-06
3.36209e-06
3.19787e-06
3.04096e-06
2.89107e-06
2.74793e-06
2.61127e-06
2.48084e-06
2.35638e-06
2.23766e-06
2.12444e-06
2.0165e-06
1.91361e-06
1.81557e-06
1.72216e-06
1.63321e-06
1.54851e-06
1.46788e-06
1.39115e-06
1.31815e-06
1.24871e-06
1.18268e-06
1.1199e-06
1.06023e-06
1.00353e-06
9.49662e-07
8.985e-07
8.4992e-07
8.03801e-07
7.60029e-07
7.18495e-07
6.79094e-07
6.41724e-07
6.0629e-07
5.72698e-07
5.40861e-07
5.10692e-07
4.82112e-07
4.55043e-07
4.29411e-07
4.05144e-07
3.82175e-07
3.60439e-07
3.39876e-07
3.20424e-07
3.02029e-07
2.84637e-07
2.68196e-07
2.52658e-07
2.37976e-07
2.24106e-07
2.11006e-07
1.98635e-07
1.86956e-07
1.75932e-07
1.65528e-07
1.55711e-07
1.4645e-07
1.37716e-07
1.2948e-07
1.21715e-07
1.14395e-07
1.07497e-07
1.00997e-07
9.48741e-08
8.91068e-08
8.36756e-08
7.85621e-08
7.37484e-08
6.92179e-08
6.49548e-08
6.09439e-08
5.7171e-08
5.36227e-08
5.02862e-08
4.71495e-08
4.42011e-08
4.14302e-08
3.88266e-08
3.63806e-08
3.40831e-08
3.19255e-08
2.98996e-08
2.79977e-08
2.62125e-08
2.45372e-08
2.29652e-08
2.14905e-08
2.01073e-08
1.881e-08
1.75937e-08
1.64534e-08
1.53845e-08
1.43828e-08
1.34442e-08
1.25649e-08
1.17412e-08
1.09697e-08
1.02474e-08
9.57112e-09
8.93807e-09
8.34558e-09
7.79115e-09
7.27242e-09
6.78717e-09
6.33331e-09
5.90889e-09
5.51205e-09
5.14107e-09
4.79432e-09
4.47026e-09
4.16746e-09
3.88458e-09
3.62034e-09
3.37355e-09
3.1431e-09
2.92795e-09
2.72711e-09
2.53965e-09
2.36472e-09
2.2015e-09
2.04923e-09
1.9072e-09
1.77475e-09
1.65124e-09
1.53609e-09
1.42875e-09
1.32872e-09
1.23549e-09
1.14864e-09
1.06772e-09
9.92358e-10
9.22173e-10
8.56821e-10
7.9598e-10
7.39346e-10
6.86637e-10
6.37589e-10
5.91954e-10
5.49502e-10
5.10017e-10
4.73297e-10
4.39154e-10
4.07413e-10
3.77907e-10
3.50486e-10
3.25005e-10
3.0133e-10
2.79337e-10
2.58911e-10
2.39941e-10
2.22327e-10
2.05975e-10
1.90797e-10
1.7671e-10
1.63638e-10
1.51511e-10
1.4026e-10
1.29825e-10
1.20149e-10
1.11176e-10
1.02858e-10
9.5148e-11
8.80024e-11
8.13811e-11
7.52465e-11
6.95638e-11
6.43005e-11
5.94265e-11
5.49136e-11
5.07358e-11
4.68688e-11
4.32901e-11
3.99788e-11
3.69152e-11
3.40815e-11
3.14607e-11
2.90373e-11
2.67967e-11
2.47256e-11
2.28115e-11
2.10428e-11
1.94087e-11
1.78993e-11
1.65053e-11
1.52182e-11
1.403e-11
1.29334e-11
1.19215e-11
1.09881e-11
1.01272e-11
9.33347e-12
8.60189e-12
7.9278e-12
7.30692e-12
6.73529e-12
6.20923e-12
5.72536e-12
5.28055e-12
4.87192e-12
4.49681e-12
4.15277e-12
3.83755e-12
3.54907e-12
3.28544e-12
3.04492e-12
2.82589e-12
2.62692e-12
2.44666e-12
2.28392e-12
2.13761e-12
2.00673e-12
1.89041e-12
1.78787e-12
1.6984e-12
1.6214e-12
1.55636e-12
1.50282e-12
1.46042e-12
1.42886e-12
1.40793e-12
1.39749e-12
)
;
    }
}


// ************************************************************************* //
