/*--------------------------------*- C++ -*----------------------------------*\
  =========                 |
  \\      /  F ield         | OpenFOAM: The Open Source CFD Toolbox
   \\    /   O peration     | Website:  https://openfoam.org
    \\  /    A nd           | Version:  10
     \\/     M anipulation  |
\*---------------------------------------------------------------------------*/
FoamFile
{
    format      ascii;
    class       volScalarField;
    location    "0.26";
    object      growth;
}
// * * * * * * * * * * * * * * * * * * * * * * * * * * * * * * * * * * * * * //

dimensions      [0 0 0 0 0 0 0];

internalField   uniform 0;

boundaryField
{
    frontAndBack
    {
        type            empty;
    }
    inlet
    {
        type            calculated;
        value           uniform 0;
    }
    outlet
    {
        type            calculated;
        value           uniform 0;
    }
    substrate
    {
        type            calculated;
        value           nonuniform List<scalar> 
400
(
0.73467
0.712416
0.69133
0.670874
0.650793
0.630959
0.611314
0.591833
0.572514
0.553367
0.534409
0.515665
0.497159
0.478918
0.460969
0.443336
0.426044
0.409114
0.392567
0.37642
0.360687
0.345381
0.330512
0.316088
0.302115
0.288594
0.275528
0.262916
0.250756
0.239044
0.227774
0.216941
0.206538
0.196554
0.186983
0.177813
0.169034
0.160636
0.152608
0.144937
0.137613
0.130623
0.123957
0.117601
0.111546
0.105778
0.100288
0.0950634
0.0900935
0.0853677
0.0808755
0.076607
0.0725521
0.0687014
0.0650456
0.0615757
0.0582832
0.0551596
0.0521971
0.049388
0.0467247
0.0442003
0.041808
0.0395412
0.0373937
0.0353596
0.0334331
0.0316089
0.0298817
0.0282466
0.0266989
0.025234
0.0238478
0.0225361
0.021295
0.0201209
0.0190103
0.0179598
0.0169662
0.0160266
0.0151381
0.0142979
0.0135036
0.0127526
0.0120427
0.0113716
0.0107373
0.0101378
0.00957118
0.00903573
0.00852975
0.00805165
0.0075999
0.0071731
0.00676987
0.00638895
0.00602911
0.00568922
0.00536817
0.00506495
0.00477858
0.00450813
0.00425274
0.00401158
0.00378387
0.00356886
0.00336587
0.00317423
0.00299332
0.00282254
0.00266134
0.00250919
0.00236558
0.00223005
0.00210214
0.00198144
0.00186755
0.00176008
0.00165869
0.00156303
0.00147279
0.00138765
0.00130735
0.00123161
0.00116017
0.0010928
0.00102926
0.000969343
0.000912848
0.000859581
0.00080936
0.000762015
0.000717383
0.000675313
0.00063566
0.000598288
0.000563067
0.000529878
0.000498603
0.000469136
0.000441374
0.00041522
0.000390583
0.000367377
0.000345519
0.000324935
0.00030555
0.000287296
0.000270109
0.000253928
0.000238694
0.000224355
0.000210858
0.000198154
0.000186199
0.000174949
0.000164364
0.000154405
0.000145035
0.000136221
0.000127931
0.000120134
0.000112801
0.000105906
9.94222e-05
9.33265e-05
8.75959e-05
8.22092e-05
7.71461e-05
7.23877e-05
6.7916e-05
6.37141e-05
5.97662e-05
5.60573e-05
5.25732e-05
4.93007e-05
4.62272e-05
4.33408e-05
4.06305e-05
3.80857e-05
3.56966e-05
3.34539e-05
3.13489e-05
2.93732e-05
2.75192e-05
2.57795e-05
2.41472e-05
2.26158e-05
2.11794e-05
1.9832e-05
1.85684e-05
1.73835e-05
1.62724e-05
1.52307e-05
1.42542e-05
1.33388e-05
1.24808e-05
1.16768e-05
1.09234e-05
1.02175e-05
9.55611e-06
8.93659e-06
8.35632e-06
7.81287e-06
7.30395e-06
6.82744e-06
6.3813e-06
5.96366e-06
5.57273e-06
5.20685e-06
4.86445e-06
4.54406e-06
4.24429e-06
3.96386e-06
3.70154e-06
3.45619e-06
3.22675e-06
3.01219e-06
2.81159e-06
2.62404e-06
2.44873e-06
2.28488e-06
2.13174e-06
1.98864e-06
1.85494e-06
1.73003e-06
1.61335e-06
1.50436e-06
1.40258e-06
1.30753e-06
1.21878e-06
1.13593e-06
1.05858e-06
9.86393e-07
9.19019e-07
8.56148e-07
7.97486e-07
7.42757e-07
6.91704e-07
6.44085e-07
5.99674e-07
5.5826e-07
5.19646e-07
4.83646e-07
4.50088e-07
4.18808e-07
3.89657e-07
3.62493e-07
3.37182e-07
3.13602e-07
2.91636e-07
2.71177e-07
2.52123e-07
2.34381e-07
2.17861e-07
2.02481e-07
1.88165e-07
1.7484e-07
1.62439e-07
1.509e-07
1.40164e-07
1.30176e-07
1.20885e-07
1.12244e-07
1.04208e-07
9.67356e-08
8.97883e-08
8.33298e-08
7.73265e-08
7.1747e-08
6.65621e-08
6.17443e-08
5.72683e-08
5.31103e-08
4.92481e-08
4.56613e-08
4.23305e-08
3.92378e-08
3.63666e-08
3.37014e-08
3.12277e-08
2.89319e-08
2.68017e-08
2.48252e-08
2.29916e-08
2.12908e-08
1.97134e-08
1.82506e-08
1.68942e-08
1.56366e-08
1.44709e-08
1.33904e-08
1.2389e-08
1.14611e-08
1.06013e-08
9.80479e-09
9.06699e-09
8.38364e-09
7.75081e-09
7.16484e-09
6.62233e-09
6.12012e-09
5.65528e-09
5.22507e-09
4.82698e-09
4.45864e-09
4.11788e-09
3.80268e-09
3.51115e-09
3.24156e-09
2.99228e-09
2.76181e-09
2.54876e-09
2.35184e-09
2.16986e-09
2.00169e-09
1.84632e-09
1.70279e-09
1.57021e-09
1.44776e-09
1.33469e-09
1.23028e-09
1.1339e-09
1.04493e-09
9.62808e-10
8.87026e-10
8.17102e-10
7.52589e-10
6.93078e-10
6.38188e-10
5.87568e-10
5.4089e-10
4.97854e-10
4.58181e-10
4.21613e-10
3.87912e-10
3.56857e-10
3.28244e-10
3.01884e-10
2.77604e-10
2.55243e-10
2.34651e-10
2.15691e-10
1.98236e-10
1.8217e-10
1.67383e-10
1.53775e-10
1.41255e-10
1.29737e-10
1.19142e-10
1.09397e-10
1.00436e-10
9.21972e-11
8.46227e-11
7.76603e-11
7.12615e-11
6.53814e-11
5.99789e-11
5.50159e-11
5.04574e-11
4.62711e-11
4.24271e-11
3.88982e-11
3.5659e-11
3.26863e-11
2.99587e-11
2.74564e-11
2.51614e-11
2.30569e-11
2.11275e-11
1.93593e-11
1.77391e-11
1.62551e-11
1.48962e-11
1.36525e-11
1.25146e-11
1.1474e-11
1.05231e-11
9.65459e-12
8.86202e-12
8.13938e-12
7.48121e-12
6.88251e-12
6.33873e-12
5.84571e-12
5.3997e-12
4.99726e-12
4.63531e-12
4.31105e-12
4.022e-12
3.7659e-12
3.54077e-12
3.34488e-12
3.17669e-12
3.03489e-12
2.91839e-12
2.82626e-12
2.75778e-12
2.71243e-12
2.68984e-12
)
;
    }
    Wall
    {
        type            calculated;
        value           nonuniform List<scalar> 
400
(
0.73467
0.712415
0.691331
0.670875
0.650793
0.630959
0.611314
0.591833
0.572514
0.553366
0.534409
0.515665
0.497159
0.478919
0.46097
0.443337
0.426045
0.409116
0.392569
0.376422
0.36069
0.345384
0.330516
0.316092
0.302118
0.288598
0.275532
0.262921
0.250761
0.239049
0.227779
0.216946
0.206543
0.196559
0.186988
0.177818
0.169039
0.160641
0.152613
0.144942
0.137617
0.130628
0.123961
0.117606
0.11155
0.105783
0.100292
0.0950676
0.0900975
0.0853716
0.0808794
0.0766107
0.0725557
0.0687049
0.0650489
0.0615789
0.0582862
0.0551626
0.0522
0.0493907
0.0467273
0.0442028
0.0418104
0.0395435
0.0373959
0.0353616
0.0334351
0.0316108
0.0298835
0.0282483
0.0267005
0.0252356
0.0238492
0.0225375
0.0212963
0.0201222
0.0190114
0.0179609
0.0169672
0.0160276
0.015139
0.0142988
0.0135044
0.0127534
0.0120434
0.0113723
0.0107379
0.0101384
0.00957174
0.00903626
0.00853025
0.00805211
0.00760034
0.0071735
0.00677025
0.00638931
0.00602945
0.00568953
0.00536846
0.00506522
0.00477883
0.00450837
0.00425296
0.00401178
0.00378406
0.00356904
0.00336604
0.00317439
0.00299347
0.00282268
0.00266147
0.0025093
0.00236569
0.00223015
0.00210224
0.00198153
0.00186763
0.00176016
0.00165876
0.0015631
0.00147285
0.00138771
0.0013074
0.00123166
0.00116021
0.00109284
0.0010293
0.000969378
0.00091288
0.00085961
0.000809387
0.00076204
0.000717407
0.000675335
0.00063568
0.000598306
0.000563085
0.000529894
0.000498618
0.00046915
0.000441387
0.000415232
0.000390594
0.000367387
0.000345529
0.000324943
0.000305557
0.000287303
0.000270116
0.000253934
0.0002387
0.00022436
0.000210862
0.000198159
0.000186203
0.000174953
0.000164368
0.000154408
0.000145038
0.000136224
0.000127934
0.000120136
0.000112803
0.000105908
9.94241e-05
9.33283e-05
8.75976e-05
8.22107e-05
7.71475e-05
7.2389e-05
6.79172e-05
6.37153e-05
5.97673e-05
5.60583e-05
5.25742e-05
4.93016e-05
4.6228e-05
4.33415e-05
4.06312e-05
3.80864e-05
3.56972e-05
3.34545e-05
3.13494e-05
2.93737e-05
2.75197e-05
2.57799e-05
2.41476e-05
2.26162e-05
2.11797e-05
1.98324e-05
1.85688e-05
1.73838e-05
1.62727e-05
1.5231e-05
1.42544e-05
1.3339e-05
1.24811e-05
1.1677e-05
1.09236e-05
1.02176e-05
9.55628e-06
8.93676e-06
8.35647e-06
7.81301e-06
7.30409e-06
6.82756e-06
6.38142e-06
5.96377e-06
5.57284e-06
5.20695e-06
4.86454e-06
4.54415e-06
4.24438e-06
3.96394e-06
3.70162e-06
3.45627e-06
3.22681e-06
3.01226e-06
2.81165e-06
2.6241e-06
2.44879e-06
2.28493e-06
2.13179e-06
1.98869e-06
1.85498e-06
1.73007e-06
1.61338e-06
1.50439e-06
1.40261e-06
1.30756e-06
1.21881e-06
1.13596e-06
1.05861e-06
9.86418e-07
9.19043e-07
8.5617e-07
7.97507e-07
7.42777e-07
6.91722e-07
6.44102e-07
5.9969e-07
5.58276e-07
5.1966e-07
4.8366e-07
4.501e-07
4.1882e-07
3.89669e-07
3.62503e-07
3.37192e-07
3.13611e-07
2.91645e-07
2.71185e-07
2.52131e-07
2.34388e-07
2.17868e-07
2.02488e-07
1.88171e-07
1.74846e-07
1.62445e-07
1.50905e-07
1.40168e-07
1.3018e-07
1.20889e-07
1.12248e-07
1.04212e-07
9.6739e-08
8.97915e-08
8.33328e-08
7.73293e-08
7.17497e-08
6.65645e-08
6.17466e-08
5.72704e-08
5.31123e-08
4.925e-08
4.5663e-08
4.23321e-08
3.92394e-08
3.63681e-08
3.37028e-08
3.1229e-08
2.89331e-08
2.68028e-08
2.48262e-08
2.29926e-08
2.12917e-08
1.97142e-08
1.82513e-08
1.68949e-08
1.56373e-08
1.44715e-08
1.3391e-08
1.23896e-08
1.14616e-08
1.06018e-08
9.80525e-09
9.06741e-09
8.38404e-09
7.75118e-09
7.16519e-09
6.62266e-09
6.12042e-09
5.65556e-09
5.22533e-09
4.82722e-09
4.45887e-09
4.11809e-09
3.80288e-09
3.51133e-09
3.24173e-09
2.99243e-09
2.76195e-09
2.5489e-09
2.35197e-09
2.16998e-09
2.0018e-09
1.84642e-09
1.70288e-09
1.5703e-09
1.44784e-09
1.33476e-09
1.23035e-09
1.13396e-09
1.04499e-09
9.62865e-10
8.87079e-10
8.17151e-10
7.52635e-10
6.93121e-10
6.38228e-10
5.87604e-10
5.40924e-10
4.97885e-10
4.5821e-10
4.2164e-10
3.87937e-10
3.5688e-10
3.28265e-10
3.01904e-10
2.77623e-10
2.5526e-10
2.34666e-10
2.15706e-10
1.9825e-10
1.82182e-10
1.67395e-10
1.53786e-10
1.41265e-10
1.29746e-10
1.1915e-10
1.09405e-10
1.00444e-10
9.2204e-11
8.4629e-11
7.76661e-11
7.12668e-11
6.53863e-11
5.99834e-11
5.50201e-11
5.04613e-11
4.62746e-11
4.24304e-11
3.89012e-11
3.56618e-11
3.26889e-11
2.9961e-11
2.74586e-11
2.51634e-11
2.30587e-11
2.11293e-11
1.93609e-11
1.77406e-11
1.62564e-11
1.48975e-11
1.36536e-11
1.25156e-11
1.1475e-11
1.0524e-11
9.65542e-12
8.86278e-12
8.14008e-12
7.48186e-12
6.88311e-12
6.33928e-12
5.84622e-12
5.40017e-12
4.99769e-12
4.63571e-12
4.31143e-12
4.02234e-12
3.76622e-12
3.54108e-12
3.34517e-12
3.17697e-12
3.03516e-12
2.91865e-12
2.82652e-12
2.75802e-12
2.71262e-12
2.68999e-12
)
;
    }
}


// ************************************************************************* //
