/*--------------------------------*- C++ -*----------------------------------*\
  =========                 |
  \\      /  F ield         | OpenFOAM: The Open Source CFD Toolbox
   \\    /   O peration     | Website:  https://openfoam.org
    \\  /    A nd           | Version:  10
     \\/     M anipulation  |
\*---------------------------------------------------------------------------*/
FoamFile
{
    format      ascii;
    class       volScalarField;
    location    "0.26";
    object      N1;
}
// * * * * * * * * * * * * * * * * * * * * * * * * * * * * * * * * * * * * * //

dimensions      [0 0 0 0 0 0 0];

internalField   nonuniform List<scalar> 
8000
(
2.99915e-05
8.98369e-05
0.000149314
0.000208229
0.000266411
0.00032371
0.000379988
0.000435125
0.00048901
0.000541548
0.000592654
0.000642255
0.000690286
0.000736695
0.000781438
0.000824479
0.000865791
0.000905355
0.000943157
0.000979192
0.00101346
0.00104596
0.00107671
0.00110571
0.00113299
0.00115857
0.00118247
0.00120471
0.00122533
0.00124435
0.00126181
0.00127774
0.00129217
0.00130513
0.00131668
0.00132683
0.00133563
0.00134311
0.00134932
0.00135428
0.00135804
0.00136064
0.00136211
0.00136248
0.00136181
0.00136011
0.00135744
0.00135381
0.00134928
0.00134388
0.00133763
0.00133058
0.00132275
0.00131419
0.00130493
0.00129499
0.0012844
0.00127321
0.00126145
0.00124913
0.0012363
0.00122297
0.00120919
0.00119498
0.00118036
0.00116537
0.00115002
0.00113436
0.00111839
0.00110216
0.00108567
0.00106896
0.00105205
0.00103496
0.00101771
0.00100033
0.000982838
0.000965248
0.000947585
0.000929866
0.00091211
0.000894336
0.00087656
0.000858799
0.00084107
0.000823387
0.000805765
0.000788219
0.000770762
0.000753407
0.000736167
0.000719054
0.000702078
0.000685251
0.000668583
0.000652083
0.00063576
0.000619624
0.00060368
0.000587939
0.000572405
0.000557085
0.000541986
0.000527113
0.00051247
0.000498063
0.000483895
0.000469969
0.00045629
0.000442859
0.000429679
0.000416752
0.00040408
0.000391663
0.000379502
0.000367599
0.000355953
0.000344564
0.000333431
0.000322555
0.000311933
0.000301565
0.000291449
0.000281584
0.000271967
0.000262597
0.00025347
0.000244585
0.000235939
0.000227528
0.00021935
0.000211402
0.000203681
0.000196182
0.000188903
0.00018184
0.000174988
0.000168346
0.000161908
0.00015567
0.00014963
0.000143782
0.000138123
0.000132648
0.000127354
0.000122237
0.000117292
0.000112516
0.000107904
0.000103452
9.91568e-05
9.50135e-05
9.10183e-05
8.71673e-05
8.34566e-05
7.98824e-05
7.64406e-05
7.31277e-05
6.99397e-05
6.6873e-05
6.3924e-05
6.1089e-05
5.83646e-05
5.57472e-05
5.32335e-05
5.08202e-05
4.85038e-05
4.62814e-05
4.41496e-05
4.21054e-05
4.01459e-05
3.82681e-05
3.64691e-05
3.47462e-05
3.30965e-05
3.15176e-05
3.00067e-05
2.85614e-05
2.71792e-05
2.58577e-05
2.45947e-05
2.33879e-05
2.22351e-05
2.11342e-05
2.00832e-05
1.908e-05
1.81228e-05
1.72098e-05
1.6339e-05
1.55088e-05
1.47175e-05
1.39634e-05
1.32451e-05
1.25609e-05
1.19095e-05
1.12894e-05
1.06993e-05
1.01378e-05
9.60375e-06
9.09589e-06
8.61306e-06
8.15414e-06
7.71805e-06
7.30377e-06
6.91029e-06
6.53665e-06
6.18195e-06
5.84531e-06
5.52587e-06
5.22284e-06
4.93543e-06
4.66291e-06
4.40456e-06
4.1597e-06
3.92768e-06
3.70787e-06
3.49968e-06
3.30255e-06
3.11591e-06
2.93926e-06
2.77209e-06
2.61394e-06
2.46434e-06
2.32286e-06
2.1891e-06
2.06266e-06
1.94315e-06
1.83024e-06
1.72357e-06
1.62281e-06
1.52767e-06
1.43785e-06
1.35306e-06
1.27304e-06
1.19755e-06
1.12632e-06
1.05915e-06
9.95806e-07
9.36085e-07
8.79792e-07
8.26739e-07
7.76751e-07
7.29658e-07
6.85303e-07
6.43533e-07
6.04205e-07
5.67184e-07
5.32341e-07
4.99553e-07
4.68706e-07
4.3969e-07
4.12401e-07
3.8674e-07
3.62616e-07
3.39941e-07
3.1863e-07
2.98606e-07
2.79795e-07
2.62125e-07
2.45531e-07
2.29951e-07
2.15323e-07
2.01594e-07
1.88709e-07
1.7662e-07
1.65278e-07
1.5464e-07
1.44663e-07
1.35308e-07
1.26539e-07
1.18318e-07
1.10614e-07
1.03396e-07
9.66327e-08
9.0298e-08
8.43652e-08
7.88098e-08
7.36087e-08
6.874e-08
6.41833e-08
5.99194e-08
5.593e-08
5.2198e-08
4.87075e-08
4.54434e-08
4.23914e-08
3.95383e-08
3.68715e-08
3.43793e-08
3.20506e-08
2.9875e-08
2.78428e-08
2.59448e-08
2.41725e-08
2.25179e-08
2.09732e-08
1.95316e-08
1.81862e-08
1.69309e-08
1.57599e-08
1.46676e-08
1.36489e-08
1.26991e-08
1.18135e-08
1.0988e-08
1.02186e-08
9.5017e-09
8.83372e-09
8.21144e-09
7.63184e-09
7.09207e-09
6.58947e-09
6.12156e-09
5.68601e-09
5.28064e-09
4.90343e-09
4.55247e-09
4.22599e-09
3.92233e-09
3.63993e-09
3.37735e-09
3.13323e-09
2.90632e-09
2.69543e-09
2.49947e-09
2.31739e-09
2.14826e-09
1.99116e-09
1.84528e-09
1.70982e-09
1.58406e-09
1.46733e-09
1.35899e-09
1.25846e-09
1.16519e-09
1.07867e-09
9.98424e-10
9.24004e-10
8.55002e-10
7.91031e-10
7.31736e-10
6.76782e-10
6.2586e-10
5.78682e-10
5.34979e-10
4.94502e-10
4.57018e-10
4.22312e-10
3.90182e-10
3.60443e-10
3.32921e-10
3.07455e-10
2.83895e-10
2.62102e-10
2.41947e-10
2.23309e-10
2.06079e-10
1.90151e-10
1.7543e-10
1.61828e-10
1.49261e-10
1.37653e-10
1.26933e-10
1.17034e-10
1.07896e-10
9.9463e-11
9.16813e-11
8.45026e-11
7.78821e-11
7.1778e-11
6.61518e-11
6.09678e-11
5.6193e-11
5.17969e-11
4.77513e-11
4.40301e-11
4.06093e-11
3.74668e-11
3.4582e-11
3.19363e-11
2.95121e-11
2.72936e-11
2.52662e-11
2.34165e-11
2.17321e-11
2.02019e-11
1.88157e-11
1.75642e-11
1.64389e-11
1.54325e-11
1.45379e-11
1.37493e-11
1.30613e-11
1.24691e-11
1.19689e-11
1.15571e-11
1.12311e-11
1.09884e-11
1.08276e-11
1.07474e-11
3.02983e-05
9.07841e-05
0.000150951
0.000210612
0.000269599
0.000327757
0.00038495
0.00044105
0.000495947
0.000549539
0.000601736
0.000652461
0.000701645
0.000749229
0.000795165
0.000839411
0.000881935
0.000922713
0.000961726
0.000998963
0.00103442
0.0010681
0.0011
0.00113013
0.00115851
0.00118516
0.00121009
0.00123334
0.00125492
0.00127486
0.00129319
0.00130995
0.00132517
0.00133889
0.00135113
0.00136193
0.00137134
0.00137938
0.0013861
0.00139153
0.00139571
0.00139869
0.00140048
0.00140115
0.00140072
0.00139922
0.00139671
0.00139321
0.00138876
0.0013834
0.00137716
0.00137008
0.0013622
0.00135354
0.00134415
0.00133406
0.00132329
0.00131189
0.00129989
0.00128731
0.00127419
0.00126056
0.00124644
0.00123188
0.00121689
0.00120151
0.00118576
0.00116968
0.00115328
0.00113659
0.00111965
0.00110247
0.00108507
0.00106749
0.00104974
0.00103185
0.00101384
0.000995728
0.000977538
0.000959287
0.000940996
0.000922683
0.000904366
0.000886063
0.00086779
0.000849563
0.000831397
0.000813308
0.00079531
0.000777415
0.000759638
0.00074199
0.000724484
0.000707129
0.000689937
0.000672918
0.000656082
0.000639436
0.000622989
0.00060675
0.000590724
0.000574919
0.000559341
0.000543996
0.000528888
0.000514023
0.000499404
0.000485035
0.000470919
0.00045706
0.00044346
0.000430121
0.000417043
0.00040423
0.000391681
0.000379397
0.000367378
0.000355625
0.000344136
0.000332912
0.00032195
0.00031125
0.00030081
0.000290628
0.000280703
0.000271032
0.000261613
0.000252443
0.000243519
0.000234839
0.000226399
0.000218196
0.000210226
0.000202487
0.000194974
0.000187684
0.000180613
0.000173757
0.000167112
0.000160674
0.000154439
0.000148404
0.000142563
0.000136912
0.000131449
0.000126167
0.000121063
0.000116134
0.000111373
0.000106778
0.000102345
9.80683e-05
9.39447e-05
8.997e-05
8.614e-05
8.24508e-05
7.88985e-05
7.5479e-05
7.21886e-05
6.90233e-05
6.59794e-05
6.30533e-05
6.02413e-05
5.75398e-05
5.49453e-05
5.24543e-05
5.00635e-05
4.77696e-05
4.55693e-05
4.34594e-05
4.14369e-05
3.94987e-05
3.76418e-05
3.58635e-05
3.41608e-05
3.25311e-05
3.09716e-05
2.94798e-05
2.80532e-05
2.66892e-05
2.53856e-05
2.414e-05
2.29501e-05
2.18138e-05
2.0729e-05
1.96936e-05
1.87056e-05
1.77632e-05
1.68644e-05
1.60075e-05
1.51907e-05
1.44124e-05
1.3671e-05
1.29648e-05
1.22925e-05
1.16524e-05
1.10433e-05
1.04638e-05
9.91259e-06
9.38839e-06
8.89004e-06
8.41636e-06
7.96625e-06
7.53864e-06
7.13251e-06
6.74686e-06
6.38076e-06
6.03328e-06
5.70358e-06
5.3908e-06
5.09415e-06
4.81286e-06
4.5462e-06
4.29347e-06
4.05398e-06
3.82711e-06
3.61223e-06
3.40875e-06
3.21611e-06
3.03378e-06
2.86124e-06
2.698e-06
2.54359e-06
2.39756e-06
2.2595e-06
2.12899e-06
2.00564e-06
1.88909e-06
1.77899e-06
1.675e-06
1.5768e-06
1.48409e-06
1.39657e-06
1.31398e-06
1.23606e-06
1.16254e-06
1.09321e-06
1.02783e-06
9.66188e-07
9.08084e-07
8.53326e-07
8.0173e-07
7.53123e-07
7.07341e-07
6.64227e-07
6.23635e-07
5.85424e-07
5.4946e-07
5.15618e-07
4.83779e-07
4.53829e-07
4.25663e-07
3.99177e-07
3.74277e-07
3.50872e-07
3.28877e-07
3.08209e-07
2.88792e-07
2.70555e-07
2.53427e-07
2.37345e-07
2.22248e-07
2.08077e-07
1.94778e-07
1.82299e-07
1.70593e-07
1.59613e-07
1.49315e-07
1.3966e-07
1.30608e-07
1.22123e-07
1.14171e-07
1.06721e-07
9.97402e-08
9.32017e-08
8.70782e-08
8.13441e-08
7.59758e-08
7.09505e-08
6.62473e-08
6.18463e-08
5.77285e-08
5.38766e-08
5.02739e-08
4.69048e-08
4.37547e-08
4.08098e-08
3.80572e-08
3.54849e-08
3.30812e-08
3.08357e-08
2.87381e-08
2.67792e-08
2.49499e-08
2.3242e-08
2.16477e-08
2.01596e-08
1.8771e-08
1.74754e-08
1.62667e-08
1.51393e-08
1.40878e-08
1.31074e-08
1.21934e-08
1.13414e-08
1.05472e-08
9.80725e-09
9.11779e-09
8.4755e-09
7.87726e-09
7.32013e-09
6.80137e-09
6.31841e-09
5.86886e-09
5.45046e-09
5.06111e-09
4.69887e-09
4.36189e-09
4.04846e-09
3.75698e-09
3.48595e-09
3.23399e-09
2.99978e-09
2.78211e-09
2.57984e-09
2.39192e-09
2.21734e-09
2.05519e-09
1.90462e-09
1.7648e-09
1.635e-09
1.51451e-09
1.4027e-09
1.29893e-09
1.20266e-09
1.11336e-09
1.03053e-09
9.53718e-10
8.82496e-10
8.16469e-10
7.55267e-10
6.98546e-10
6.45986e-10
5.97291e-10
5.52183e-10
5.10404e-10
4.71714e-10
4.35892e-10
4.02729e-10
3.72034e-10
3.43627e-10
3.17342e-10
2.93024e-10
2.7053e-10
2.49727e-10
2.3049e-10
2.12705e-10
1.96266e-10
1.81072e-10
1.67032e-10
1.54061e-10
1.42079e-10
1.31014e-10
1.20798e-10
1.11366e-10
1.02661e-10
9.46295e-11
8.722e-11
8.03866e-11
7.40862e-11
6.82791e-11
6.29283e-11
5.8e-11
5.34625e-11
4.92868e-11
4.5446e-11
4.19152e-11
3.86716e-11
3.56941e-11
3.29632e-11
3.04611e-11
2.81713e-11
2.60787e-11
2.41695e-11
2.24309e-11
2.08515e-11
1.94207e-11
1.8129e-11
1.69676e-11
1.59287e-11
1.50054e-11
1.41914e-11
1.34813e-11
1.28701e-11
1.23538e-11
1.19288e-11
1.15922e-11
1.13418e-11
1.11757e-11
1.1093e-11
3.05988e-05
9.16991e-05
0.000152512
0.000212859
0.000272575
0.000331508
0.000389519
0.000446481
0.000502279
0.000556808
0.000609976
0.0006617
0.000711908
0.000760536
0.00080753
0.000852846
0.000896447
0.000938303
0.000978392
0.0010167
0.00105321
0.00108793
0.00112086
0.001152
0.00118136
0.00120896
0.00123482
0.00125896
0.00128139
0.00130216
0.00132128
0.00133878
0.00135471
0.00136909
0.00138196
0.00139335
0.0014033
0.00141184
0.00141902
0.00142487
0.00142943
0.00143274
0.00143484
0.00143576
0.00143555
0.00143424
0.00143188
0.00142849
0.00142412
0.0014188
0.00141257
0.00140547
0.00139753
0.0013888
0.0013793
0.00136907
0.00135814
0.00134655
0.00133433
0.00132152
0.00130815
0.00129424
0.00127983
0.00126495
0.00124964
0.00123391
0.0012178
0.00120134
0.00118455
0.00116747
0.00115011
0.0011325
0.00111468
0.00109665
0.00107846
0.00106011
0.00104164
0.00102306
0.0010044
0.000985668
0.000966898
0.000948102
0.000929301
0.000910511
0.000891751
0.000873037
0.000854384
0.000835809
0.000817325
0.000798947
0.000780688
0.000762561
0.000744578
0.00072675
0.00070909
0.000691605
0.000674308
0.000657205
0.000640307
0.000623621
0.000607155
0.000590915
0.000574908
0.000559139
0.000543614
0.000528338
0.000513314
0.000498548
0.000484042
0.000469799
0.000455821
0.000442112
0.000428672
0.000415503
0.000402605
0.00038998
0.000377627
0.000365547
0.000353739
0.000342202
0.000330935
0.000319937
0.000309206
0.000298741
0.00028854
0.000278599
0.000268917
0.000259492
0.000250319
0.000241397
0.000232721
0.000224289
0.000216098
0.000208142
0.00020042
0.000192926
0.000185658
0.000178611
0.00017178
0.000165163
0.000158754
0.00015255
0.000146546
0.000140738
0.000135121
0.000129692
0.000124446
0.000119379
0.000114485
0.000109762
0.000105205
0.000100809
9.65699e-05
9.24841e-05
8.85472e-05
8.4755e-05
8.11034e-05
7.75883e-05
7.4206e-05
7.09522e-05
6.78234e-05
6.48155e-05
6.19249e-05
5.91479e-05
5.64809e-05
5.39203e-05
5.14627e-05
4.91047e-05
4.68429e-05
4.4674e-05
4.2595e-05
4.06026e-05
3.86939e-05
3.68658e-05
3.51156e-05
3.34403e-05
3.18373e-05
3.03038e-05
2.88373e-05
2.74352e-05
2.60951e-05
2.48147e-05
2.35916e-05
2.24235e-05
2.13084e-05
2.0244e-05
1.92285e-05
1.82597e-05
1.73358e-05
1.64549e-05
1.56153e-05
1.48153e-05
1.40531e-05
1.33272e-05
1.26361e-05
1.19781e-05
1.1352e-05
1.07563e-05
1.01897e-05
9.65081e-06
9.13852e-06
8.6516e-06
8.18892e-06
7.74936e-06
7.33187e-06
6.93544e-06
6.5591e-06
6.20192e-06
5.863e-06
5.54148e-06
5.23654e-06
4.94739e-06
4.67327e-06
4.41347e-06
4.1673e-06
3.93408e-06
3.71319e-06
3.50403e-06
3.30601e-06
3.11858e-06
2.94121e-06
2.77341e-06
2.61468e-06
2.46458e-06
2.32265e-06
2.1885e-06
2.0617e-06
1.9419e-06
1.82872e-06
1.72182e-06
1.62087e-06
1.52557e-06
1.43561e-06
1.35071e-06
1.27061e-06
1.19504e-06
1.12377e-06
1.05656e-06
9.93194e-07
9.33467e-07
8.77177e-07
8.24139e-07
7.74174e-07
7.27112e-07
6.82794e-07
6.41067e-07
6.01787e-07
5.64818e-07
5.30031e-07
4.97301e-07
4.66515e-07
4.37561e-07
4.10335e-07
3.84739e-07
3.6068e-07
3.38069e-07
3.16824e-07
2.96865e-07
2.78117e-07
2.60511e-07
2.4398e-07
2.2846e-07
2.13893e-07
2.00222e-07
1.87395e-07
1.75361e-07
1.64074e-07
1.53489e-07
1.43563e-07
1.34258e-07
1.25537e-07
1.17363e-07
1.09704e-07
1.02528e-07
9.58069e-08
8.95122e-08
8.36179e-08
7.80994e-08
7.29338e-08
6.80991e-08
6.3575e-08
5.93422e-08
5.53826e-08
5.16791e-08
4.82159e-08
4.49777e-08
4.19505e-08
3.9121e-08
3.64767e-08
3.40059e-08
3.16976e-08
2.95414e-08
2.75277e-08
2.56473e-08
2.38917e-08
2.22528e-08
2.07232e-08
1.92957e-08
1.79639e-08
1.67214e-08
1.55624e-08
1.44816e-08
1.34738e-08
1.25342e-08
1.16584e-08
1.08421e-08
1.00814e-08
9.37265e-09
8.71241e-09
8.09745e-09
7.52475e-09
6.99149e-09
6.49503e-09
6.03291e-09
5.60281e-09
5.20258e-09
4.83021e-09
4.48381e-09
4.16162e-09
3.862e-09
3.5834e-09
3.32439e-09
3.08363e-09
2.85988e-09
2.65196e-09
2.45878e-09
2.27932e-09
2.11264e-09
1.95785e-09
1.81413e-09
1.6807e-09
1.55685e-09
1.4419e-09
1.33524e-09
1.23628e-09
1.14448e-09
1.05934e-09
9.80377e-10
9.07165e-10
8.39292e-10
7.76379e-10
7.18072e-10
6.64044e-10
6.13987e-10
5.67618e-10
5.24671e-10
4.849e-10
4.48076e-10
4.13987e-10
3.82434e-10
3.53232e-10
3.26213e-10
3.01215e-10
2.78093e-10
2.56708e-10
2.36933e-10
2.18651e-10
2.01752e-10
1.86133e-10
1.71701e-10
1.58367e-10
1.46051e-10
1.34677e-10
1.24174e-10
1.14479e-10
1.05531e-10
9.72747e-11
8.96581e-11
8.26336e-11
7.61571e-11
7.01877e-11
6.46874e-11
5.96213e-11
5.4957e-11
5.06645e-11
4.67163e-11
4.30869e-11
3.97526e-11
3.66919e-11
3.38847e-11
3.13126e-11
2.89588e-11
2.68077e-11
2.48451e-11
2.3058e-11
2.14344e-11
1.99636e-11
1.86358e-11
1.74419e-11
1.6374e-11
1.54249e-11
1.45882e-11
1.38581e-11
1.32299e-11
1.26991e-11
1.22623e-11
1.19163e-11
1.16589e-11
1.14881e-11
1.14031e-11
3.08802e-05
9.25508e-05
0.000153954
0.00021492
0.000275288
0.000334909
0.000393644
0.000451364
0.000507953
0.000563305
0.000617323
0.000669922
0.000721025
0.000770566
0.000818487
0.000864739
0.000909281
0.00095208
0.000993111
0.00103235
0.0010698
0.00110543
0.00113926
0.00117128
0.0012015
0.00122994
0.0012566
0.00128152
0.00130471
0.0013262
0.00134601
0.00136417
0.00138072
0.00139569
0.00140911
0.00142101
0.00143144
0.00144043
0.00144802
0.00145424
0.00145913
0.00146274
0.00146511
0.00146626
0.00146624
0.0014651
0.00146286
0.00145957
0.00145527
0.00144999
0.00144377
0.00143666
0.00142868
0.00141987
0.00141027
0.00139992
0.00138886
0.0013771
0.0013647
0.00135168
0.00133808
0.00132394
0.00130927
0.00129412
0.00127851
0.00126248
0.00124605
0.00122926
0.00121213
0.00119469
0.00117697
0.00115899
0.00114079
0.00112237
0.00110378
0.00108504
0.00106615
0.00104716
0.00102808
0.00100894
0.000989744
0.000970523
0.000951295
0.000932077
0.000912887
0.000893743
0.000874661
0.000855656
0.000836744
0.00081794
0.000799256
0.000780707
0.000762304
0.000744059
0.000725985
0.00070809
0.000690386
0.000672881
0.000655585
0.000638505
0.00062165
0.000605026
0.00058864
0.000572498
0.000556605
0.000540966
0.000525586
0.000510469
0.000495618
0.000481036
0.000466726
0.000452691
0.00043893
0.000425447
0.000412242
0.000399316
0.000386669
0.0003743
0.00036221
0.000350397
0.000338861
0.000327601
0.000316614
0.000305898
0.000295453
0.000285275
0.000275361
0.00026571
0.000256318
0.000247182
0.000238299
0.000229665
0.000221278
0.000213132
0.000205224
0.000197551
0.000190109
0.000182893
0.000175899
0.000169123
0.000162561
0.000156208
0.00015006
0.000144112
0.000138361
0.000132802
0.00012743
0.000122241
0.000117231
0.000112394
0.000107728
0.000103226
9.88859e-05
9.47021e-05
9.06708e-05
8.67876e-05
8.30485e-05
7.94492e-05
7.59857e-05
7.2654e-05
6.945e-05
6.637e-05
6.34101e-05
6.05665e-05
5.78356e-05
5.52136e-05
5.2697e-05
5.02824e-05
4.79664e-05
4.57455e-05
4.36166e-05
4.15765e-05
3.9622e-05
3.77501e-05
3.59579e-05
3.42424e-05
3.26009e-05
3.10306e-05
2.95289e-05
2.80933e-05
2.67211e-05
2.54099e-05
2.41574e-05
2.29614e-05
2.18195e-05
2.07296e-05
1.96897e-05
1.86976e-05
1.77516e-05
1.68496e-05
1.59899e-05
1.51706e-05
1.43902e-05
1.36469e-05
1.29392e-05
1.22654e-05
1.16243e-05
1.10143e-05
1.04341e-05
9.88229e-06
9.35772e-06
8.85912e-06
8.38534e-06
7.93523e-06
7.50773e-06
7.1018e-06
6.71643e-06
6.35068e-06
6.00363e-06
5.6744e-06
5.36214e-06
5.06605e-06
4.78537e-06
4.51934e-06
4.26725e-06
4.02844e-06
3.80226e-06
3.58808e-06
3.38531e-06
3.19338e-06
3.01176e-06
2.83993e-06
2.6774e-06
2.52369e-06
2.37837e-06
2.24099e-06
2.11115e-06
1.98848e-06
1.87258e-06
1.76312e-06
1.65975e-06
1.56216e-06
1.47004e-06
1.38311e-06
1.30108e-06
1.2237e-06
1.15072e-06
1.0819e-06
1.01702e-06
9.55856e-07
8.98217e-07
8.43907e-07
7.92743e-07
7.44552e-07
6.99171e-07
6.56443e-07
6.16221e-07
5.78366e-07
5.42744e-07
5.09229e-07
4.77704e-07
4.48056e-07
4.20177e-07
3.93967e-07
3.69331e-07
3.46178e-07
3.24423e-07
3.03985e-07
2.84788e-07
2.66759e-07
2.49832e-07
2.3394e-07
2.19023e-07
2.05025e-07
1.9189e-07
1.79568e-07
1.6801e-07
1.5717e-07
1.47007e-07
1.37479e-07
1.28548e-07
1.20178e-07
1.12335e-07
1.04987e-07
9.81049e-08
9.16592e-08
8.56235e-08
7.99727e-08
7.46831e-08
6.97325e-08
6.50999e-08
6.07655e-08
5.67109e-08
5.29187e-08
4.93723e-08
4.60565e-08
4.29567e-08
4.00593e-08
3.73516e-08
3.48216e-08
3.24579e-08
3.025e-08
2.8188e-08
2.62624e-08
2.44647e-08
2.27865e-08
2.12202e-08
1.97585e-08
1.83947e-08
1.71224e-08
1.59357e-08
1.4829e-08
1.3797e-08
1.28348e-08
1.1938e-08
1.11021e-08
1.03232e-08
9.59746e-09
8.92138e-09
8.29167e-09
7.70523e-09
7.15918e-09
6.65081e-09
6.1776e-09
5.73719e-09
5.32737e-09
4.94607e-09
4.59136e-09
4.26144e-09
3.95462e-09
3.66934e-09
3.40412e-09
3.15759e-09
2.92847e-09
2.71556e-09
2.51775e-09
2.33399e-09
2.16331e-09
2.00481e-09
1.85764e-09
1.72101e-09
1.59419e-09
1.47649e-09
1.36727e-09
1.26593e-09
1.17193e-09
1.08474e-09
1.00389e-09
9.28922e-10
8.59421e-10
7.94999e-10
7.35295e-10
6.7997e-10
6.28713e-10
5.81232e-10
5.37255e-10
4.9653e-10
4.58823e-10
4.23916e-10
3.91606e-10
3.61704e-10
3.34037e-10
3.0844e-10
2.84762e-10
2.62865e-10
2.42616e-10
2.23895e-10
2.06591e-10
1.90597e-10
1.75819e-10
1.62166e-10
1.49554e-10
1.37907e-10
1.27153e-10
1.17225e-10
1.08062e-10
9.96077e-11
9.18084e-11
8.46155e-11
7.79837e-11
7.18711e-11
6.62389e-11
6.10513e-11
5.62751e-11
5.18797e-11
4.78368e-11
4.41203e-11
4.0706e-11
3.75719e-11
3.46974e-11
3.20636e-11
2.96533e-11
2.74506e-11
2.5441e-11
2.3611e-11
2.19485e-11
2.04424e-11
1.90827e-11
1.78602e-11
1.67667e-11
1.57948e-11
1.4938e-11
1.41905e-11
1.35472e-11
1.30037e-11
1.25564e-11
1.22021e-11
1.19385e-11
1.17637e-11
1.16766e-11
3.1133e-05
9.33138e-05
0.000155241
0.000216752
0.00027769
0.000337908
0.000397269
0.000455643
0.000512913
0.000568971
0.000623719
0.000677068
0.000728939
0.000779262
0.000827976
0.00087503
0.000920379
0.000963987
0.00100582
0.00104587
0.00108411
0.00112053
0.00115512
0.0011879
0.00121886
0.00124802
0.00127538
0.00130097
0.00132481
0.00134692
0.00136732
0.00138605
0.00140314
0.00141861
0.00143251
0.00144486
0.0014557
0.00146507
0.001473
0.00147955
0.00148473
0.0014886
0.00149119
0.00149255
0.0014927
0.0014917
0.00148957
0.00148637
0.00148213
0.00147689
0.00147068
0.00146355
0.00145553
0.00144667
0.00143699
0.00142654
0.00141535
0.00140345
0.00139089
0.0013777
0.00136391
0.00134955
0.00133466
0.00131927
0.00130342
0.00128712
0.00127042
0.00125335
0.00123592
0.00121818
0.00120015
0.00118185
0.00116331
0.00114457
0.00112564
0.00110654
0.00108731
0.00106796
0.00104853
0.00102902
0.00100946
0.000989872
0.000970275
0.000950688
0.000931128
0.000911613
0.00089216
0.000872786
0.000853505
0.000834332
0.000815282
0.000796368
0.000777603
0.000758999
0.000740567
0.000722318
0.000704263
0.000686411
0.000668771
0.000651352
0.000634161
0.000617206
0.000600493
0.000584028
0.000567818
0.000551866
0.000536179
0.000520759
0.00050561
0.000490736
0.000476139
0.000461822
0.000447785
0.000434031
0.000420561
0.000407375
0.000394473
0.000381856
0.000369522
0.000357472
0.000345704
0.000334216
0.000323008
0.000312076
0.00030142
0.000291037
0.000280924
0.000271078
0.000261497
0.000252176
0.000243114
0.000234306
0.000225749
0.000217439
0.000209372
0.000201544
0.000193951
0.000186589
0.000179454
0.000172541
0.000165846
0.000159365
0.000153093
0.000147025
0.000141158
0.000135487
0.000130006
0.000124712
0.000119601
0.000114666
0.000109905
0.000105313
0.000100885
9.66167e-05
9.25039e-05
8.85422e-05
8.47275e-05
8.10554e-05
7.75219e-05
7.41228e-05
7.08542e-05
6.77119e-05
6.46921e-05
6.17911e-05
5.90049e-05
5.63299e-05
5.37625e-05
5.12991e-05
4.89362e-05
4.66704e-05
4.44985e-05
4.24171e-05
4.04231e-05
3.85134e-05
3.66849e-05
3.49347e-05
3.326e-05
3.1658e-05
3.0126e-05
2.86613e-05
2.72613e-05
2.59237e-05
2.46459e-05
2.34256e-05
2.22607e-05
2.11487e-05
2.00878e-05
1.90757e-05
1.81105e-05
1.71903e-05
1.63132e-05
1.54774e-05
1.46812e-05
1.39228e-05
1.32008e-05
1.25134e-05
1.18593e-05
1.1237e-05
1.0645e-05
1.00821e-05
9.54692e-06
9.03825e-06
8.55488e-06
8.09568e-06
7.65953e-06
7.24539e-06
6.85223e-06
6.47909e-06
6.12502e-06
5.78913e-06
5.47056e-06
5.16849e-06
4.88212e-06
4.61071e-06
4.35353e-06
4.1099e-06
3.87914e-06
3.66062e-06
3.45375e-06
3.25795e-06
3.07266e-06
2.89735e-06
2.73153e-06
2.57472e-06
2.42645e-06
2.2863e-06
2.15384e-06
2.02868e-06
1.91044e-06
1.79877e-06
1.69331e-06
1.59375e-06
1.49977e-06
1.41107e-06
1.32739e-06
1.24845e-06
1.17399e-06
1.10378e-06
1.03758e-06
9.75183e-07
9.16378e-07
8.60969e-07
8.08771e-07
7.59606e-07
7.13307e-07
6.69716e-07
6.28681e-07
5.9006e-07
5.53717e-07
5.19525e-07
4.87363e-07
4.57115e-07
4.28672e-07
4.01933e-07
3.76798e-07
3.53177e-07
3.30982e-07
3.10131e-07
2.90546e-07
2.72153e-07
2.54883e-07
2.3867e-07
2.23452e-07
2.0917e-07
1.9577e-07
1.83198e-07
1.71406e-07
1.60348e-07
1.49979e-07
1.40258e-07
1.31147e-07
1.22607e-07
1.14606e-07
1.0711e-07
1.00088e-07
9.35123e-08
8.73546e-08
8.15896e-08
7.61931e-08
7.11423e-08
6.64161e-08
6.19941e-08
5.78575e-08
5.39886e-08
5.03705e-08
4.69877e-08
4.38252e-08
4.08693e-08
3.81068e-08
3.55256e-08
3.31141e-08
3.08616e-08
2.87579e-08
2.67934e-08
2.49593e-08
2.32472e-08
2.16492e-08
2.0158e-08
1.87666e-08
1.74686e-08
1.62579e-08
1.51288e-08
1.40759e-08
1.30943e-08
1.21794e-08
1.13266e-08
1.05319e-08
9.79149e-09
9.10175e-09
8.45931e-09
7.86101e-09
7.30392e-09
6.78527e-09
6.3025e-09
5.85318e-09
5.43507e-09
5.04606e-09
4.68418e-09
4.34759e-09
4.03458e-09
3.74353e-09
3.47295e-09
3.22143e-09
2.98768e-09
2.77046e-09
2.56865e-09
2.38118e-09
2.20705e-09
2.04535e-09
1.8952e-09
1.75581e-09
1.62642e-09
1.50634e-09
1.39491e-09
1.29153e-09
1.19563e-09
1.10668e-09
1.02419e-09
9.47703e-10
8.76797e-10
8.11072e-10
7.5016e-10
6.93718e-10
6.41424e-10
5.92983e-10
5.48117e-10
5.06569e-10
4.68099e-10
4.32487e-10
3.99523e-10
3.69017e-10
3.4079e-10
3.14675e-10
2.90519e-10
2.68179e-10
2.47521e-10
2.28422e-10
2.10767e-10
1.94451e-10
1.79374e-10
1.65444e-10
1.52577e-10
1.40695e-10
1.29723e-10
1.19595e-10
1.10247e-10
1.01621e-10
9.36645e-11
8.63262e-11
7.95603e-11
7.33241e-11
6.7578e-11
6.22855e-11
5.74128e-11
5.29285e-11
4.88039e-11
4.50122e-11
4.1529e-11
3.83315e-11
3.53988e-11
3.27118e-11
3.02528e-11
2.80056e-11
2.59553e-11
2.40883e-11
2.23922e-11
2.08557e-11
1.94685e-11
1.82213e-11
1.71057e-11
1.61141e-11
1.524e-11
1.44774e-11
1.38211e-11
1.32666e-11
1.28102e-11
1.24488e-11
1.21799e-11
1.20016e-11
1.19127e-11
3.13508e-05
9.39709e-05
0.000156347
0.000218322
0.000279743
0.000340465
0.000400351
0.000459273
0.000517113
0.000573761
0.000629117
0.000683092
0.000735602
0.000786577
0.000835953
0.000883675
0.000929697
0.000973978
0.00101649
0.0010572
0.0010961
0.00113318
0.00116842
0.00120182
0.0012334
0.00126316
0.0012911
0.00131726
0.00134164
0.00136426
0.00138517
0.00140437
0.0014219
0.0014378
0.00145209
0.00146481
0.001476
0.00148569
0.00149392
0.00150074
0.00150616
0.00151025
0.00151303
0.00151456
0.00151485
0.00151397
0.00151194
0.00150881
0.00150462
0.00149941
0.00149321
0.00148607
0.00147802
0.00146911
0.00145936
0.00144883
0.00143754
0.00142553
0.00141284
0.0013995
0.00138554
0.00137101
0.00135594
0.00134035
0.00132429
0.00130777
0.00129085
0.00127353
0.00125586
0.00123786
0.00121957
0.001201
0.00118219
0.00116317
0.00114395
0.00112457
0.00110504
0.0010854
0.00106566
0.00104585
0.00102598
0.00100609
0.000986182
0.000966285
0.000946415
0.00092659
0.000906827
0.000887142
0.000867552
0.000848071
0.000828714
0.000809495
0.000790426
0.00077152
0.000752789
0.000734244
0.000715895
0.000697752
0.000679824
0.00066212
0.000644648
0.000627415
0.000610428
0.000593693
0.000577217
0.000561003
0.000545058
0.000529384
0.000513986
0.000498867
0.000484029
0.000469476
0.000455208
0.000441227
0.000427534
0.00041413
0.000401015
0.000388189
0.000375651
0.000363402
0.000351439
0.000339761
0.000328367
0.000317255
0.000306422
0.000295867
0.000285586
0.000275577
0.000265837
0.000256362
0.00024715
0.000238196
0.000229497
0.000221049
0.000212848
0.00020489
0.000197171
0.000189687
0.000182434
0.000175406
0.0001686
0.000162012
0.000155635
0.000149467
0.000143503
0.000137737
0.000132165
0.000126784
0.000121587
0.000116571
0.000111731
0.000107062
0.000102561
9.82216e-05
9.40404e-05
9.0013e-05
8.61349e-05
8.24019e-05
7.88097e-05
7.53541e-05
7.20312e-05
6.88367e-05
6.57668e-05
6.28176e-05
5.99851e-05
5.72657e-05
5.46556e-05
5.21513e-05
4.97492e-05
4.74458e-05
4.52377e-05
4.31218e-05
4.10946e-05
3.91532e-05
3.72943e-05
3.55151e-05
3.38126e-05
3.2184e-05
3.06265e-05
2.91374e-05
2.77142e-05
2.63543e-05
2.50553e-05
2.38148e-05
2.26305e-05
2.15001e-05
2.04215e-05
1.93926e-05
1.84114e-05
1.74759e-05
1.65842e-05
1.57345e-05
1.49251e-05
1.41541e-05
1.34201e-05
1.27213e-05
1.20564e-05
1.14237e-05
1.08219e-05
1.02496e-05
9.70553e-06
9.1884e-06
8.69701e-06
8.23017e-06
7.78678e-06
7.36576e-06
6.96607e-06
6.58673e-06
6.22677e-06
5.8853e-06
5.56144e-06
5.25435e-06
4.96323e-06
4.68731e-06
4.42586e-06
4.17817e-06
3.94358e-06
3.72144e-06
3.51113e-06
3.31207e-06
3.1237e-06
2.94549e-06
2.77691e-06
2.61749e-06
2.46676e-06
2.32428e-06
2.18962e-06
2.06238e-06
1.94218e-06
1.82865e-06
1.72144e-06
1.62022e-06
1.52468e-06
1.43452e-06
1.34944e-06
1.26919e-06
1.19349e-06
1.12211e-06
1.05482e-06
9.91383e-07
9.31602e-07
8.75273e-07
8.22207e-07
7.72226e-07
7.25158e-07
6.80842e-07
6.39125e-07
5.99862e-07
5.62916e-07
5.28156e-07
4.95459e-07
4.64709e-07
4.35794e-07
4.0861e-07
3.83058e-07
3.59045e-07
3.36481e-07
3.15283e-07
2.95373e-07
2.76674e-07
2.59117e-07
2.42635e-07
2.27164e-07
2.12645e-07
1.99022e-07
1.86242e-07
1.74254e-07
1.63012e-07
1.52471e-07
1.42588e-07
1.33325e-07
1.24644e-07
1.1651e-07
1.08889e-07
1.01751e-07
9.50658e-08
8.88058e-08
8.2945e-08
7.74588e-08
7.23242e-08
6.75194e-08
6.3024e-08
5.88187e-08
5.48855e-08
5.12073e-08
4.77683e-08
4.45533e-08
4.15482e-08
3.87399e-08
3.61158e-08
3.36642e-08
3.13743e-08
2.92356e-08
2.72385e-08
2.5374e-08
2.36334e-08
2.20089e-08
2.04929e-08
1.90784e-08
1.77588e-08
1.6528e-08
1.53801e-08
1.43098e-08
1.33119e-08
1.23817e-08
1.15147e-08
1.07069e-08
9.95416e-09
9.25295e-09
8.59984e-09
7.9916e-09
7.42526e-09
6.898e-09
6.4072e-09
5.95042e-09
5.52537e-09
5.12989e-09
4.762e-09
4.41982e-09
4.1016e-09
3.80572e-09
3.53064e-09
3.27495e-09
3.03731e-09
2.81649e-09
2.61132e-09
2.42073e-09
2.24372e-09
2.07932e-09
1.92668e-09
1.78498e-09
1.65344e-09
1.53136e-09
1.41808e-09
1.31298e-09
1.21549e-09
1.12506e-09
1.0412e-09
9.63447e-10
8.91363e-10
8.24546e-10
7.62622e-10
7.05242e-10
6.5208e-10
6.02834e-10
5.57222e-10
5.14984e-10
4.75876e-10
4.39671e-10
4.0616e-10
3.75147e-10
3.46451e-10
3.19903e-10
2.95346e-10
2.72634e-10
2.51633e-10
2.32217e-10
2.14269e-10
1.97681e-10
1.82353e-10
1.68193e-10
1.55112e-10
1.43032e-10
1.31878e-10
1.21582e-10
1.12078e-10
1.0331e-10
9.52205e-11
8.77603e-11
8.0882e-11
7.45422e-11
6.87007e-11
6.33202e-11
5.83665e-11
5.38078e-11
4.96146e-11
4.576e-11
4.22189e-11
3.89682e-11
3.59869e-11
3.32552e-11
3.07554e-11
2.84708e-11
2.63865e-11
2.44885e-11
2.27642e-11
2.12022e-11
1.97919e-11
1.8524e-11
1.73898e-11
1.63818e-11
1.54932e-11
1.47179e-11
1.40507e-11
1.3487e-11
1.30231e-11
1.26557e-11
1.23823e-11
1.2201e-11
1.21106e-11
3.15296e-05
9.45096e-05
0.000157253
0.000219605
0.000281417
0.000342546
0.000402856
0.000462219
0.000520516
0.000577637
0.000633481
0.000687956
0.000740978
0.000792475
0.00084238
0.000890636
0.000937195
0.000982016
0.00102506
0.00106631
0.00110574
0.00114334
0.0011791
0.00121301
0.00124508
0.00127532
0.00130373
0.00133033
0.00135515
0.00137819
0.00139949
0.00141907
0.00143697
0.0014532
0.00146782
0.00148084
0.0014923
0.00150225
0.00151072
0.00151775
0.00152337
0.00152763
0.00153057
0.00153223
0.00153264
0.00153186
0.00152991
0.00152684
0.00152269
0.0015175
0.00151131
0.00150416
0.00149609
0.00148714
0.00147734
0.00146674
0.00145536
0.00144326
0.00143046
0.00141701
0.00140293
0.00138826
0.00137303
0.00135729
0.00134106
0.00132437
0.00130725
0.00128975
0.00127188
0.00125368
0.00123517
0.00121639
0.00119736
0.00117811
0.00115867
0.00113905
0.00111929
0.00109941
0.00107943
0.00105937
0.00103926
0.00101912
0.000998967
0.000978821
0.000958702
0.000938627
0.000918615
0.000898681
0.000878842
0.000859114
0.00083951
0.000820045
0.000800732
0.000781584
0.000762613
0.000743829
0.000725244
0.000706867
0.000688708
0.000670775
0.000653077
0.000635621
0.000618414
0.000601462