/*--------------------------------*- C++ -*----------------------------------*\
  =========                 |
  \\      /  F ield         | OpenFOAM: The Open Source CFD Toolbox
   \\    /   O peration     | Website:  https://openfoam.org
    \\  /    A nd           | Version:  10
     \\/     M anipulation  |
\*---------------------------------------------------------------------------*/
FoamFile
{
    format      ascii;
    class       volScalarField;
    location    "5.5";
    object      T;
}
// * * * * * * * * * * * * * * * * * * * * * * * * * * * * * * * * * * * * * //

dimensions      [0 0 0 1 0 0 0];

internalField   nonuniform List<scalar> 
5250
(
1.00001
1.00001
1.00005
1.0001
1.00029
1.00058
1.00175
1.00365
1.01038
1.02357
1.0636
1.16229
1.44228
2.10369
2.65188
2.76141
2.74352
2.73809
2.7497
2.76627
2.77894
2.78683
2.79325
2.79791
2.79997
1
1.00002
1.00004
1.00011
1.00023
1.00071
1.00142
1.00424
1.00901
1.02517
1.05975
1.16279
1.4319
2.09128
2.64686
2.76114
2.74275
2.73699
2.74862
2.76514
2.77776
2.78565
2.79207
2.7967
2.79869
1
1.00002
1.00004
1.00011
1.00022
1.00068
1.00138
1.00405
1.00881
1.02413
1.05787
1.15662
1.41622
2.05934
2.63532
2.75979
2.7403
2.73372
2.74536
2.76178
2.77432
2.78237
2.78865
2.79335
2.7955
1
1.00001
1.00004
1.0001
1.00024
1.00058
1.00147
1.00347
1.00914
1.02145
1.05678
1.14532
1.39434
2.00814
2.6168
2.75707
2.73599
2.72811
2.73969
2.75621
2.76884
2.77654
2.78337
2.78766
2.78962
1
1.00001
1.00004
1.00008
1.00024
1.00051
1.00141
1.00319
1.00844
1.02012
1.05233
1.13426
1.36371
1.93926
2.59058
2.75181
2.72914
2.7197
2.73134
2.74783
2.76076
2.76893
2.77501
2.78003
2.78211
1
1.00001
1.00004
1.00007
1.00022
1.00045
1.00136
1.00275
1.00804
1.01772
1.04842
1.12039
1.32846
1.8537
2.55443
2.7418
2.71831
2.70761
2.71935
2.73637
2.74974
2.75781
2.764
2.76847
2.77048
1
1.00001
1.00003
1.00007
1.0002
1.00043
1.00116
1.00268
1.00688
1.01677
1.04249
1.10898
1.29168
1.7659
2.51076
2.72786
2.70418
2.69297
2.70463
2.72095
2.73505
2.7427
2.74891
2.75286
2.75348
1
1.00001
1.00003
1.00007
1.00017
1.00039
1.00107
1.00233
1.0066
1.01443
1.03988
1.09699
1.26473
1.69822
2.4633
2.71319
2.69218
2.6818
2.69037
2.70439
2.71669
2.72392
2.72795
2.72963
2.727
1
1.00001
1.00002
1.00006
1.00014
1.00039
1.00086
1.00243
1.00518
1.01474
1.0333
1.09084
1.23537
1.63303
2.39385
2.68664
2.6823
2.67493
2.67693
2.68682
2.69601
2.69992
2.70086
2.69652
2.68262
1
1.00001
1.00002
1.00005
1.00014
1.00031
1.00089
1.00185
1.00542
1.01158
1.03238
1.07759
1.21222
1.56159
2.30331
2.65075
2.67484
2.66701
2.66344
2.66824
2.67271
2.67233
2.66517
2.64499
2.58612
1
1.00001
1.00002
1.00005
1.00011
1.00032
1.00067
1.0019
1.00419
1.01128
1.02662
1.0703
1.18198
1.49227
2.18657
2.6037
2.66618
2.65717
2.64953
2.64933
2.64819
2.64093
2.62033
2.57181
2.46212
1
1.00001
1.00002
1.00004
1.00011
1.00025
1.00062
1.00155
1.00369
1.00959
1.02274
1.05987
1.15381
1.41575
2.04294
2.54198
2.65346
2.64419
2.63359
2.62919
2.62274
2.60704
2.57431
2.50616
2.38155
1
1.00001
1.00001
1.00004
1.00008
1.00022
1.00049
1.00132
1.00307
1.00782
1.0192
1.04861
1.12567
1.33685
1.86989
2.46251
2.63062
2.62366
2.61342
2.60539
2.59569
2.57453
2.53089
2.46364
2.35414
1
1
1.00001
1.00003
1.00007
1.00018
1.00042
1.00103
1.00256
1.0061
1.01575
1.03789
1.09912
1.25959
1.68041
2.36391
2.59368
2.59465
2.58729
2.57834
2.56447
2.54341
2.50059
2.42952
2.34349
1
1
1.00001
1.00002
1.00005
1.00015
1.00032
1.00091
1.00187
1.00552
1.01168
1.03264
1.07788
1.21174
1.55448
2.2548
2.55162
2.57029
2.56089
2.55109
2.53729
2.51048
2.4761
2.411
2.32933
1
1
1.00001
1.00002
1.00005
1.0001
1.0003
1.00062
1.00178
1.00388
1.01049
1.02454
1.06472
1.16581
1.4466
2.08348
2.48149
2.55037
2.54268
2.52788
2.51283
2.48334
2.44949
2.39707
2.3221
1
1
1.00001
1.00002
1.00003
1.0001
1.0002
1.00058
1.00118
1.00349
1.00739
1.02057
1.0481
1.13003
1.33964
1.87627
2.38609
2.52399
2.52213
2.50747
2.49072
2.46092
2.42638
2.38098
2.31732
1
1
1
1.00001
1.00003
1.00007
1.00017
1.00039
1.00103
1.00229
1.00627
1.01392
1.03761
1.09111
1.24365
1.63216
2.26048
2.4786
2.49245
2.48101
2.46514
2.43828
2.40513
2.36422
2.31073
1
1
1
1.00001
1.00002
1.00006
1.00011
1.00034
1.00068
1.00201
1.00417
1.01176
1.02663
1.07135
1.18083
1.4833
2.11439
2.42565
2.46641
2.45649
2.4405
2.41541
2.38521
2.34759
2.30158
1
1
1
1.00001
1.00002
1.00004
1.0001
1.00023
1.00056
1.0014
1.00331
1.00861
1.02012
1.05304
1.13349
1.35779
1.89847
2.33041
2.43578
2.4338
2.41906
2.39502
2.3663
2.33207
2.29075
1
1
1
1.00001
1.00001
1.00003
1.00006
1.00017
1.0004
1.001
1.00246
1.00588
1.01503
1.03616
1.09357
1.24261
1.63157
2.19756
2.38871
2.40506
2.39523
2.37394
2.34674
2.31603
2.2795
1
1
1
1
1.00001
1.00002
1.00005
1.00012
1.00029
1.00074
1.0017
1.00449
1.0101
1.02713
1.06438
1.17195
1.44627
2.03064
2.32712
2.37668
2.37015
2.35285
2.3269
2.29934
2.26698
1
1
1
1
1.00001
1.00001
1.00004
1.00008
1.00023
1.00046
1.00135
1.00285
1.00788
1.01786
1.04729
1.11729
1.31316
1.78975
2.22168
2.33938
2.34432
2.33325
2.31099
2.2832
2.25374
1
1
1
1
1
1.00001
1.00003
1.00005
1.00016
1.00032
1.00092
1.00195
1.00533
1.01202
1.03153
1.07635
1.2011
1.51962
2.0661
2.28106
2.31395
2.30877
2.29196
2.26683
2.2393
1
1
1
1
1
1.00001
1.00002
1.00004
1.0001
1.00024
1.00059
1.00144
1.00344
1.00873
1.02065
1.05325
1.13391
1.35272
1.85594
2.19696
2.28037
2.28396
2.27325
2.25163
2.22466
1
1
1
1
1
1
1.00001
1.00002
1.00007
1.00015
1.00042
1.00088
1.00245
1.00535
1.01426
1.03328
1.08688
1.21939
1.57217
2.05826
2.23199
2.25619
2.25095
2.23355
2.21024
1
1
1
1
1
1
1.00001
1.00002
1.00005
1.0001
1.00028
1.00057
1.00168
1.00341
1.00973
1.02139
1.05739
1.14082
1.37374
1.86554
2.15891
2.22442
2.22737
2.21687
2.19563
1
1
1
1
1
1
1
1.00001
1.00003
1.00007
1.00016
1.00042
1.00099
1.00241
1.00595
1.01415
1.03607
1.08867
1.23045
1.58974
2.02904
2.17997
2.20145
2.19628
2.18045
1
1
1
1
1
1
1
1.00001
1.00002
1.00004
1.00011
1.00026
1.00066
1.00147
1.00398
1.00865
1.02359
1.05415
1.14413
1.36704
1.83926
2.10543
2.168
2.17268
2.16431
1
1
1
1
1
1
1
1.00001
1.00001
1.00003
1.00006
1.00017
1.00039
1.00099
1.00236
1.00566
1.01418
1.03387
1.0865
1.21947
1.56012
1.9757
2.12315
2.14711
2.14476
1
1
1
1
1
1
1
1
1.00001
1.00002
1.00004
1.00011
1.00024
1.00064
1.00137
1.00382
1.00802
1.02235
1.05025
1.13472
1.33921
1.78148
2.04488
2.11359
2.12184
1
1
1
1
1
1
1
1
1
1.00001
1.00002
1.00007
1.00014
1.00038
1.00087
1.00216
1.00518
1.01247
1.03095
1.07602
1.19312
1.4929
1.90488
2.06651
2.09522
1
1
1
1
1
1
1
1
1
1.00001
1.00001
1.00004
1.00009
1.00023
1.00053
1.00132
1.00317
1.00755
1.01903
1.04532
1.11629
1.29656
1.69921
1.98546
2.0643
1
1
1
1
1
1
1
1
1
1
1.00001
1.00002
1.00005
1.00014
1.0003
1.00083
1.00171
1.00487
1.01009
1.02778
1.06337
1.16639
1.41904
1.82855
2.00877
1
1
1
1
1
1
1
1
1
1
1.00001
1.00001
1.00004
1.00007
1.0002
1.00045
1.00112
1.00268
1.00636
1.01597
1.03774
1.0965
1.24316
1.59312
1.91129
1
1
1
1
1
1
1
1
1
1
1
1.00001
1.00002
1.00005
1.00011
1.00027
1.00064
1.00154
1.00379
1.00876
1.02247
1.05275
1.13508
1.34423
1.7314
1
1
1
1
1
1
1
1
1
1
1
1
1.00001
1.00003
1.00006
1.00015
1.00036
1.00091
1.00202
1.00533
1.01158
1.03098
1.071
1.18515
1.45605
1
1
1
1
1
1
1
1
1
1
1
1
1.00001
1.00001
1.00004
1.00008
1.00023
1.00046
1.00129
1.00275
1.00724
1.01645
1.04182
1.10118
1.26095
1
1
1
1
1
1
1
1
1
1
1
1
1
1.00001
1.00002
1.00005
1.00011
1.0003
1.00065
1.00164
1.00386
1.00926
1.02265
1.05473
1.13658
1
1
1
1
1
1
1
1
1
1
1
1
1
1
1.00001
1.00003
1.00007
1.00016
1.00037
1.00091
1.00205
1.00533
1.01162
1.03085
1.07025
1
1
1
1
1
1
1
1
1
1
1
1
1
1
1.00001
1.00002
1.00004
1.00009
1.00021
1.00049
1.00125
1.00271
1.00729
1.01562
1.04192
1
1
1
1
1
1
1
1
1
1
1
1
1
1
1
1.00001
1.00002
1.00005
1.00013
1.00028
1.0007
1.00166
1.00392
1.00968
1.02248
1
1
1
1
1
1
1
1
1
1
1
1
1
1
1
1.00001
1.00001
1.00003
1.00008
1.00018
1.00046
1.00109
1.00257
1.00649
1.01478
1
1
1
1
1
1
1
1
1
1
1
1
1
1
1
1
1.00001
1.00003
1.00006
1.00016
1.00033
1.00093
1.00204
1.00542
1.01259
1
1
1
1
1
1
1
1
1
1
1
1
1
1
1
1
1.00001
1.00002
1.00005
1.00014
1.0003
1.00084
1.00186
1.00498
1.0117
1
1
1
1
1
1
1
1
1
1
1
1
1
1
1
1
1.00001
1.00002
1.00005
1.00012
1.00033
1.00071
1.00203
1.00431
1.01241
1
1
1
1
1
1
1
1
1
1
1
1
1
1
1
1
1.00001
1.00002
1.00005
1.00012
1.00032
1.00073
1.0019
1.00461
1.01151
1
1
1
1
1
1
1
1
1
1
1
1
1
1
1
1
1.00001
1.00002
1.00005
1.00012
1.0003
1.00075
1.00182
1.00471
1.0111
1
1
1
1
1
1
1
1
1
1
1
1
1
1
1
1
1.00001
1.00002
1.00005
1.00012
1.0003
1.00077
1.00178
1.00478
1.01093
1
1
1
1
1
1
1
1
1
1
1
1
1
1
1
1
1.00001
1.00002
1.00005
1.00011
1.00033
1.00067
1.00203
1.00417
1.01209
2.27575
2.26764
2.57231
2.71984
2.81616
2.84613
2.81945
2.77618
2.76074
2.75382
2.74468
2.73604
2.72243
2.71174
2.70178
2.69136
2.68212
2.67187
2.66169
2.65224
2.64233
2.63186
2.62366
2.61809
2.61553
2.6146
2.61996
2.63154
2.65295
2.67889
2.70844
2.73711
2.76464
2.78917
2.81032
2.82751
2.84224
2.85288
2.86228
2.86906
2.87241
2.87409
2.87436
2.87451
2.87236
2.87028
2.86534
2.86223
2.85568
2.8518
2.84344
2.83865
2.82878
2.82371
2.81342
2.80787
2.79818
2.79106
2.78273
2.77483
2.76737
2.75969
2.75264
2.74594
2.73955
2.73388
2.72879
2.72433
2.72069
2.71785
2.71581
2.71454
2.71355
2.7128
2.71236
2.71255
2.71266
2.71236
2.71143
2.71054
2.70905
2.70721
2.70345
2.70014
2.69378
2.6892
2.68131
2.67455
2.66632
2.65905
2.64994
2.64174
2.63265
2.6245
2.61546
2.60771
2.59991
2.59378
2.58868
2.58518
2.27714
2.29205
2.45199
2.63069
2.74365
2.79442
2.83317
2.87355
2.89927
2.87621
2.85657
2.84577
2.82104
2.80555
2.79816
2.78727
2.77658
2.76999
2.76189
2.75221
2.74602
2.73675
2.72792
2.72358
2.72158
2.72135
2.72714
2.73843
2.75701
2.77835
2.799
2.81939
2.83543
2.84854
2.85747
2.86386
2.86652
2.86795
2.86564
2.86148
2.85195
2.84751
2.83824
2.8332
2.8229
2.81642
2.80512
2.7974
2.78597
2.77784
2.76631
2.75662
2.74485
2.73469
2.72399
2.71341
2.70326
2.69276
2.68287
2.67305
2.66346
2.65442
2.64566
2.63741
2.62976
2.62267
2.61624
2.61058
2.60563
2.60147
2.59814
2.59561
2.59326
2.59123
2.58953
2.58834
2.58712
2.58584
2.58351
2.58188
2.57899
2.57669
2.57228
2.56796
2.56185
2.55593
2.54873
2.5417
2.53344
2.52553
2.51699
2.50862
2.49968
2.49121
2.48267
2.47476
2.46712
2.46077
2.45572
2.45245
2.27435
2.25533
2.30041
2.4016
2.51301
2.57935
2.64565
2.69912
2.78478
2.82306
2.84232
2.86149
2.86424
2.8588
2.84928
2.84336
2.8425
2.84484
2.84622
2.84059
2.82638
2.81943
2.81537
2.81104
2.81013
2.81218
2.81717
2.82444
2.83596
2.84796
2.85828
2.86294
2.86468
2.86483
2.86115
2.85713
2.84848
2.84153
2.8319
2.82389
2.81426
2.80558
2.79521
2.78553
2.77436
2.76372
2.75187
2.74058
2.72889
2.71769
2.70633
2.694
2.68197
2.67
2.65855
2.64725
2.63599
2.62523
2.61452
2.6043
2.59437
2.58487
2.57576
2.56726
2.55918
2.55187
2.54513
2.53918
2.53387
2.52943
2.52556
2.52268
2.51977
2.51735
2.51496
2.51326
2.51107
2.50938
2.50621
2.5042
2.50067
2.49782
2.49291
2.48843
2.48221
2.47642
2.46919
2.46249
2.4544
2.44689
2.43833
2.43058
2.42191
2.41404
2.40557
2.3984
2.39097
2.38522
2.38032
2.37751
2.26364
2.21764
2.21784
2.25363
2.31654
2.37828
2.43705
2.49842
2.55493
2.62905
2.69725
2.75327
2.78337
2.7979
2.80422
2.81227
2.82327
2.8362
2.84412
2.84856
2.85185
2.85414
2.85466
2.85276
2.85094
2.85106
2.85636
2.86044
2.86125
2.85703
2.84783
2.83897
2.82587
2.81522
2.80353
2.79296
2.78167
2.77176
2.76089
2.75093
2.73955
2.72845
2.7167
2.70484
2.69295
2.68026
2.66816
2.65528
2.64318
2.63137
2.61961
2.6076
2.59492
2.58317
2.57136
2.56032
2.54914
2.53866
2.52811
2.51836
2.5086
2.49975
2.49093
2.48311
2.47538
2.46875
2.46227
2.45691
2.45171
2.44769
2.4438
2.44126
2.43827
2.43636
2.43371
2.43234
2.4299
2.42827
2.42544
2.42356
2.42014
2.41712
2.41255
2.40833
2.40266
2.39717
2.39047
2.38391
2.37636
2.36905
2.36096
2.35315
2.3449
2.33699
2.32898
2.32129
2.31417
2.3079
2.30321
2.29966
2.25944
2.19783
2.17453
2.17646
2.20419
2.24182
2.28129
2.32811
2.37545
2.42457
2.48024
2.53642
2.59663
2.65247
2.69362
2.71786
2.73358
2.74668
2.76209
2.77096
2.77888
2.79028
2.80816
2.8211
2.82873
2.83095
2.82958
2.82137
2.81034
2.79122
2.77448
2.75381
2.73794
2.72164
2.70822
2.69479
2.68279
2.67032
2.65882
2.64667
2.63514
2.62305
2.61161
2.6002
2.58907
2.57796
2.56689
2.5558
2.54483
2.53468
2.52442
2.51452
2.50337
2.49326
2.48269
2.47339
2.46335
2.45445
2.4448
2.43641
2.42735
2.41975
2.41151
2.4049
2.39768
2.39223
2.38617
2.38184
2.37694
2.37369
2.3699
2.36765
2.36475
2.36296
2.36026
2.3586
2.35596
2.35426
2.35161
2.34936
2.34628
2.34352
2.33979
2.33614
2.33173
2.32707
2.32183
2.31615
2.31002
2.30351
2.29686
2.28986
2.28274
2.27555
2.26842
2.2616
2.25519
2.24964
2.24523
2.24244
2.25284
2.19425
2.15241
2.13814
2.14032
2.15719
2.17796
2.20555
2.24077
2.27677
2.31504
2.3567
2.40206
2.44943
2.50018
2.54403
2.57978
2.61261
2.63605
2.6589
2.67879
2.6944
2.70531
2.71681
2.72764
2.73307
2.73611
2.72783
2.71069
2.68717
2.662
2.63799
2.61767
2.60085
2.58741
2.57586
2.56536
2.55515
2.5453
2.53601
2.5267
2.51786
2.50855
2.49971
2.49035
2.48171
2.4724
2.46376
2.45454
2.4464
2.43792
2.43009
2.42082
2.41226
2.40307
2.3953
2.38679
2.37957
2.37148
2.3647
2.35707
2.35088
2.34388
2.33845
2.33231
2.32778
2.32249
2.31894
2.31451
2.31183
2.30816
2.30623
2.3032
2.30168
2.2988
2.29722
2.29424
2.29232
2.28929
2.287
2.28353
2.28079
2.2769
2.27353
2.26906
2.26499
2.25976
2.25491
2.24893
2.24338
2.2368
2.23065
2.22364
2.21722
2.21025
2.20411
2.19779
2.19269
2.18829
2.18587
2.25063
2.19286
2.1453
2.11737
2.10476
2.10549
2.11314
2.12548
2.14453
2.17042
2.1965
2.22529
2.25862
2.29259
2.33041
2.37
2.40643
2.44256
2.47644
2.50501
2.53387
2.5608
2.58389
2.60526
2.62199
2.6363
2.63845
2.62906
2.60517
2.57351
2.54166
2.51285
2.48911
2.47203
2.46146
2.45517
2.44976
2.44501
2.43975
2.43451
2.42885
2.42327
2.4174
2.41162
2.40538
2.39927
2.39246
2.38595
2.37863
2.37215
2.3653
2.35917
2.35175
2.34449
2.33645
2.32944
2.32178
2.31529
2.30799
2.30199
2.29516
2.28977
2.28359
2.27897
2.27357
2.26982
2.26523
2.26225
2.25835
2.25604
2.25264
2.25081
2.24771
2.24612
2.24297
2.24124
2.23777
2.23579
2.2322
2.22987
2.22626
2.22364
2.21986
2.21693
2.21294
2.20956
2.20518
2.20118
2.19622
2.19153
2.18595
2.18057
2.17444
2.16868
2.16241
2.15674
2.15086
2.14608
2.14181
2.13963
2.25005
2.19406
2.1458
2.10745
2.08631
2.07386
2.07323
2.0754
2.08251
2.0966
2.11397
2.13256
2.15397
2.17969
2.20557
2.23564
2.26504
2.29285
2.32434
2.35415
2.38465
2.41684
2.44532
2.47555
2.50242
2.53393
2.54284
2.5331
2.50519
2.46906
2.43188
2.39909
2.37347
2.35357
2.34516
2.34328
2.34497
2.34616
2.34633
2.34508
2.34287
2.34
2.33647
2.33259
2.32816
2.32373
2.31876
2.31397
2.30858
2.30364
2.29828
2.29371
2.28816
2.28282
2.27624
2.27064
2.26448
2.25945
2.25369
2.24902
2.24359
2.2395
2.23454
2.2312
2.2269
2.22416
2.22037
2.21821
2.2148
2.21299
2.20971
2.20798
2.20466
2.20284
2.19925
2.19718
2.19343
2.19087
2.18702
2.18421
2.18031
2.17734
2.17339
2.17034
2.1663
2.16313
2.15886
2.15538
2.15072
2.14674
2.14158
2.13692
2.13128
2.12618
2.12034
2.11517
2.10958
2.10507
2.10088
2.09878
2.24873
2.19451
2.14826
2.1075
2.07789
2.05714
2.04673
2.04297
2.04343
2.04754
2.05634
2.06854
2.08093
2.09816
2.11604
2.13665
2.16029
2.18207
2.20539
2.23219
2.2586
2.29053
2.32007
2.35962
2.40119
2.44592
2.45925
2.44857
2.41948
2.38258
2.34134
2.30558
2.27826
2.25751
2.24569
2.24214
2.24633
2.25345
2.2592
2.26362
2.26567
2.26649
2.26568
2.2643
2.26221
2.25982
2.257
2.25403
2.25062
2.24715
2.24341
2.24003
2.23627
2.23252
2.22756
2.22289
2.21773
2.21359
2.20895
2.20542
2.20117
2.19816
2.19439
2.19192
2.18858
2.18665
2.18365
2.18196
2.17902
2.17742
2.17428
2.17252
2.16897
2.16686
2.16281
2.16036
2.15624
2.15342
2.14917
2.14613
2.14188
2.13883
2.13468
2.1317
2.12771
2.12476
2.12085
2.1177
2.11364
2.11002
2.10556
2.10134
2.09641
2.09172
2.08646
2.0817
2.0765
2.07236
2.0683
2.06651
2.245
2.19637
2.14925
2.10985
2.07557
2.05138
2.0323
2.02306
2.01653
2.01643
2.01786
2.02313
2.03045
2.03969
2.05198
2.06515
2.08156
2.10014
2.11868
2.14259
2.16543
2.19435
2.22513
2.2718
2.33029
2.38364
2.39555
2.38271
2.35475
2.31669
2.273
2.23436
2.20608
2.187
2.17324
2.165
2.16465
2.17091
2.18078
2.19033
2.19784
2.20323
2.20618
2.20801
2.20822
2.20766
2.20659
2.20511
2.20303
2.20079
2.19799
2.19548
2.19261
2.19016
2.18681
2.18339
2.17918
2.1757
2.17173
2.16885
2.16555
2.16326
2.16046
2.15879
2.15624
2.15482
2.15227
2.15089
2.14813
2.14653
2.14329
2.14129
2.13726
2.13461
2.13014
2.12692
2.1221
2.11863
2.11366
2.11011
2.10512
2.1017
2.09693
2.09382
2.08948
2.08663
2.08273
2.07996
2.07628
2.07332
2.06944
2.06603
2.06166
2.05777
2.05285
2.04868
2.04357
2.03966
2.03554
2.03361
2.23886
2.19528
2.15169
2.11119
2.07702
2.04837
2.02699
2.01084
2.00091
1.99477
1.99262
1.99295
1.99521
2.00006
2.00642
2.0152
2.02463
2.0391
2.0552
2.07686
2.09804
2.12685
2.16359
2.22253
2.29582
2.34688
2.35291
2.33762
2.31022
2.27016
2.22516
2.18603
2.15543
2.13405
2.11994
2.10978
2.10496
2.10524
2.11148
2.1214
2.13291
2.14216
2.15016
2.15482
2.1584
2.1598
2.16091
2.16056
2.15999
2.15896
2.15762
2.15613
2.15435
2.15279
2.15085
2.14902
2.14653
2.14413
2.14149
2.1396
2.13736
2.13591
2.13389
2.13276
2.13098
2.13004
2.12813
2.12693
2.12447
2.12283
2.11951
2.11706
2.11291
2.10984
2.10509
2.10151
2.09631
2.09243
2.08698
2.08304
2.07759
2.07379
2.06864
2.06512
2.06049
2.0573
2.05327
2.05035
2.04676
2.04397
2.0404
2.03749
2.03363
2.03038
2.02606
2.02246
2.01793
2.01434
2.01061
2.00861
2.23047
2.19206
2.15175
2.11375
2.07837
2.04891
2.02446
2.00536
1.99142
1.98109
1.97561
1.97165
1.97155
1.9722
1.9748
1.98036
1.98605
1.99734
2.01075
2.02953
2.05076
2.08299
2.13082
2.21023
2.29184
2.3277
2.32707
2.30988
2.27903
2.23771
2.1936
2.15579
2.12448
2.10112
2.08414
2.07261
2.06542
2.06056
2.05951
2.06415
2.07323
2.08512
2.09633
2.10567
2.11323
2.118
2.1216
2.12298
2.12462
2.12459
2.12441
2.12395
2.12307
2.1222
2.12067
2.1196
2.1183
2.11672
2.11492
2.11384
2.1124
2.1116
2.11041
2.10975
2.10844
2.10758
2.10583
2.10453
2.10186
2.0998
2.09602
2.09312
2.08844
2.08483
2.07935
2.0752
2.06921
2.06478
2.05862
2.05419
2.04816
2.04389
2.03823
2.03425
2.02917
2.0256
2.0212
2.01811
2.01431
2.01165
2.00814
2.00566
2.00209
1.99949
1.99563
1.99274
1.98867
1.98572
1.98232
1.98068
2.22102
2.18575
2.14976
2.11396
2.08024
2.04977
2.02411
2.00299
1.98661
1.97364
1.96418
1.95814
1.95387
1.95261
1.95271
1.95485
1.95999
1.96978
1.98237
1.99893
2.02337
2.06298
2.13148
2.22832
2.30267
2.31945
2.31115
2.29121
2.25722
2.21447
2.1733
2.13794
2.10803
2.08321
2.06301
2.04748
2.03653
2.02925
2.02516
2.02409
2.02693
2.0346
2.04523
2.05681
2.06764
2.07599
2.08295
2.08694
2.0905
2.09163
2.09314
2.0936
2.0937
2.09377
2.09377
2.09375
2.09361
2.09316
2.0926
2.09235
2.09184
2.0914
2.0908
2.0903
2.08942
2.08868
2.08709
2.08547
2.08244
2.07981
2.07586
2.07243
2.06746
2.06323
2.05738
2.05253
2.04612
2.04099
2.03441
2.02929
2.02286
2.018
2.01196
2.00753
2.00202
1.9981
1.99323
1.9899
1.9857
1.98298
1.9793
1.97701
1.97364
1.97147
1.96813
1.96577
1.96237
1.95982
1.95698
1.95535
2.21011
2.17897
2.14555
2.11278
2.08077
2.05095
2.02468
2.00136
1.98317
1.96866
1.95715
1.94886
1.9428
1.93874
1.93723
1.93773
1.94283
1.95243
1.96458
1.98309
2.01385
2.06858
2.16539
2.26468
2.31142
2.3131
2.30129
2.27608
2.23996
2.19883
2.16225
2.12972
2.10099
2.0755
2.0535
2.03477
2.01966
2.00847
2.00129
1.99672
1.99427
1.99504
2.00002
2.01005
2.02144
2.03338
2.04397
2.05185
2.05829
2.06179
2.06462
2.06605
2.06702
2.06821
2.06883
2.06962
2.07033
2.07088
2.07139
2.07163
2.07163
2.07154
2.07126
2.07067
2.06967
2.06891
2.06734
2.0657
2.06247
2.0595
2.05503
2.05095
2.04536
2.04044
2.03404
2.02858
2.02175
2.01606
2.00906
2.00337
1.99646
1.99106
1.98451
1.97962
1.97365
1.96934
1.96403
1.96037
1.95578
1.95276
1.94886
1.94644
1.94312
1.94114
1.93811
1.93627
1.93336
1.93156
1.92923
1.92822
2.19797
2.17002
2.1407
2.10932
2.07979
2.0512
2.02477
2.00161
1.98094
1.96511
1.95174
1.94161
1.93435
1.92901
1.92658
1.92735
1.93323
1.94264
1.95676
1.9815
2.02587
2.10899
2.21974
2.29738
2.31493
2.30935
2.29407
2.26496
2.22748
2.19108
2.15819
2.12768
2.09993
2.07435
2.05134
2.03048
2.01276
1.99774
1.98589
1.97771
1.97303
1.96979
1.96932
1.97191
1.97899
1.98956
2.00099
2.01206
2.02163
2.02887
2.03436
2.03827
2.041
2.04306
2.04478
2.04616
2.0475
2.04887
2.05046
2.05135
2.05218
2.05256
2.05236
2.05181
2.05048
2.04946
2.04747
2.04528
2.04163
2.03813
2.03317
2.02853
2.02246
2.01705
2.01029
2.00444
1.9974
1.99141
1.98431
1.97836
1.97133
1.96561
1.95884
1.95356
1.94724
1.94253
1.93677
1.9327
1.92759
1.92419
1.91982
1.91724
1.91364
1.91173
1.90871
1.90717
1.90451
1.90313
1.90121
1.9004
2.18548
2.15966
2.13333
2.10567
2.07686
2.05
2.0245
2.00126
1.98047
1.9624
1.94833
1.9362
1.92789
1.92148
1.91947
1.92198
1.92907
1.94016
1.95937
1.99671
2.06369
2.17797
2.27486
2.31353
2.31468
2.30558
2.28523
2.25449
2.21999
2.18789
2.15765
2.12942
2.10271
2.07745
2.05379
2.03182
2.01199
1.99401
1.97909
1.96679
1.95769
1.95171
1.94737
1.94566
1.94588
1.95023
1.95909
1.97028
1.98182
1.99194
2.0007
2.00714
2.01241
2.01603
2.01936
2.02153
2.02453
2.02606
2.02859
2.0297
2.03148
2.03161
2.03135
2.03059
2.02901
2.02784
2.02569
2.02315
2.01914
2.0152
2.00982
2.00472
1.99836
1.99263
1.98576
1.97969
1.97256
1.96632
1.95905
1.95275
1.94548
1.93938
1.93236
1.92676
1.9202
1.91526
1.90925
1.90493
1.89947
1.89575
1.89102
1.88814
1.8843
1.88227
1.87925
1.87788
1.87549
1.87453
1.87304
1.8726
2.17218
2.14782
2.12311
2.09851
2.07266
2.04672
2.02239
1.99979
1.9794
1.96037
1.94562
1.93226
1.92349
1.91656
1.91649
1.92117
1.93015
1.9458
1.97567
2.03282
2.13807
2.25065
2.30831
2.31801
2.31305
2.29976
2.27576
2.2454
2.21558
2.18703
2.15927
2.13289
2.10695
2.08217
2.05821
2.03565
2.01444
1.99493
1.97746
1.96181
1.94857
1.93823
1.93067
1.92564
1.92195
1.92101
1.92246
1.92842
1.93827
1.94943
1.96132
1.97141
1.98034
1.98714
1.9923
1.99661
1.9997
2.00289
2.00501
2.00774
2.00891
2.01023
2.00989
2.00911
2.00727
2.00561
2.0031
1.99992
1.99548
1.99125
1.98584
1.98056
1.97416
1.96822
1.96135
1.95512
1.94799
1.94168
1.93446
1.92823
1.92101
1.91495
1.90786
1.90217
1.89541
1.89024
1.88394
1.87931
1.87353
1.86952
1.86453
1.86131
1.85718
1.85484
1.8516
1.85011
1.8477
1.84687
1.84564
1.84538
2.15735
2.13645
2.1127
2.08943
2.06667
2.04213
2.0192
1.99653
1.97709
1.95806
1.94258
1.92956
1.91969
1.9155
1.9176
1.92532
1.93817
1.96279
2.01186
2.10366
2.22149
2.29971
2.31986
2.31821
2.30999
2.29177
2.2664
2.23924
2.21307
2.18689
2.16135
2.13622
2.1111
2.0867
2.06281
2.0399
2.01814
1.99736
1.97795
1.95957
1.9436
1.92929
1.9178
1.90924
1.90262
1.89847
1.89583
1.89582
1.899
1.90693
1.91808
1.93083
1.94252
1.95349
1.96178
1.96872
1.97462
1.97799
1.98207
1.98455
1.98583
1.98778
1.98722
1.986
1.98427
1.98245
1.97995
1.97646
1.97183
1.96723
1.96184
1.95649
1.95024
1.94428
1.93755
1.93137
1.92438
1.91814
1.91099
1.90479
1.89757
1.8915
1.88437
1.87856
1.87172
1.86632
1.85991
1.85497
1.84915
1.84487
1.83975
1.83623
1.83187
1.82924
1.82577
1.82413
1.82164
1.82091
1.81983
1.81984
2.14623
2.12191
2.1022
2.07879
2.05807
2.0367
2.01396
1.99384
1.97314
1.95627
1.93904
1.92751
1.91744
1.91766
1.92334
1.93412
1.955
1.99836
2.07567
2.19416
2.28515
2.31896
2.31999
2.31447
2.30099
2.28016
2.2567
2.23289
2.20956
2.18601
2.16233
2.13825
2.11393
2.09009
2.06629
2.04323
2.02064
1.99865
1.97782
1.95805
1.93993
1.92322
1.90895
1.89627
1.88708
1.87946
1.87483
1.87118
1.87017
1.87141
1.87738
1.88772
1.90064
1.91454
1.92657
1.9376
1.94622
1.95224
1.95771
1.96076
1.96284
1.96471
1.96415
1.96287
1.9614
1.95948
1.95657
1.95298
1.94833
1.94366
1.9382
1.93296
1.9269
1.92113
1.9146
1.90851
1.90173
1.89549
1.88859
1.88239
1.8755
1.86942
1.86259
1.85666
1.84994
1.84426
1.83778
1.83261
1.82669
1.82221
1.81692
1.81321
1.80864
1.80582
1.80214
1.80034
1.79774
1.79695
1.79597
1.79604
2.13117
2.1104
2.08938
2.07066
2.04713
2.02989
2.00713
1.98864
1.96895
1.95202
1.93755
1.92503
1.92026
1.92329
1.93329
1.95107
1.98814
2.05547
2.16982
2.26841
2.313
2.31873
2.31536
2.30575
2.28887
2.26773
2.247
2.22589
2.20498
2.18312
2.16081
2.1378
2.11428
2.09081
2.0671
2.04395
2.02082
1.99864
1.97688
1.95656
1.93677
1.9191
1.90209
1.8877
1.87448
1.86444
1.85629
1.85148
1.84771
1.84653
1.84692
1.85102
1.86011
1.87346
1.88732
1.90118
1.91353
1.92295
1.9309
1.93566
1.939
1.94079
1.94041
1.93918
1.93764
1.93578
1.93266
1.92916
1.92465
1.92007
1.91462
1.90942
1.90357
1.89796
1.89171
1.8857
1.8792
1.87301
1.86642
1.8602
1.85357
1.84745
1.84086
1.83491
1.82835
1.82271
1.81643
1.81124
1.80536
1.80074
1.79538
1.79146
1.78676
1.78369
1.77982
1.77779
1.77505
1.77413
1.77325
1.77337
2.11568
2.09971
2.07736
2.05975
2.03902
2.02025
2.00198
1.98181
1.96525
1.9477
1.93505
1.92642
1.92718
1.93572
1.95089
1.98191
2.04142
2.14869
2.25146
2.30377
2.31352
2.31155
2.30493
2.29134
2.27358
2.256
2.2378
2.21909
2.19967
2.17875
2.15724
2.13457
2.11158
2.08848
2.06504
2.04195
2.01889
1.99635
1.97456
1.95349
1.93343
1.91444
1.89666
1.88024
1.86575
1.85289
1.84275
1.83489
1.83048
1.82759
1.82609
1.82643
1.82947
1.83714
1.8481
1.86184
1.87554
1.88823
1.89883
1.90639
1.91183
1.91446
1.91525
1.91418
1.9127
1.91081
1.90788
1.90438
1.90018
1.89576
1.89075
1.88569
1.8801
1.87469
1.86876
1.86311
1.85687
1.851
1.84456
1.83862
1.83215
1.82626
1.8198
1.81403
1.80776
1.80224
1.79618
1.79098
1.78522
1.78052
1.77519
1.77116
1.76637
1.76314
1.7591
1.75686
1.75397
1.75288
1.75202
1.75211
2.09589
2.08604
2.06593
2.04782
2.02841
2.0107
1.99302
1.97598
1.95883
1.94543
1.93325
1.93327
1.94009
1.95393
1.98144
2.03719
2.13154
2.23514
2.29151
2.30546
2.30446
2.2999
2.28935
2.27397
2.25832
2.24268
2.22644
2.20905
2.19072
2.17064
2.15012
2.12798
2.10616
2.08328
2.06064
2.03783
2.01512
1.99287
1.97124
1.94999
1.93014
1.91048
1.89267
1.87549
1.86026
1.84614
1.83438
1.82438
1.81695
1.81246
1.81003
1.80824
1.80845
1.81034
1.81587
1.82478
1.83632
1.84889
1.86069
1.87109
1.87908
1.88444
1.88739
1.88761
1.88642
1.88503
1.88263
1.87963
1.87561
1.87146
1.86663
1.86181
1.85657
1.85145
1.84598
1.84062
1.83495
1.82936
1.82346
1.81762
1.81149
1.80559
1.79953
1.79385
1.78791
1.78243
1.77661
1.77142
1.76582
1.76113
1.75591
1.7519
1.74721
1.74399
1.74006
1.73778
1.73515
1.73398
1.73354
1.7337
2.07547
2.07064
2.05601
2.03682
2.01904
2.00109
1.98487
1.96868
1.95449
1.94298
1.93939
1.94499
1.95912
1.98459
2.0359
2.12521
2.22295
2.27853
2.29547
2.29475
2.29027
2.28083
2.26805
2.25522
2.24246
2.22909
2.21406
2.19782
2.18011
2.16096
2.1407
2.11937
2.09768
2.0757
2.05343
2.03155
2.00907
1.98779
1.96606
1.9458
1.92569
1.90675
1.88854
1.87144
1.85554
1.84107
1.82844
1.81715
1.8081
1.80106
1.79604
1.79363
1.79118
1.79127
1.79182
1.79485
1.80169
1.81037
1.82058
1.83121
1.84103
1.84928
1.85489
1.85834
1.85872
1.85797
1.8565
1.85456
1.8513
1.84739
1.84286
1.83834
1.83337
1.82857
1.82334
1.81831
1.81282
1.80754
1.80178
1.79629
1.79042
1.78494
1.7791
1.77374
1.76802
1.76284
1.75721
1.75223
1.74678
1.7422
1.73715
1.7332
1.72877
1.72559
1.72206
1.71982
1.71765
1.71674
1.71659
1.71668
2.04579
2.04982
2.04267
2.02758
2.00861
1.99189
1.97566
1.96236
1.95057
1.94703
1.95209
1.96649
1.99126
2.04102
2.12659
2.21873
2.2706
2.28601
2.28469
2.28003
2.27011
2.25788
2.24724
2.23702
2.22663
2.21441
2.20071
2.18513
2.16817
2.14958
2.1303
2.10947
2.08905
2.06721
2.04638
2.02438
2.00353
1.98211
1.96182
1.94145
1.92228
1.90338
1.88571
1.86891
1.85331
1.83881
1.82584
1.81379
1.80398
1.79485
1.78817
1.78272
1.77902
1.77656
1.77413
1.77406
1.77487
1.77801
1.78407
1.79124
1.80068
1.8092
1.81751
1.82331
1.82749
1.8286
1.82846
1.8275
1.82567
1.82305
1.81905
1.81492
1.81021
1.80556
1.80055
1.79559
1.79033
1.78506
1.77955
1.77417
1.76864
1.7633
1.75783
1.7526
1.74727
1.74224
1.73712
1.73237
1.7275
1.72315
1.71864
1.71485
1.71094
1.70796
1.70489
1.70313
1.70132
1.70138
1.70206
1.70176
2.01207
2.02923
2.02752
2.01655
2.00043
1.9831
1.96866
1.95723
1.95337
1.95878
1.97399
1.99979
2.05058
2.13468
2.22149
2.26717
2.2798
2.27686
2.26963
2.25682
2.24403
2.23388
2.22644
2.21849
2.20995
2.19898
2.18612
2.17116
2.15467
2.13703
2.11813
2.09894
2.07859
2.05868
2.03774
2.01754
1.99665
1.97672
1.95649
1.9373
1.91827
1.90031
1.88285
1.86677
1.85119
1.83725
1.82394
1.81222
1.80119
1.79159
1.78293
1.77543
1.76917
1.76379
1.75941
1.75663
1.75381
1.75258
1.75286
1.75604
1.76128
1.76813
1.7761
1.7836
1.79046
1.79486
1.79773
1.79797
1.79747
1.79646
1.79428
1.79116
1.78699
1.78271
1.77821
1.77372
1.76899
1.76416
1.7593
1.75431
1.74933
1.74426
1.73914
1.73412
1.72894
1.72413
1.71901
1.71452
1.70964
1.70556
1.70125
1.6977
1.69437
1.69155
1.68951
1.68785
1.68751
1.68776
1.68914
1.68891
1.94188
1.99701
2.0068
2.0032
1.99126
1.97636
1.96376
1.95928
1.96545
1.9813
2.01004
2.0623
2.14837
2.23102
2.26954
2.27834
2.27368
2.26238
2.24566
2.23159
2.22121
2.2139
2.2078
2.20124
2.19304
2.18241
2.1701
2.15571
2.14049
2.12337
2.10585
2.08697
2.06806
2.04838
2.02871
2.00897
1.98928
1.9701
1.9509
1.93251
1.91428
1.89711
1.88045
1.86503
1.85009
1.8366
1.82336
1.81153
1.80005
1.78975
1.77996
1.77078
1.76258
1.75451
1.74794
1.74147
1.73666
1.73162
1.72888
1.72719
1.72759
1.73039
1.73541
1.74239
1.74982
1.75688
1.76265
1.7664
1.76842
1.76841
1.76795
1.76673
1.76401
1.76034
1.75609
1.75169
1.74705
1.74254
1.73775
1.73323
1.72835
1.72376
1.71891
1.71428
1.70961
1.70511
1.70073
1.69652
1.69246
1.68867
1.68508
1.68204
1.67922
1.6774
1.67587
1.67569
1.676
1.677
1.67879
1.67912
1.8096
1.95331
1.98213
1.98641
1.98182
1.97187
1.96494
1.97089
1.98797
2.02162
2.07883
2.16538
2.24375
2.27596
2.28016
2.2736
2.25788
2.23673
2.22084
2.20903
2.20181
2.19573
2.19038
2.18356
2.17548
2.16549
2.15386
2.14045
2.12567
2.10949
2.09242
2.07463
2.05625
2.03777
2.01885
2.0002
1.98138
1.96292
1.9446
1.92698
1.90966
1.89346
1.87755
1.86287
1.84856
1.83537
1.82264
1.81094
1.79929
1.7886
1.77762
1.76764
1.75714
1.74781
1.7383
1.72971
1.72223
1.71513
1.7091
1.70401
1.70197
1.70057
1.7014
1.70439
1.70962
1.71694
1.72412
1.73107
1.73598
1.73951
1.74062
1.74053
1.73997
1.73837
1.73544
1.73113
1.72707
1.72254
1.7184
1.71396
1.70979
1.70532
1.70107
1.6965
1.6923
1.68779
1.68388
1.6797
1.67625
1.67268
1.66994
1.66731
1.66574
1.66462
1.66467
1.66519
1.66641
1.66879
1.67164
1.67338
1.60057
1.87055
1.95329
1.96935
1.97263
1.97177
1.97665
1.99549
2.03201
2.09708
2.18689
2.25848
2.28575
2.28494
2.27595
2.25603
2.23222
2.21305
2.19985
2.19075
2.18453
2.17871
2.1728