/*--------------------------------*- C++ -*----------------------------------*\
  =========                 |
  \\      /  F ield         | OpenFOAM: The Open Source CFD Toolbox
   \\    /   O peration     | Website:  https://openfoam.org
    \\  /    A nd           | Version:  10
     \\/     M anipulation  |
\*---------------------------------------------------------------------------*/
FoamFile
{
    format      ascii;
    class       volScalarField;
    location    "0.36";
    object      Exp1;
}
// * * * * * * * * * * * * * * * * * * * * * * * * * * * * * * * * * * * * * //

dimensions      [0 0 0 0 0 0 0];

internalField   uniform 0;

boundaryField
{
    frontAndBack
    {
        type            empty;
    }
    inlet
    {
        type            calculated;
        value           uniform 0;
    }
    outlet
    {
        type            calculated;
        value           uniform 0;
    }
    substrate
    {
        type            calculated;
        value           nonuniform List<scalar> 
400
(
1.0059e-07
3.01218e-07
5.00549e-07
6.97997e-07
8.93054e-07
1.08527e-06
1.27424e-06
1.45962e-06
1.64109e-06
1.81839e-06
1.99127e-06
2.15954e-06
2.32303e-06
2.48161e-06
2.63516e-06
2.78361e-06
2.9269e-06
3.06498e-06
3.19786e-06
3.32552e-06
3.44798e-06
3.56529e-06
3.67748e-06
3.78462e-06
3.88676e-06
3.98399e-06
4.07638e-06
4.16403e-06
4.24701e-06
4.32544e-06
4.3994e-06
4.469e-06
4.53434e-06
4.59552e-06
4.65265e-06
4.70582e-06
4.75515e-06
4.80073e-06
4.84266e-06
4.88105e-06
4.91598e-06
4.94757e-06
4.9759e-06
5.00107e-06
5.02316e-06
5.04227e-06
5.05849e-06
5.07189e-06
5.08257e-06
5.0906e-06
5.09606e-06
5.09904e-06
5.0996e-06
5.09782e-06
5.09378e-06
5.08754e-06
5.07918e-06
5.06876e-06
5.05635e-06
5.04201e-06
5.0258e-06
5.00779e-06
4.98804e-06
4.9666e-06
4.94355e-06
4.91892e-06
4.89278e-06
4.86518e-06
4.83618e-06
4.80583e-06
4.77418e-06
4.74127e-06
4.70718e-06
4.67193e-06
4.63557e-06
4.59817e-06
4.55976e-06
4.52038e-06
4.48009e-06
4.43892e-06
4.39693e-06
4.35414e-06
4.31062e-06
4.26639e-06
4.22149e-06
4.17598e-06
4.12988e-06
4.08323e-06
4.03608e-06
3.98846e-06
3.9404e-06
3.89195e-06
3.84314e-06
3.79399e-06
3.74456e-06
3.69486e-06
3.64494e-06
3.59482e-06
3.54453e-06
3.49411e-06
3.44359e-06
3.39299e-06
3.34234e-06
3.29168e-06
3.24102e-06
3.1904e-06
3.13984e-06
3.08936e-06
3.039e-06
2.98877e-06
2.93869e-06
2.8888e-06
2.8391e-06
2.78963e-06
2.7404e-06
2.69143e-06
2.64275e-06
2.59436e-06
2.54629e-06
2.49856e-06
2.45117e-06
2.40415e-06
2.35751e-06
2.31127e-06
2.26544e-06
2.22003e-06
2.17505e-06
2.13052e-06
2.08645e-06
2.04284e-06
1.99972e-06
1.95708e-06
1.91494e-06
1.8733e-06
1.83217e-06
1.79156e-06
1.75148e-06
1.71193e-06
1.67292e-06
1.63445e-06
1.59652e-06
1.55915e-06
1.52233e-06
1.48607e-06
1.45036e-06
1.41522e-06
1.38063e-06
1.34662e-06
1.31316e-06
1.28027e-06
1.24795e-06
1.21619e-06
1.18499e-06
1.15435e-06
1.12427e-06
1.09476e-06
1.0658e-06
1.03739e-06
1.00953e-06
9.82219e-07
9.55452e-07
9.29226e-07
9.03536e-07
8.78378e-07
8.53748e-07
8.29641e-07
8.06052e-07
7.82976e-07
7.60408e-07
7.38342e-07
7.16773e-07
6.95695e-07
6.75102e-07
6.54988e-07
6.35347e-07
6.16173e-07
5.97459e-07
5.79198e-07
5.61385e-07
5.44013e-07
5.27075e-07
5.10564e-07
4.94473e-07
4.78795e-07
4.63524e-07
4.48653e-07
4.34174e-07
4.20081e-07
4.06367e-07
3.93024e-07
3.80046e-07
3.67426e-07
3.55156e-07
3.4323e-07
3.31641e-07
3.20382e-07
3.09446e-07
2.98827e-07
2.88517e-07
2.78509e-07
2.68798e-07
2.59377e-07
2.50238e-07
2.41376e-07
2.32783e-07
2.24455e-07
2.16384e-07
2.08564e-07
2.00989e-07
1.93653e-07
1.8655e-07
1.79674e-07
1.7302e-07
1.66581e-07
1.60352e-07
1.54328e-07
1.48503e-07
1.42871e-07
1.37428e-07
1.32167e-07
1.27085e-07
1.22177e-07
1.17436e-07
1.12859e-07
1.0844e-07
1.04176e-07
1.00062e-07
9.60922e-08
9.22637e-08
8.85718e-08
8.50124e-08
8.15815e-08
7.82751e-08
7.50893e-08
7.20204e-08
6.90647e-08
6.62186e-08
6.34786e-08
6.08412e-08
5.83031e-08
5.58612e-08
5.35121e-08
5.12529e-08
4.90805e-08
4.6992e-08
4.49846e-08
4.30554e-08
4.12019e-08
3.94214e-08
3.77113e-08
3.60692e-08
3.44927e-08
3.29795e-08
3.15272e-08
3.01338e-08
2.87971e-08
2.7515e-08
2.62855e-08
2.51068e-08
2.39768e-08
2.28939e-08
2.18562e-08
2.08621e-08
1.99098e-08
1.89979e-08
1.81247e-08
1.72888e-08
1.64886e-08
1.5723e-08
1.49904e-08
1.42896e-08
1.36193e-08
1.29784e-08
1.23656e-08
1.17798e-08
1.12199e-08
1.06849e-08
1.01738e-08
9.68553e-09
9.21923e-09
8.77398e-09
8.34889e-09
7.94312e-09
7.55587e-09
7.18635e-09
6.83382e-09
6.49755e-09
6.17686e-09
5.87106e-09
5.57952e-09
5.30163e-09
5.03679e-09
4.78444e-09
4.54401e-09
4.315e-09
4.09689e-09
3.88921e-09
3.69148e-09
3.50327e-09
3.32414e-09
3.15369e-09
2.99152e-09
2.83725e-09
2.69053e-09
2.55101e-09
2.41836e-09
2.29226e-09
2.17241e-09
2.05851e-09
1.95029e-09
1.84749e-09
1.74984e-09
1.65711e-09
1.56905e-09
1.48546e-09
1.40611e-09
1.3308e-09
1.25935e-09
1.19155e-09
1.12724e-09
1.06624e-09
1.0084e-09
9.53557e-10
9.01566e-10
8.52287e-10
8.05585e-10
7.61333e-10
7.19409e-10
6.79697e-10
6.42086e-10
6.0647e-10
5.72749e-10
5.40827e-10
5.10612e-10
4.82019e-10
4.54964e-10
4.29368e-10
4.05156e-10
3.82258e-10
3.60606e-10
3.40134e-10
3.20781e-10
3.0249e-10
2.85205e-10
2.68873e-10
2.53443e-10
2.3887e-10
2.25106e-10
2.1211e-10
1.99841e-10
1.88259e-10
1.77329e-10
1.67016e-10
1.57286e-10
1.48108e-10
1.39452e-10
1.31291e-10
1.23598e-10
1.16347e-10
1.09514e-10
1.03078e-10
9.70152e-11
9.13066e-11
8.59329e-11
8.08756e-11
7.61178e-11
7.1643e-11
6.7436e-11
6.34823e-11
5.97681e-11
5.62806e-11
5.30074e-11
4.99373e-11
4.70593e-11
4.43633e-11
4.18396e-11
3.94794e-11
3.72741e-11
3.52158e-11
3.3297e-11
3.1511e-11
2.98511e-11
2.83113e-11
2.6886e-11
2.55699e-11
2.43583e-11
2.32466e-11
2.22307e-11
2.1307e-11
2.04719e-11
1.97223e-11
1.90554e-11
1.84689e-11
1.79603e-11
1.75279e-11
1.71701e-11
1.68854e-11
1.66728e-11
1.65315e-11
1.6461e-11
)
;
    }
    Wall
    {
        type            calculated;
        value           nonuniform List<scalar> 
400
(
1.00591e-07
3.01221e-07
5.00555e-07
6.98006e-07
8.93065e-07
1.08528e-06
1.27425e-06
1.45963e-06
1.6411e-06
1.81839e-06
1.99127e-06
2.15954e-06
2.32303e-06
2.4816e-06
2.63515e-06
2.78359e-06
2.92687e-06
3.06495e-06
3.19782e-06
3.32548e-06
3.44794e-06
3.56524e-06
3.67743e-06
3.78456e-06
3.8867e-06
3.98393e-06
4.07632e-06
4.16396e-06
4.24694e-06
4.32536e-06
4.39932e-06
4.46891e-06
4.53425e-06
4.59543e-06
4.65255e-06
4.70572e-06
4.75505e-06
4.80062e-06
4.84255e-06
4.88094e-06
4.91587e-06
4.94746e-06
4.97579e-06
5.00095e-06
5.02304e-06
5.04215e-06
5.05836e-06
5.07176e-06
5.08244e-06
5.09047e-06
5.09593e-06
5.0989e-06
5.09947e-06
5.09769e-06
5.09365e-06
5.08741e-06
5.07905e-06
5.06863e-06
5.05621e-06
5.04187e-06
5.02566e-06
5.00765e-06
4.9879e-06
4.96647e-06
4.94341e-06
4.91878e-06
4.89264e-06
4.86504e-06
4.83604e-06
4.80569e-06
4.77404e-06
4.74114e-06
4.70704e-06
4.67179e-06
4.63544e-06
4.59803e-06
4.55962e-06
4.52025e-06
4.47995e-06
4.43879e-06
4.39679e-06
4.35401e-06
4.31049e-06
4.26626e-06
4.22137e-06
4.17585e-06
4.12975e-06
4.08311e-06
4.03596e-06
3.98834e-06
3.94028e-06
3.89183e-06
3.84302e-06
3.79388e-06
3.74444e-06
3.69475e-06
3.64483e-06
3.59471e-06
3.54442e-06
3.494e-06
3.44348e-06
3.39288e-06
3.34224e-06
3.29158e-06
3.24092e-06
3.1903e-06
3.13974e-06
3.08927e-06
3.0389e-06
2.98867e-06
2.9386e-06
2.88871e-06
2.83901e-06
2.78954e-06
2.74032e-06
2.69135e-06
2.64267e-06
2.59428e-06
2.54621e-06
2.49848e-06
2.45109e-06
2.40408e-06
2.35744e-06
2.3112e-06
2.26537e-06
2.21996e-06
2.17498e-06
2.13045e-06
2.08638e-06
2.04278e-06
1.99965e-06
1.95702e-06
1.91488e-06
1.87324e-06
1.83211e-06
1.79151e-06
1.75143e-06
1.71188e-06
1.67287e-06
1.6344e-06
1.59647e-06
1.5591e-06
1.52228e-06
1.48602e-06
1.45031e-06
1.41517e-06
1.38059e-06
1.34657e-06
1.31312e-06
1.28023e-06
1.24791e-06
1.21615e-06
1.18495e-06
1.15432e-06
1.12424e-06
1.09472e-06
1.06576e-06
1.03736e-06
1.0095e-06
9.82189e-07
9.55423e-07
9.29198e-07
9.03509e-07
8.78352e-07
8.53722e-07
8.29616e-07
8.06028e-07
7.82952e-07
7.60385e-07
7.3832e-07
7.16751e-07
6.95674e-07
6.75082e-07
6.54968e-07
6.35328e-07
6.16154e-07
5.97441e-07
5.79181e-07
5.61369e-07
5.43997e-07
5.27059e-07
5.10549e-07
4.94458e-07
4.78781e-07
4.63511e-07
4.4864e-07
4.34162e-07
4.20069e-07
4.06355e-07
3.93013e-07
3.80035e-07
3.67415e-07
3.55146e-07
3.43221e-07
3.31632e-07
3.20373e-07
3.09438e-07
2.98819e-07
2.88509e-07
2.78502e-07
2.68791e-07
2.5937e-07
2.50231e-07
2.41369e-07
2.32777e-07
2.24449e-07
2.16378e-07
2.08558e-07
2.00984e-07
1.93648e-07
1.86545e-07
1.7967e-07
1.73015e-07
1.66577e-07
1.60348e-07
1.54324e-07
1.48499e-07
1.42867e-07
1.37424e-07
1.32164e-07
1.27082e-07
1.22174e-07
1.17433e-07
1.12856e-07
1.08438e-07
1.04174e-07
1.00059e-07
9.60899e-08
9.22615e-08
8.85697e-08
8.50104e-08
8.15796e-08
7.82733e-08
7.50876e-08
7.20188e-08
6.90631e-08
6.62171e-08
6.34771e-08
6.08398e-08
5.83019e-08
5.586e-08
5.3511e-08
5.12518e-08
4.90794e-08
4.6991e-08
4.49836e-08
4.30545e-08
4.1201e-08
3.94206e-08
3.77105e-08
3.60685e-08
3.4492e-08
3.29788e-08
3.15266e-08
3.01332e-08
2.87965e-08
2.75145e-08
2.6285e-08
2.51063e-08
2.39764e-08
2.28935e-08
2.18558e-08
2.08617e-08
1.99095e-08
1.89975e-08
1.81244e-08
1.72884e-08
1.64884e-08
1.57227e-08
1.49901e-08
1.42894e-08
1.36191e-08
1.29782e-08
1.23654e-08
1.17796e-08
1.12197e-08
1.06847e-08
1.01736e-08
9.68538e-09
9.2191e-09
8.77385e-09
8.34876e-09
7.94301e-09
7.55576e-09
7.18625e-09
6.83373e-09
6.49747e-09
6.17677e-09
5.87098e-09
5.57945e-09
5.30157e-09
5.03673e-09
4.78438e-09
4.54396e-09
4.31495e-09
4.09685e-09
3.88917e-09
3.69144e-09
3.50323e-09
3.32411e-09
3.15365e-09
2.99149e-09
2.83722e-09
2.6905e-09
2.55099e-09
2.41834e-09
2.29224e-09
2.17239e-09
2.05849e-09
1.95027e-09
1.84747e-09
1.74982e-09
1.65709e-09
1.56904e-09
1.48545e-09
1.4061e-09
1.3308e-09
1.25934e-09
1.19154e-09
1.12723e-09
1.06624e-09
1.00839e-09
9.53551e-10
9.01561e-10
8.52282e-10
8.05581e-10
7.6133e-10
7.19406e-10
6.79694e-10
6.42083e-10
6.06468e-10
5.72747e-10
5.40825e-10
5.10611e-10
4.82018e-10
4.54962e-10
4.29367e-10
4.05156e-10
3.82258e-10
3.60605e-10
3.40133e-10
3.20781e-10
3.0249e-10
2.85205e-10
2.68873e-10
2.53443e-10
2.3887e-10
2.25106e-10
2.1211e-10
1.99841e-10
1.8826e-10
1.77329e-10
1.67016e-10
1.57286e-10
1.48108e-10
1.39453e-10
1.31292e-10
1.23598e-10
1.16347e-10
1.09515e-10
1.03078e-10
9.70156e-11
9.13071e-11
8.59333e-11
8.08761e-11
7.61182e-11
7.16434e-11
6.74364e-11
6.34827e-11
5.97685e-11
5.62809e-11
5.30078e-11
4.99377e-11
4.70597e-11
4.43636e-11
4.184e-11
3.94797e-11
3.72744e-11
3.52161e-11
3.32973e-11
3.15113e-11
2.98514e-11
2.83115e-11
2.68862e-11
2.55702e-11
2.43585e-11
2.32468e-11
2.2231e-11
2.13072e-11
2.04721e-11
1.97225e-11
1.90557e-11
1.84691e-11
1.79605e-11
1.75282e-11
1.71703e-11
1.68856e-11
1.6673e-11
1.65317e-11
1.64611e-11
)
;
    }
}


// ************************************************************************* //
