/*--------------------------------*- C++ -*----------------------------------*\
  =========                 |
  \\      /  F ield         | OpenFOAM: The Open Source CFD Toolbox
   \\    /   O peration     | Website:  https://openfoam.org
    \\  /    A nd           | Version:  10
     \\/     M anipulation  |
\*---------------------------------------------------------------------------*/
FoamFile
{
    format      ascii;
    class       volScalarField;
    location    "0.36";
    object      growth;
}
// * * * * * * * * * * * * * * * * * * * * * * * * * * * * * * * * * * * * * //

dimensions      [0 0 0 0 0 0 0];

internalField   uniform 0;

boundaryField
{
    frontAndBack
    {
        type            empty;
    }
    inlet
    {
        type            calculated;
        value           uniform 0;
    }
    outlet
    {
        type            calculated;
        value           uniform 0;
    }
    substrate
    {
        type            calculated;
        value           nonuniform List<scalar> 
400
(
0.734673
0.712425
0.691346
0.670898
0.650824
0.631
0.611365
0.591894
0.572586
0.553449
0.534503
0.515771
0.497277
0.479049
0.461112
0.443493
0.426213
0.409297
0.392763
0.376628
0.360908
0.345615
0.330759
0.316347
0.302386
0.288877
0.275822
0.263221
0.251072
0.239369
0.22811
0.217286
0.206891
0.196917
0.187353
0.17819
0.169419
0.161027
0.153005
0.14534
0.138021
0.131036
0.124373
0.118022
0.11197
0.106205
0.100718
0.0954949
0.0905267
0.0858022
0.081311
0.077043
0.0729884
0.0691375
0.0654812
0.0620106
0.058717
0.0555921
0.0526279
0.0498168
0.0471513
0.0446245
0.0422295
0.0399598
0.0378092
0.0357717
0.0338418
0.0320138
0.0302828
0.0286436
0.0270917
0.0256226
0.0242319
0.0229156
0.0216698
0.020491
0.0193754
0.0183199
0.0173213
0.0163765
0.0154828
0.0146374
0.0138377
0.0130814
0.012366
0.0116895
0.0110498
0.0104448
0.00987271
0.00933176
0.00882028
0.00833667
0.00787944
0.00744715
0.00703846
0.00665209
0.00628683
0.00594154
0.00561513
0.00530658
0.00501492
0.00473923
0.00447863
0.00423232
0.0039995
0.00377945
0.00357146
0.00337488
0.00318909
0.00301349
0.00284753
0.00269069
0.00254246
0.00240237
0.00226997
0.00214485
0.00202661
0.00191487
0.00180927
0.00170948
0.00161517
0.00152606
0.00144185
0.00136227
0.00128707
0.00121601
0.00114886
0.00108541
0.00102545
0.000968793
0.000915258
0.000864672
0.000816873
0.000771708
0.000729033
0.000688709
0.000650609
0.000614609
0.000580594
0.000548456
0.000518089
0.000489399
0.000462291
0.000436679
0.00041248
0.000389617
0.000368017
0.000347609
0.000328328
0.000310112
0.000292902
0.000276643
0.000261283
0.000246772
0.000233063
0.000220111
0.000207876
0.000196318
0.000185399
0.000175085
0.000165341
0.000156137
0.000147442
0.000139229
0.00013147
0.000124142
0.000117219
0.000110681
0.000104505
9.86711e-05
9.31611e-05
8.79568e-05
8.30414e-05
7.83988e-05
7.4014e-05
6.98728e-05
6.59617e-05
6.2268e-05
5.87796e-05
5.54852e-05
5.23741e-05
4.94361e-05
4.66616e-05
4.40417e-05
4.15677e-05
3.92315e-05
3.70256e-05
3.49426e-05
3.29759e-05
3.11189e-05
2.93656e-05
2.77102e-05
2.61473e-05
2.46717e-05
2.32787e-05
2.19636e-05
2.0722e-05
1.955e-05
1.84436e-05
1.73993e-05
1.64135e-05
1.54829e-05
1.46046e-05
1.37756e-05
1.29932e-05
1.22547e-05
1.15578e-05
1.09001e-05
1.02794e-05
9.6936e-06
9.14085e-06
8.61927e-06
8.12711e-06
7.66273e-06
7.22457e-06
6.81117e-06
6.42115e-06
6.05319e-06
5.70606e-06
5.37859e-06
5.06968e-06
4.7783e-06
4.50345e-06
4.24421e-06
3.9997e-06
3.76909e-06
3.55161e-06
3.34651e-06
3.1531e-06
2.97071e-06
2.79874e-06
2.63658e-06
2.48369e-06
2.33955e-06
2.20365e-06
2.07553e-06
1.95476e-06
1.84092e-06
1.73361e-06
1.63247e-06
1.53714e-06
1.4473e-06
1.36263e-06
1.28284e-06
1.20765e-06
1.13681e-06
1.07005e-06
1.00716e-06
9.4791e-07
8.9209e-07
8.39507e-07
7.89975e-07
7.4332e-07
6.99377e-07
6.57991e-07
6.19015e-07
5.82311e-07
5.47749e-07
5.15205e-07
4.84564e-07
4.55715e-07
4.28556e-07
4.02989e-07
3.78923e-07
3.5627e-07
3.34949e-07
3.14882e-07
2.95998e-07
2.78227e-07
2.61506e-07
2.45772e-07
2.30969e-07
2.17043e-07
2.03942e-07
1.91618e-07
1.80026e-07
1.69124e-07
1.5887e-07
1.49227e-07
1.4016e-07
1.31634e-07
1.23617e-07
1.16081e-07
1.08995e-07
1.02335e-07
9.60744e-08
9.01902e-08
8.466e-08
7.94629e-08
7.45792e-08
6.99904e-08
6.56789e-08
6.16283e-08
5.7823e-08
5.42486e-08
5.08911e-08
4.77378e-08
4.47763e-08
4.19952e-08
3.93838e-08
3.69319e-08
3.46299e-08
3.24688e-08
3.04401e-08
2.85359e-08
2.67487e-08
2.50714e-08
2.34973e-08
2.20203e-08
2.06345e-08
1.93343e-08
1.81146e-08
1.69704e-08
1.58972e-08
1.48906e-08
1.39466e-08
1.30614e-08
1.22313e-08
1.1453e-08
1.07234e-08
1.00394e-08
9.39824e-09
8.79729e-09
8.23407e-09
7.70626e-09
7.21167e-09
6.74825e-09
6.31408e-09
5.90734e-09
5.52632e-09
5.16945e-09
4.8352e-09
4.52218e-09
4.22907e-09
3.95461e-09
3.69765e-09
3.45709e-09
3.23191e-09
3.02114e-09
2.82387e-09
2.63926e-09
2.46651e-09
2.30487e-09
2.15365e-09
2.01218e-09
1.87985e-09
1.75608e-09
1.64032e-09
1.53208e-09
1.43086e-09
1.33624e-09
1.24777e-09
1.16508e-09
1.0878e-09
1.01557e-09
9.48079e-10
8.85022e-10
8.26115e-10
7.71091e-10
7.19703e-10
6.71716e-10
6.26914e-10
5.8509e-10
5.46056e-10
5.0963e-10
4.75647e-10
4.4395e-10
4.14392e-10
3.86837e-10
3.61157e-10
3.37231e-10
3.1495e-10
2.94208e-10
2.74909e-10
2.56961e-10
2.4028e-10
2.24788e-10
2.10412e-10
1.97082e-10
1.84736e-10
1.73316e-10
1.62766e-10
1.53036e-10
1.4408e-10
1.35855e-10
1.2832e-10
1.21441e-10
1.15183e-10
1.09517e-10
1.04415e-10
9.98526e-11
9.58072e-11
9.22595e-11
8.91921e-11
8.65902e-11
8.44411e-11
8.27342e-11
8.14613e-11
8.06161e-11
8.01946e-11
)
;
    }
    Wall
    {
        type            calculated;
        value           nonuniform List<scalar> 
400
(
0.734672
0.712424
0.691347
0.670898
0.650825
0.631
0.611364
0.591894
0.572585
0.553449
0.534503
0.515771
0.497278
0.47905
0.461113
0.443494
0.426215
0.409299
0.392765
0.376631
0.360911
0.345619
0.330763
0.316351
0.30239
0.288881
0.275826
0.263226
0.251076
0.239374
0.228115
0.217291
0.206896
0.196922
0.187358
0.178196
0.169424
0.161032
0.15301
0.145345
0.138025
0.131041
0.124378
0.118027
0.111974
0.10621
0.100722
0.0954991
0.0905308
0.0858062
0.0813149
0.0770467
0.072992
0.069141
0.0654846
0.0620138
0.05872
0.055595
0.0526307
0.0498195
0.0471539
0.044627
0.0422318
0.039962
0.0378113
0.0357738
0.0338437
0.0320157
0.0302845
0.0286453
0.0270933
0.0256241
0.0242333
0.022917
0.0216711
0.0204922
0.0193766
0.018321
0.0173223
0.0163775
0.0154837
0.0146382
0.0138385
0.0130821
0.0123668
0.0116902
0.0110504
0.0104454
0.00987326
0.00933228
0.00882076
0.00833713
0.00787986
0.00744755
0.00703883
0.00665244
0.00628716
0.00594184
0.00561542
0.00530685
0.00501517
0.00473946
0.00447885
0.00423252
0.00399969
0.00377962
0.00357162
0.00337503
0.00318923
0.00301362
0.00284765
0.0026908
0.00254256
0.00240246
0.00227006
0.00214493
0.00202669
0.00191494
0.00180933
0.00170954
0.00161523
0.00152611
0.00144189
0.00136231
0.00128711
0.00121604
0.00114889
0.00108544
0.00102548
0.000968819
0.000915282
0.000864694
0.000816894
0.000771727
0.00072905
0.000688725
0.000650623
0.000614622
0.000580607
0.000548467
0.0005181
0.000489408
0.000462299
0.000436686
0.000412487
0.000389624
0.000368023
0.000347614
0.000328333
0.000310116
0.000292906
0.000276647
0.000261286
0.000246775
0.000233065
0.000220114
0.000207879
0.00019632
0.000185401
0.000175087
0.000165343
0.000156138
0.000147443
0.00013923
0.000131471
0.000124143
0.00011722
0.000110682
0.000104505
9.86718e-05
9.31617e-05
8.79574e-05
8.30419e-05
7.83993e-05
7.40145e-05
6.98732e-05
6.59621e-05
6.22683e-05
5.87799e-05
5.54855e-05
5.23743e-05
4.94363e-05
4.66618e-05
4.40419e-05
4.15678e-05
3.92316e-05
3.70257e-05
3.49428e-05
3.2976e-05
3.1119e-05
2.93657e-05
2.77103e-05
2.61474e-05
2.46718e-05
2.32787e-05
2.19636e-05
2.07221e-05
1.95501e-05
1.84437e-05
1.73993e-05
1.64135e-05
1.5483e-05
1.46047e-05
1.37757e-05
1.29932e-05
1.22548e-05
1.15578e-05
1.09001e-05
1.02794e-05
9.69363e-06
9.14088e-06
8.61929e-06
8.12713e-06
7.66275e-06
7.22459e-06
6.81119e-06
6.42116e-06
6.0532e-06
5.70607e-06
5.37861e-06
5.0697e-06
4.77831e-06
4.50346e-06
4.24422e-06
3.99971e-06
3.76911e-06
3.55162e-06
3.34652e-06
3.15311e-06
2.97073e-06
2.79875e-06
2.63659e-06
2.4837e-06
2.33955e-06
2.20366e-06
2.07554e-06
1.95477e-06
1.84093e-06
1.73362e-06
1.63248e-06
1.53715e-06
1.4473e-06
1.36264e-06
1.28285e-06
1.20766e-06
1.13681e-06
1.07006e-06
1.00717e-06
9.47915e-07
8.92095e-07
8.39511e-07
7.89979e-07
7.43324e-07
6.99381e-07
6.57995e-07
6.19019e-07
5.82315e-07
5.47752e-07
5.15208e-07
4.84567e-07
4.55718e-07
4.28559e-07
4.02992e-07
3.78925e-07
3.56272e-07
3.34951e-07
3.14884e-07
2.96e-07
2.78229e-07
2.61508e-07
2.45774e-07
2.30971e-07
2.17044e-07
2.03943e-07
1.9162e-07
1.80028e-07
1.69125e-07
1.58872e-07
1.49229e-07
1.40161e-07
1.31635e-07
1.23618e-07
1.16082e-07
1.08996e-07
1.02336e-07
9.60754e-08
9.01911e-08
8.46608e-08
7.94637e-08
7.458e-08
6.99911e-08
6.56796e-08
6.1629e-08
5.78237e-08
5.42492e-08
5.08917e-08
4.77383e-08
4.47768e-08
4.19957e-08
3.93843e-08
3.69324e-08
3.46303e-08
3.24692e-08
3.04405e-08
2.85363e-08
2.6749e-08
2.50717e-08
2.34977e-08
2.20206e-08
2.06348e-08
1.93346e-08
1.81148e-08
1.69706e-08
1.58974e-08
1.48908e-08
1.39468e-08
1.30616e-08
1.22315e-08
1.14532e-08
1.07236e-08
1.00396e-08
9.39839e-09
8.79743e-09
8.2342e-09
7.70639e-09
7.21179e-09
6.74837e-09
6.31419e-09
5.90744e-09
5.52642e-09
5.16954e-09
4.83529e-09
4.52226e-09
4.22914e-09
3.95468e-09
3.69772e-09
3.45716e-09
3.23197e-09
3.02119e-09
2.82392e-09
2.63931e-09
2.46656e-09
2.30492e-09
2.15369e-09
2.01222e-09
1.87989e-09
1.75611e-09
1.64036e-09
1.53211e-09
1.43089e-09
1.33626e-09
1.2478e-09
1.16511e-09
1.08782e-09
1.01559e-09
9.48101e-10
8.85042e-10
8.26134e-10
7.71109e-10
7.1972e-10
6.71732e-10
6.26929e-10
5.85104e-10
5.46069e-10
5.09643e-10
4.75659e-10
4.43961e-10
4.14403e-10
3.86847e-10
3.61166e-10
3.3724e-10
3.14958e-10
2.94216e-10
2.74916e-10
2.56967e-10
2.40287e-10
2.24794e-10
2.10417e-10
1.97087e-10
1.84741e-10
1.7332e-10
1.6277e-10
1.5304e-10
1.44084e-10
1.35858e-10
1.28324e-10
1.21444e-10
1.15187e-10
1.0952e-10
1.04418e-10
9.98553e-11
9.58099e-11
9.2262e-11
8.91946e-11
8.65927e-11
8.44436e-11
8.27368e-11
8.14637e-11
8.06179e-11
8.01959e-11
)
;
    }
}


// ************************************************************************* //
