/*--------------------------------*- C++ -*----------------------------------*\
  =========                 |
  \\      /  F ield         | OpenFOAM: The Open Source CFD Toolbox
   \\    /   O peration     | Website:  https://openfoam.org
    \\  /    A nd           | Version:  10
     \\/     M anipulation  |
\*---------------------------------------------------------------------------*/
FoamFile
{
    format      ascii;
    class       volScalarField;
    location    "0.3";
    object      beta;
}
// * * * * * * * * * * * * * * * * * * * * * * * * * * * * * * * * * * * * * //

dimensions      [0 0 0 0 0 0 0];

internalField   uniform 0;

boundaryField
{
    frontAndBack
    {
        type            empty;
    }
    inlet
    {
        type            calculated;
        value           uniform 0;
    }
    outlet
    {
        type            calculated;
        value           uniform 0;
    }
    substrate
    {
        type            calculated;
        value           nonuniform List<scalar> 
400
(
0.00265328
0.00287577
0.00308657
0.00329107
0.00349182
0.00369008
0.00388646
0.00408119
0.00427429
0.00446568
0.00465516
0.00484251
0.00502747
0.00520978
0.00538918
0.0055654
0.00573822
0.00590741
0.00607278
0.00623415
0.00639138
0.00654434
0.00669293
0.00683707
0.00697672
0.00711183
0.0072424
0.00736843
0.00748995
0.007607
0.00771961
0.00782787
0.00793184
0.00803161
0.00812726
0.0082189
0.00830663
0.00839056
0.00847081
0.00854747
0.00862067
0.00869053
0.00875717
0.00882069
0.00888122
0.00893887
0.00899376
0.00904599
0.00909568
0.00914293
0.00918785
0.00923053
0.00927108
0.00930959
0.00934615
0.00938086
0.0094138
0.00944505
0.00947469
0.0095028
0.00952945
0.00955471
0.00957866
0.00960135
0.00962285
0.00964322
0.00966252
0.00968079
0.0096981
0.00971448
0.00972999
0.00974468
0.00975858
0.00977173
0.00978418
0.00979596
0.00980711
0.00981766
0.00982763
0.00983707
0.009846
0.00985444
0.00986243
0.00986998
0.00987713
0.00988388
0.00989027
0.00989631
0.00990202
0.00990742
0.00991252
0.00991735
0.00992191
0.00992622
0.0099303
0.00993415
0.00993779
0.00994123
0.00994449
0.00994756
0.00995047
0.00995321
0.00995581
0.00995826
0.00996058
0.00996277
0.00996483
0.00996679
0.00996864
0.00997038
0.00997203
0.00997359
0.00997506
0.00997645
0.00997777
0.00997901
0.00998018
0.00998129
0.00998233
0.00998332
0.00998425
0.00998514
0.00998597
0.00998676
0.0099875
0.0099882
0.00998886
0.00998949
0.00999008
0.00999064
0.00999117
0.00999166
0.00999213
0.00999258
0.009993
0.00999339
0.00999377
0.00999412
0.00999445
0.00999477
0.00999506
0.00999534
0.00999561
0.00999586
0.00999609
0.00999631
0.00999652
0.00999672
0.00999691
0.00999709
0.00999725
0.00999741
0.00999756
0.0099977
0.00999783
0.00999795
0.00999807
0.00999818
0.00999829
0.00999839
0.00999848
0.00999857
0.00999865
0.00999873
0.0099988
0.00999887
0.00999894
0.009999
0.00999906
0.00999911
0.00999916
0.00999921
0.00999926
0.0099993
0.00999934
0.00999938
0.00999942
0.00999945
0.00999948
0.00999951
0.00999954
0.00999957
0.00999959
0.00999962
0.00999964
0.00999966
0.00999968
0.0099997
0.00999972
0.00999974
0.00999975
0.00999977
0.00999978
0.00999979
0.00999981
0.00999982
0.00999983
0.00999984
0.00999985
0.00999986
0.00999987
0.00999987
0.00999988
0.00999989
0.0099999
0.0099999
0.00999991
0.00999991
0.00999992
0.00999992
0.00999993
0.00999993
0.00999994
0.00999994
0.00999994
0.00999995
0.00999995
0.00999995
0.00999996
0.00999996
0.00999996
0.00999996
0.00999997
0.00999997
0.00999997
0.00999997
0.00999997
0.00999998
0.00999998
0.00999998
0.00999998
0.00999998
0.00999998
0.00999998
0.00999998
0.00999999
0.00999999
0.00999999
0.00999999
0.00999999
0.00999999
0.00999999
0.00999999
0.00999999
0.00999999
0.00999999
0.00999999
0.00999999
0.00999999
0.00999999
0.00999999
0.00999999
0.01
0.01
0.01
0.01
0.01
0.01
0.01
0.01
0.01
0.01
0.01
0.01
0.01
0.01
0.01
0.01
0.01
0.01
0.01
0.01
0.01
0.01
0.01
0.01
0.01
0.01
0.01
0.01
0.01
0.01
0.01
0.01
0.01
0.01
0.01
0.01
0.01
0.01
0.01
0.01
0.01
0.01
0.01
0.01
0.01
0.01
0.01
0.01
0.01
0.01
0.01
0.01
0.01
0.01
0.01
0.01
0.01
0.01
0.01
0.01
0.01
0.01
0.01
0.01
0.01
0.01
0.01
0.01
0.01
0.01
0.01
0.01
0.01
0.01
0.01
0.01
0.01
0.01
0.01
0.01
0.01
0.01
0.01
0.01
0.01
0.01
0.01
0.01
0.01
0.01
0.01
0.01
0.01
0.01
0.01
0.01
0.01
0.01
0.01
0.01
0.01
0.01
0.01
0.01
0.01
0.01
0.01
0.01
0.01
0.01
0.01
0.01
0.01
0.01
0.01
0.01
0.01
0.01
0.01
0.01
0.01
0.01
0.01
0.01
0.01
0.01
0.01
0.01
0.01
0.01
0.01
0.01
0.01
0.01
0.01
0.01
0.01
0.01
0.01
0.01
0.01
0.01
0.01
0.01
0.01
0.01
0.01
0.01
)
;
    }
    Wall
    {
        type            calculated;
        value           nonuniform List<scalar> 
400
(
0.00265328
0.00287578
0.00308657
0.00329106
0.00349182
0.00369009
0.00388646
0.00408119
0.0042743
0.00446568
0.00465516
0.00484251
0.00502747
0.00520978
0.00538917
0.00556539
0.0057382
0.00590739
0.00607276
0.00623413
0.00639135
0.00654431
0.00669289
0.00683703
0.00697668
0.00711179
0.00724236
0.00736839
0.00748991
0.00760695
0.00771956
0.00782782
0.00793179
0.00803156
0.00812721
0.00821885
0.00830658
0.00839051
0.00847076
0.00854742
0.00862062
0.00869049
0.00875712
0.00882065
0.00888118
0.00893883
0.00899372
0.00904595
0.00909564
0.00914289
0.00918781
0.00923049
0.00927104
0.00930956
0.00934612
0.00938083
0.00941377
0.00944502
0.00947466
0.00950277
0.00952942
0.00955469
0.00957864
0.00960133
0.00962283
0.0096432
0.0096625
0.00968077
0.00969808
0.00971447
0.00972998
0.00974466
0.00975856
0.00977172
0.00978417
0.00979595
0.0098071
0.00981765
0.00982762
0.00983706
0.00984599
0.00985444
0.00986242
0.00986998
0.00987712
0.00988388
0.00989026
0.0098963
0.00990201
0.00990741
0.00991252
0.00991734
0.0099219
0.00992622
0.00993029
0.00993415
0.00993779
0.00994123
0.00994448
0.00994756
0.00995046
0.00995321
0.0099558
0.00995826
0.00996057
0.00996276
0.00996483
0.00996679
0.00996864
0.00997038
0.00997203
0.00997359
0.00997506
0.00997645
0.00997776
0.00997901
0.00998018
0.00998129
0.00998233
0.00998332
0.00998425
0.00998514
0.00998597
0.00998676
0.0099875
0.0099882
0.00998886
0.00998949
0.00999008
0.00999064
0.00999117
0.00999166
0.00999213
0.00999258
0.009993
0.00999339
0.00999376
0.00999412
0.00999445
0.00999476
0.00999506
0.00999534
0.00999561
0.00999586
0.00999609
0.00999631
0.00999652
0.00999672
0.00999691
0.00999709
0.00999725
0.00999741
0.00999756
0.0099977
0.00999783
0.00999795
0.00999807
0.00999818
0.00999829
0.00999839
0.00999848
0.00999857
0.00999865
0.00999873
0.0099988
0.00999887
0.00999894
0.009999
0.00999906
0.00999911
0.00999916
0.00999921
0.00999926
0.0099993
0.00999934
0.00999938
0.00999942
0.00999945
0.00999948
0.00999951
0.00999954
0.00999957
0.00999959
0.00999962
0.00999964
0.00999966
0.00999968
0.0099997
0.00999972
0.00999974
0.00999975
0.00999977
0.00999978
0.00999979
0.00999981
0.00999982
0.00999983
0.00999984
0.00999985
0.00999986
0.00999987
0.00999987
0.00999988
0.00999989
0.0099999
0.0099999
0.00999991
0.00999991
0.00999992
0.00999992
0.00999993
0.00999993
0.00999994
0.00999994
0.00999994
0.00999995
0.00999995
0.00999995
0.00999996
0.00999996
0.00999996
0.00999996
0.00999997
0.00999997
0.00999997
0.00999997
0.00999997
0.00999998
0.00999998
0.00999998
0.00999998
0.00999998
0.00999998
0.00999998
0.00999998
0.00999999
0.00999999
0.00999999
0.00999999
0.00999999
0.00999999
0.00999999
0.00999999
0.00999999
0.00999999
0.00999999
0.00999999
0.00999999
0.00999999
0.00999999
0.00999999
0.00999999
0.01
0.01
0.01
0.01
0.01
0.01
0.01
0.01
0.01
0.01
0.01
0.01
0.01
0.01
0.01
0.01
0.01
0.01
0.01
0.01
0.01
0.01
0.01
0.01
0.01
0.01
0.01
0.01
0.01
0.01
0.01
0.01
0.01
0.01
0.01
0.01
0.01
0.01
0.01
0.01
0.01
0.01
0.01
0.01
0.01
0.01
0.01
0.01
0.01
0.01
0.01
0.01
0.01
0.01
0.01
0.01
0.01
0.01
0.01
0.01
0.01
0.01
0.01
0.01
0.01
0.01
0.01
0.01
0.01
0.01
0.01
0.01
0.01
0.01
0.01
0.01
0.01
0.01
0.01
0.01
0.01
0.01
0.01
0.01
0.01
0.01
0.01
0.01
0.01
0.01
0.01
0.01
0.01
0.01
0.01
0.01
0.01
0.01
0.01
0.01
0.01
0.01
0.01
0.01
0.01
0.01
0.01
0.01
0.01
0.01
0.01
0.01
0.01
0.01
0.01
0.01
0.01
0.01
0.01
0.01
0.01
0.01
0.01
0.01
0.01
0.01
0.01
0.01
0.01
0.01
0.01
0.01
0.01
0.01
0.01
0.01
0.01
0.01
0.01
0.01
0.01
0.01
0.01
0.01
0.01
0.01
0.01
0.01
)
;
    }
}


// ************************************************************************* //
