/*--------------------------------*- C++ -*----------------------------------*\
  =========                 |
  \\      /  F ield         | OpenFOAM: The Open Source CFD Toolbox
   \\    /   O peration     | Website:  https://openfoam.org
    \\  /    A nd           | Version:  10
     \\/     M anipulation  |
\*---------------------------------------------------------------------------*/
FoamFile
{
    format      ascii;
    class       volScalarField;
    location    "0.3";
    object      N1;
}
// * * * * * * * * * * * * * * * * * * * * * * * * * * * * * * * * * * * * * //

dimensions      [0 0 0 0 0 0 0];

internalField   nonuniform List<scalar> 
8000
(
6.6743e-06
1.99933e-05
3.32335e-05
4.63539e-05
5.93185e-05
7.20957e-05
8.4657e-05
9.69771e-05
0.000109033
0.000120806
0.000132278
0.000143434
0.000154262
0.00016475
0.00017489
0.000184675
0.0001941
0.000203161
0.000211856
0.000220184
0.000228145
0.000235741
0.000242974
0.000249846
0.000256362
0.000262526
0.000268344
0.000273819
0.00027896
0.00028377
0.000288258
0.00029243
0.000296293
0.000299854
0.000303119
0.000306097
0.000308795
0.000311219
0.000313377
0.000315277
0.000316925
0.000318329
0.000319495
0.000320431
0.000321144
0.000321641
0.000321927
0.000322011
0.000321897
0.000321594
0.000321107
0.000320442
0.000319606
0.000318604
0.000317444
0.000316129
0.000314667
0.000313062
0.000311321
0.000309448
0.00030745
0.000305331
0.000303097
0.000300752
0.000298303
0.000295752
0.000293107
0.00029037
0.000287547
0.000284643
0.000281662
0.000278608
0.000275485
0.000272299
0.000269053
0.000265751
0.000262397
0.000258995
0.000255549
0.000252063
0.00024854
0.000244984
0.000241399
0.000237787
0.000234153
0.0002305
0.00022683
0.000223147
0.000219454
0.000215754
0.00021205
0.000208344
0.000204639
0.000200939
0.000197244
0.000193558
0.000189884
0.000186223
0.000182577
0.000178949
0.000175342
0.000171756
0.000168193
0.000164656
0.000161147
0.000157666
0.000154215
0.000150797
0.000147411
0.000144061
0.000140746
0.000137469
0.000134229
0.000131029
0.00012787
0.000124751
0.000121675
0.000118641
0.000115651
0.000112705
0.000109803
0.000106947
0.000104137
0.000101373
9.86554e-05
9.59846e-05
9.33608e-05
9.07842e-05
8.82551e-05
8.57734e-05
8.33392e-05
8.09525e-05
7.86133e-05
7.63214e-05
7.40768e-05
7.18794e-05
6.97288e-05
6.76248e-05
6.55673e-05
6.35558e-05
6.159e-05
5.96697e-05
5.77943e-05
5.59635e-05
5.41768e-05
5.24337e-05
5.07338e-05
4.90766e-05
4.74615e-05
4.58879e-05
4.43554e-05
4.28633e-05
4.1411e-05
3.9998e-05
3.86236e-05
3.72871e-05
3.5988e-05
3.47257e-05
3.34994e-05
3.23084e-05
3.11522e-05
3.00301e-05
2.89414e-05
2.78854e-05
2.68615e-05
2.58689e-05
2.4907e-05
2.39752e-05
2.30728e-05
2.2199e-05
2.13533e-05
2.0535e-05
1.97434e-05
1.89778e-05
1.82377e-05
1.75223e-05
1.68312e-05
1.61635e-05
1.55187e-05
1.48963e-05
1.42955e-05
1.37158e-05
1.31567e-05
1.26174e-05
1.20976e-05
1.15965e-05
1.11137e-05
1.06486e-05
1.02007e-05
9.76946e-06
9.35438e-06
8.95496e-06
8.57071e-06
8.20115e-06
7.8458e-06
7.50422e-06
7.17595e-06
6.86056e-06
6.55761e-06
6.2667e-06
5.9874e-06
5.71934e-06
5.46211e-06
5.21535e-06
4.97869e-06
4.75176e-06
4.53423e-06
4.32575e-06
4.126e-06
3.93465e-06
3.75141e-06
3.57596e-06
3.40802e-06
3.2473e-06
3.09353e-06
2.94644e-06
2.80578e-06
2.67129e-06
2.54275e-06
2.4199e-06
2.30253e-06
2.19042e-06
2.08335e-06
1.98113e-06
1.88355e-06
1.79042e-06
1.70157e-06
1.61682e-06
1.53599e-06
1.45892e-06
1.38545e-06
1.31543e-06
1.24871e-06
1.18514e-06
1.1246e-06
1.06696e-06
1.01207e-06
9.59832e-07
9.10119e-07
8.62821e-07
8.17829e-07
7.7504e-07
7.34355e-07
6.95678e-07
6.58919e-07
6.23988e-07
5.90802e-07
5.5928e-07
5.29344e-07
5.00922e-07
4.73941e-07
4.48333e-07
4.24034e-07
4.00981e-07
3.79115e-07
3.58378e-07
3.38717e-07
3.20079e-07
3.02413e-07
2.85674e-07
2.69814e-07
2.54791e-07
2.40564e-07
2.27092e-07
2.14339e-07
2.02267e-07
1.90844e-07
1.80035e-07
1.6981e-07
1.60139e-07
1.50993e-07
1.42347e-07
1.34173e-07
1.26448e-07
1.19148e-07
1.12251e-07
1.05737e-07
9.95839e-08
9.37739e-08
8.82887e-08
8.31109e-08
7.82243e-08
7.36132e-08
6.9263e-08
6.51594e-08
6.12893e-08
5.76399e-08
5.41993e-08
5.09561e-08
4.78995e-08
4.50192e-08
4.23056e-08
3.97493e-08
3.73418e-08
3.50746e-08
3.294e-08
3.09307e-08
2.90394e-08
2.72596e-08
2.5585e-08
2.40097e-08
2.25279e-08
2.11345e-08
1.98242e-08
1.85923e-08
1.74344e-08
1.63462e-08
1.53236e-08
1.43629e-08
1.34604e-08
1.26127e-08
1.18167e-08
1.10693e-08
1.03676e-08
9.709e-09
9.09091e-09
8.51092e-09
7.96677e-09
7.45633e-09
6.97758e-09
6.52863e-09
6.10768e-09
5.71305e-09
5.34316e-09
4.99649e-09
4.67164e-09
4.3673e-09
4.08219e-09
3.81516e-09
3.56508e-09
3.33093e-09
3.11172e-09
2.90652e-09
2.71447e-09
2.53475e-09
2.3666e-09
2.2093e-09
2.06216e-09
1.92456e-09
1.79589e-09
1.67559e-09
1.56313e-09
1.45802e-09
1.3598e-09
1.26801e-09
1.18227e-09
1.10217e-09
1.02737e-09
9.57511e-10
8.92289e-10
8.31402e-10
7.74571e-10
7.21534e-10
6.72046e-10
6.25877e-10
5.82812e-10
5.42647e-10
5.05196e-10
4.70279e-10
4.37733e-10
4.07401e-10
3.79138e-10
3.5281e-10
3.28288e-10
3.05453e-10
2.84196e-10
2.64411e-10
2.46003e-10
2.2888e-10
2.12958e-10
1.98157e-10
1.84405e-10
1.71633e-10
1.59775e-10
1.48774e-10
1.38572e-10
1.29119e-10
1.20366e-10
1.12269e-10
1.04787e-10
9.78794e-11
9.15125e-11
8.56528e-11
8.027e-11
7.5336e-11
7.08252e-11
6.6714e-11
6.29809e-11
5.96061e-11
5.65721e-11
5.38627e-11
5.14637e-11
4.93623e-11
4.75475e-11
4.60095e-11
4.47401e-11
4.37327e-11
4.29818e-11
4.24834e-11
4.22349e-11
6.74258e-06
2.02041e-05
3.3598e-05
4.68845e-05
6.00283e-05
7.29972e-05
8.57623e-05
9.82977e-05
0.00011058
0.000122589
0.000134305
0.000145714
0.0001568
0.000167553
0.000177962
0.000188019
0.000197719
0.000207056
0.000216027
0.000224629
0.000232864
0.00024073
0.000248228
0.000255363
0.000262135
0.00026855
0.000274611
0.000280324
0.000285693
0.000290725
0.000295426
0.000299802
0.00030386
0.000307607
0.000311049
0.000314194
0.000317049
0.000319621
0.000321918
0.000323946
0.000325714
0.000327227
0.000328495
0.000329522
0.000330317
0.000330887
0.000331238
0.000331378
0.000331313
0.000331049
0.000330594
0.000329954
0.000329134
0.000328142
0.000326984
0.000325665
0.000324192
0.00032257
0.000320805
0.000318904
0.000316871
0.000314712
0.000312432
0.000310038
0.000307533
0.000304923
0.000302213
0.000299409
0.000296514
0.000293535
0.000290474
0.000287338
0.00028413
0.000280855
0.000277518
0.000274122
0.000270672
0.000267171
0.000263625
0.000260036
0.000256409
0.000252747
0.000249055
0.000245335
0.000241591
0.000237826
0.000234044
0.000230249
0.000226442
0.000222628
0.000218809
0.000214989
0.000211169
0.000207353
0.000203543
0.000199742
0.000195952
0.000192176
0.000188416
0.000184674
0.000180952
0.000177253
0.000173578
0.000169929
0.000166308
0.000162717
0.000159157
0.00015563
0.000152137
0.00014868
0.00014526
0.000141878
0.000138535
0.000135233
0.000131973
0.000128755
0.00012558
0.000122449
0.000119363
0.000116323
0.000113329
0.000110382
0.000107481
0.000104629
0.000101824
9.90677e-05
9.63599e-05
9.37007e-05
9.10905e-05
8.85292e-05
8.60169e-05
8.35537e-05
8.11394e-05
7.8774e-05
7.64574e-05
7.41894e-05
7.19698e-05
6.97983e-05
6.76747e-05
6.55986e-05
6.35697e-05
6.15877e-05
5.96521e-05
5.77625e-05
5.59184e-05
5.41193e-05
5.23648e-05
5.06543e-05
4.89873e-05
4.73632e-05
4.57814e-05
4.42414e-05
4.27424e-05
4.1284e-05
3.98654e-05
3.8486e-05
3.71452e-05
3.58422e-05
3.45765e-05
3.33473e-05
3.21539e-05
3.09957e-05
2.9872e-05
2.8782e-05
2.77252e-05
2.67007e-05
2.57079e-05
2.47462e-05
2.38147e-05
2.29129e-05
2.204e-05
2.11953e-05
2.03782e-05
1.95881e-05
1.88242e-05
1.80858e-05
1.73724e-05
1.66833e-05
1.60178e-05
1.53753e-05
1.47552e-05
1.41569e-05
1.35797e-05
1.30232e-05
1.24866e-05
1.19694e-05
1.14711e-05
1.0991e-05
1.05287e-05
1.00836e-05
9.6552e-06
9.24294e-06
8.84633e-06
8.46488e-06
8.09811e-06
7.74554e-06
7.40672e-06
7.08118e-06
6.76849e-06
6.46822e-06
6.17995e-06
5.90326e-06
5.63777e-06
5.38307e-06
5.13879e-06
4.90457e-06
4.68004e-06
4.46486e-06
4.25868e-06
4.06119e-06
3.87205e-06
3.69096e-06
3.51761e-06
3.35173e-06
3.19301e-06
3.04119e-06
2.89601e-06
2.7572e-06
2.62452e-06
2.49772e-06
2.37657e-06
2.26086e-06
2.15035e-06
2.04484e-06
1.94412e-06
1.848e-06
1.7563e-06
1.66881e-06
1.58538e-06
1.50583e-06
1.43e-06
1.35773e-06
1.28886e-06
1.22326e-06
1.16077e-06
1.10127e-06
1.04462e-06
9.90699e-07
9.39387e-07
8.90568e-07
8.44129e-07
7.99964e-07
7.57971e-07
7.1805e-07
6.80108e-07
6.44054e-07
6.09801e-07
5.77265e-07
5.46367e-07
5.17031e-07
4.89182e-07
4.62751e-07
4.3767e-07
4.13876e-07
3.91307e-07
3.69903e-07
3.4961e-07
3.30372e-07
3.12138e-07
2.9486e-07
2.78491e-07
2.62985e-07
2.483e-07
2.34395e-07
2.21232e-07
2.08772e-07
1.96981e-07
1.85824e-07
1.75271e-07
1.65289e-07
1.55849e-07
1.46924e-07
1.38488e-07
1.30514e-07
1.2298e-07
1.15861e-07
1.09137e-07
1.02786e-07
9.67895e-08
9.11279e-08
8.57836e-08
8.07399e-08
7.59805e-08
7.14903e-08
6.72548e-08
6.32602e-08
5.94935e-08
5.59423e-08
5.25948e-08
4.94399e-08
4.6467e-08
4.3666e-08
4.10276e-08
3.85426e-08
3.62025e-08
3.39993e-08
3.19253e-08
2.99733e-08
2.81362e-08
2.64078e-08
2.47818e-08
2.32524e-08
2.18141e-08
2.04617e-08
1.91902e-08
1.79951e-08
1.68719e-08
1.58164e-08
1.48248e-08
1.38932e-08
1.30183e-08
1.21967e-08
1.14252e-08
1.0701e-08
1.00212e-08
9.38325e-09
8.78461e-09
8.22297e-09
7.69611e-09
7.20197e-09
6.73858e-09
6.30409e-09
5.89677e-09
5.51498e-09
5.15716e-09
4.82187e-09
4.50774e-09
4.21347e-09
3.93784e-09
3.67973e-09
3.43805e-09
3.21178e-09
2.99998e-09
2.80176e-09
2.61626e-09
2.44271e-09
2.28035e-09
2.12848e-09
1.98645e-09
1.85364e-09
1.72947e-09
1.6134e-09
1.50491e-09
1.40352e-09
1.30879e-09
1.22029e-09
1.13762e-09
1.0604e-09
9.88302e-10
9.20983e-10
8.58138e-10
7.99479e-10
7.44737e-10
6.93658e-10
6.46004e-10
6.01553e-10
5.60098e-10
5.21441e-10
4.85402e-10
4.51809e-10
4.20502e-10
3.91331e-10
3.64155e-10
3.38844e-10
3.15276e-10
2.93335e-10
2.72914e-10
2.53914e-10
2.3624e-10
2.19806e-10
2.0453e-10
1.90335e-10
1.77152e-10
1.64913e-10
1.53558e-10
1.43028e-10
1.33271e-10
1.24237e-10
1.1588e-10
1.08156e-10
1.01027e-10
9.44553e-11
8.84072e-11
8.28512e-11
7.77586e-11
7.31028e-11
6.88594e-11
6.50062e-11
6.15229e-11
5.83913e-11
5.55948e-11
5.31186e-11
5.09497e-11
4.90765e-11
4.7489e-11
4.61789e-11
4.51391e-11
4.4364e-11
4.38495e-11
4.3593e-11
6.80946e-06
2.04078e-05
3.39454e-05
4.73847e-05
6.0691e-05
7.38326e-05
8.67805e-05
9.95082e-05
0.000111992
0.00012421
0.000136144
0.000147777
0.000159094
0.000170081
0.000180729
0.000191029
0.000200972
0.000210554
0.00021977
0.000228618
0.000237095
0.000245201
0.000252937
0.000260304
0.000267305
0.000273944
0.000280222
0.000286146
0.000291721
0.00029695
0.000301841
0.0003064
0.000310632
0.000314546
0.000318146
0.000321441
0.000324437
0.000327142
0.000329563
0.000331707
0.000333582
0.000335194
0.000336552
0.000337662
0.000338531
0.000339167
0.000339577
0.000339768
0.000339746
0.000339518
0.000339092
0.000338474
0.00033767
0.000336687
0.000335531
0.000334209
0.000332727
0.00033109
0.000329305
0.000327378
0.000325314
0.000323119
0.000320799
0.00031836
0.000315806
0.000313143
0.000310377
0.000307512
0.000304553
0.000301506
0.000298375
0.000295165
0.00029188
0.000288526
0.000285107
0.000281628
0.000278091
0.000274503
0.000270866
0.000267186
0.000263465
0.000259709
0.00025592
0.000252103
0.00024826
0.000244396
0.000240514
0.000236617
0.000232709
0.000228793
0.000224871
0.000220948
0.000217025
0.000213105
0.000209192
0.000205288
0.000201395
0.000197516
0.000193653
0.000189808
0.000185985
0.000182184
0.000178408
0.000174659
0.000170938
0.000167248
0.00016359
0.000159965
0.000156376
0.000152823
0.000149308
0.000145833
0.000142398
0.000139004
0.000135653
0.000132346
0.000129083
0.000125865
0.000122694
0.000119569
0.000116491
0.000113462
0.000110481
0.000107549
0.000104666
0.000101833
9.905e-05
9.63168e-05
9.36339e-05
9.10012e-05
8.84189e-05
8.5887e-05
8.34054e-05
8.09741e-05
7.85929e-05
7.62616e-05
7.39801e-05
7.1748e-05
6.95651e-05
6.74311e-05
6.53456e-05
6.33083e-05
6.13186e-05
5.93762e-05
5.74807e-05
5.56314e-05
5.38279e-05
5.20696e-05
5.03561e-05
4.86866e-05
4.70607e-05
4.54776e-05
4.39368e-05
4.24376e-05
4.09794e-05
3.95615e-05
3.81832e-05
3.68438e-05
3.55427e-05
3.42792e-05
3.30525e-05
3.18619e-05
3.07068e-05
2.95864e-05
2.85e-05
2.74469e-05
2.64264e-05
2.54378e-05
2.44803e-05
2.35532e-05
2.26559e-05
2.17877e-05
2.09478e-05
2.01355e-05
1.93503e-05
1.85913e-05
1.78579e-05
1.71495e-05
1.64654e-05
1.5805e-05
1.51676e-05
1.45526e-05
1.39593e-05
1.33872e-05
1.28356e-05
1.23039e-05
1.17917e-05
1.12982e-05
1.0823e-05
1.03655e-05
9.92506e-06
9.50128e-06
9.09358e-06
8.70147e-06
8.32445e-06
7.96203e-06
7.61374e-06
7.2791e-06
6.95767e-06
6.64901e-06
6.35268e-06
6.06826e-06
5.79534e-06
5.53353e-06
5.28242e-06
5.04165e-06
4.81085e-06
4.58965e-06
4.37771e-06
4.1747e-06
3.98027e-06
3.79412e-06
3.61593e-06
3.44541e-06
3.28226e-06
3.1262e-06
2.97695e-06
2.83427e-06
2.69787e-06
2.56753e-06
2.443e-06
2.32405e-06
2.21045e-06
2.10199e-06
1.99846e-06
1.89966e-06
1.80538e-06
1.71546e-06
1.6297e-06
1.54792e-06
1.46997e-06
1.39568e-06
1.32489e-06
1.25745e-06
1.19321e-06
1.13205e-06
1.07382e-06
1.01839e-06
9.65644e-07
9.1546e-07
8.67723e-07
8.22324e-07
7.79157e-07
7.38121e-07
6.99118e-07
6.62056e-07
6.26846e-07
5.93401e-07
5.61639e-07
5.31482e-07
5.02855e-07
4.75685e-07
4.49904e-07
4.25445e-07
4.02244e-07
3.80243e-07
3.59382e-07
3.39606e-07
3.20863e-07
3.03102e-07
2.86275e-07
2.70336e-07
2.5524e-07
2.40947e-07
2.27415e-07
2.14607e-07
2.02487e-07
1.91018e-07
1.8017e-07
1.69909e-07
1.60205e-07
1.51031e-07
1.42359e-07
1.34163e-07
1.26417e-07
1.191e-07
1.12188e-07
1.05659e-07
9.94949e-08
9.36751e-08
8.81814e-08
8.29967e-08
7.81043e-08
7.34886e-08
6.91347e-08
6.50285e-08
6.11565e-08
5.7506e-08
5.40649e-08
5.08218e-08
4.77658e-08
4.48866e-08
4.21744e-08
3.96199e-08
3.72145e-08
3.49497e-08
3.28177e-08
3.08111e-08
2.89227e-08
2.7146e-08
2.54745e-08
2.39023e-08
2.24238e-08
2.10336e-08
1.97266e-08
1.84981e-08
1.73435e-08
1.62585e-08
1.52391e-08
1.42816e-08
1.33822e-08
1.25376e-08
1.17446e-08
1.10001e-08
1.03013e-08
9.64553e-09
9.03016e-09
8.45281e-09
7.91123e-09
7.40328e-09
6.92694e-09
6.48031e-09
6.0616e-09
5.66913e-09
5.30132e-09
4.95666e-09
4.63374e-09
4.33124e-09
4.04792e-09
3.78259e-09
3.53415e-09
3.30156e-09
3.08384e-09
2.88007e-09
2.68939e-09
2.51099e-09
2.34409e-09
2.18797e-09
2.04198e-09
1.90545e-09
1.77781e-09
1.6585e-09
1.54698e-09
1.44276e-09
1.34537e-09
1.2544e-09
1.16941e-09
1.09004e-09
1.01593e-09
9.46726e-10
8.82125e-10
8.21827e-10
7.65554e-10
7.13047e-10
6.64061e-10
6.18368e-10
5.75754e-10
5.36017e-10
4.98971e-10
4.64438e-10
4.32256e-10
4.02269e-10
3.74334e-10
3.48316e-10
3.24089e-10
3.01534e-10
2.80543e-10
2.61011e-10
2.42844e-10
2.2595e-10
2.10247e-10
1.95656e-10
1.82104e-10
1.69523e-10
1.5785e-10
1.47026e-10
1.36997e-10
1.2771e-10
1.19119e-10
1.11179e-10
1.03851e-10
9.70956e-11
9.08784e-11
8.51672e-11
7.99322e-11
7.51462e-11
7.07842e-11
6.68233e-11
6.32427e-11
6.00235e-11
5.71489e-11
5.46035e-11
5.23739e-11
5.04483e-11
4.88165e-11
4.74698e-11
4.64009e-11
4.56042e-11
4.50752e-11
4.48115e-11
6.87209e-06
2.05974e-05
3.42664e-05
4.78435e-05
6.12952e-05
7.45902e-05
8.76995e-05
0.000100597
0.000113257
0.00012566
0.000137784
0.000149613
0.000161131
0.000172325
0.000183182
0.000193693
0.00020385
0.000213646
0.000223077
0.000232138
0.000240828
0.000249145
0.000257089
0.00026466
0.000271862
0.000278696
0.000285166
0.000291276
0.00029703
0.000302434
0.000307492
0.000312211
0.000316597
0.000320657
0.000324397
0.000327823
0.000330944
0.000333766
0.000336297
0.000338543
0.000340513
0.000342213
0.00034365
0.000344833
0.000345768
0.000346463
0.000346925
0.000347161
0.000347177
0.000346982
0.000346582
0.000345983
0.000345193
0.000344219
0.000343066
0.000341741
0.00034025
0.000338601
0.000336798
0.000334848
0.000332758
0.000330532
0.000328177
0.000325698
0.000323101
0.000320392
0.000317575
0.000314657
0.000311642
0.000308535
0.000305342
0.000302067
0.000298716
0.000295292
0.000291801
0.000288248
0.000284636
0.000280969
0.000277254
0.000273492
0.00026969
0.000265849
0.000261976
0.000258073
0.000254143
0.000250192
0.000246221
0.000242235
0.000238238
0.000234231
0.000230219
0.000226205
0.000222191
0.00021818
0.000214176
0.00021018
0.000206196
0.000202226
0.000198273
0.000194338
0.000190424
0.000186534
0.000182669
0.000178831
0.000175023
0.000171245
0.0001675
0.00016379
0.000160115
0.000156478
0.00015288
0.000149322
0.000145805
0.000142331
0.0001389
0.000135514
0.000132173
0.000128879
0.000125632
0.000122432
0.000119282
0.00011618
0.000113128
0.000110126
0.000107174
0.000104273
0.000101423
9.86249e-05
9.58778e-05
9.31821e-05
9.05381e-05
8.79456e-05
8.54046e-05
8.29151e-05
8.04769e-05
7.80898e-05
7.57536e-05
7.34681e-05
7.12329e-05
6.90478e-05
6.69124e-05
6.48262e-05
6.27889e-05
6.08e-05
5.8859e-05
5.69654e-05
5.51187e-05
5.33183e-05
5.15637e-05
4.98542e-05
4.81892e-05
4.65682e-05
4.49905e-05
4.34554e-05
4.19622e-05
4.05103e-05
3.90989e-05
3.77275e-05
3.63952e-05
3.51013e-05
3.38452e-05
3.26261e-05
3.14433e-05
3.0296e-05
2.91836e-05
2.81052e-05
2.70602e-05
2.60479e-05
2.50674e-05
2.41182e-05
2.31993e-05
2.23103e-05
2.14502e-05
2.06185e-05
1.98144e-05
1.90372e-05
1.82863e-05
1.75609e-05
1.68604e-05
1.61841e-05
1.55314e-05
1.49016e-05
1.42941e-05
1.37083e-05
1.31435e-05
1.25991e-05
1.20745e-05
1.15692e-05
1.10826e-05
1.06141e-05
1.01631e-05
9.72918e-06
9.31171e-06
8.91019e-06
8.52413e-06
8.15302e-06
7.79637e-06
7.4537e-06
7.12457e-06
6.8085e-06
6.50506e-06
6.21382e-06
5.93436e-06
5.66626e-06
5.40913e-06
5.16259e-06
4.92625e-06
4.69974e-06
4.48272e-06
4.27483e-06
4.07575e-06
3.88513e-06
3.70267e-06
3.52805e-06
3.36099e-06
3.20118e-06
3.04836e-06
2.90225e-06
2.76259e-06
2.62912e-06
2.5016e-06
2.37979e-06
2.26347e-06
2.15241e-06
2.0464e-06
1.94522e-06
1.84869e-06
1.75661e-06
1.66879e-06
1.58505e-06
1.50523e-06
1.42916e-06
1.35667e-06
1.28761e-06
1.22183e-06
1.1592e-06
1.09957e-06
1.04282e-06
9.88807e-07
9.37419e-07
8.88537e-07
8.42049e-07
7.97846e-07
7.55825e-07
7.15887e-07
6.77937e-07
6.41881e-07
6.07634e-07
5.75111e-07
5.44231e-07
5.14917e-07
4.87095e-07
4.60695e-07
4.35649e-07
4.11893e-07
3.89363e-07
3.68002e-07
3.47752e-07
3.28559e-07
3.10372e-07
2.93142e-07
2.7682e-07
2.61363e-07
2.46726e-07
2.3287e-07
2.19755e-07
2.07344e-07
1.956e-07
1.84491e-07
1.73984e-07
1.64048e-07
1.54654e-07
1.45774e-07
1.37381e-07
1.2945e-07
1.21957e-07
1.14879e-07
1.08194e-07
1.01881e-07
9.59219e-08
9.02965e-08
8.49874e-08
7.99777e-08
7.52513e-08
7.0793e-08
6.65882e-08
6.26234e-08
5.88853e-08
5.53617e-08
5.20408e-08
4.89115e-08
4.59632e-08
4.3186e-08
4.05702e-08
3.81071e-08
3.5788e-08
3.36048e-08
3.15501e-08
2.96164e-08
2.77971e-08
2.60855e-08
2.44757e-08
2.29617e-08
2.15381e-08
2.01998e-08
1.89418e-08
1.77595e-08
1.66485e-08
1.56047e-08
1.46241e-08
1.37032e-08
1.28383e-08
1.20263e-08
1.1264e-08
1.05484e-08
9.87688e-09
9.24675e-09
8.65556e-09
8.10099e-09
7.58085e-09
7.09308e-09
6.63574e-09
6.20699e-09
5.80511e-09
5.42847e-09
5.07554e-09
4.74488e-09
4.43513e-09
4.14501e-09
3.87331e-09
3.61891e-09
3.38075e-09
3.15781e-09
2.94915e-09
2.7539e-09
2.57121e-09
2.40031e-09
2.24045e-09
2.09095e-09
1.95116e-09
1.82046e-09
1.69828e-09
1.58408e-09
1.47736e-09
1.37764e-09
1.28448e-09
1.19746e-09
1.11619e-09
1.04029e-09
9.69434e-10
9.03283e-10
8.41538e-10
7.83916e-10
7.3015e-10
6.79989e-10
6.332e-10
5.89563e-10
5.48873e-10
5.10938e-10
4.75578e-10
4.42623e-10
4.11918e-10
3.83313e-10
3.5667e-10
3.31862e-10
3.08767e-10
2.87272e-10
2.67272e-10
2.48668e-10
2.3137e-10
2.1529e-10
2.00348e-10
1.86471e-10
1.73589e-10
1.61636e-10
1.50553e-10
1.40282e-10
1.30773e-10
1.21976e-10
1.13846e-10
1.06342e-10
9.94244e-11
9.30581e-11
8.72098e-11
8.18493e-11
7.69485e-11
7.24819e-11
6.8426e-11
6.47595e-11
6.14631e-11
5.85195e-11
5.59131e-11
5.36301e-11
5.16583e-11
4.99874e-11
4.86084e-11
4.75139e-11
4.66981e-11
4.61564e-11
4.58863e-11
6.92833e-06
2.07672e-05
3.45529e-05
4.82514e-05
6.18301e-05
7.52582e-05
8.85072e-05
0.00010155
0.000114363
0.000126924
0.000139212
0.00015121
0.0001629
0.00017427
0.000185306
0.000195999
0.000206339
0.000216319
0.000225933
0.000235178
0.00024405
0.000252548
0.00026067
0.000268418
0.000275792
0.000282794
0.000289428
0.000295698
0.000301606
0.000307159
0.000312362
0.000317219
0.000321738
0.000325924
0.000329784
0.000333324
0.000336553
0.000339476
0.000342101
0.000344436
0.000346487
0.000348262
0.000349769
0.000351015
0.000352007
0.000352753
0.00035326
0.000353535
0.000353585
0.000353418
0.00035304
0.000352459
0.000351682
0.000350714
0.000349564
0.000348237
0.00034674
0.000345079
0.000343261
0.000341293
0.000339179
0.000336927
0.000334541
0.000332029
0.000329395
0.000326646
0.000323786
0.000320822
0.000317758
0.000314601
0.000311354
0.000308024
0.000304614
0.000301131
0.000297578
0.00029396
0.000290283
0.00028655
0.000282766
0.000278935
0.000275061
0.000271149
0.000267202
0.000263225
0.000259221
0.000255193
0.000251147
0.000247084
0.000243009
0.000238925
0.000234835
0.000230742
0.000226649
0.00022256
0.000218477
0.000214403
0.00021034
0.000206292
0.00020226
0.000198248
0.000194256
0.000190289
0.000186347
0.000182433
0.000178548
0.000174695
0.000170876
0.000167091
0.000163343
0.000159633
0.000155963
0.000152334
0.000148746
0.000145202
0.000141703
0.000138248
0.000134841
0.00013148
0.000128168
0.000124904
0.00012169
0.000118526
0.000115412
0.00011235
0.000109339
0.000106379
0.000103472
0.000100617
9.78147e-05
9.50647e-05
9.23673e-05
8.97225e-05
8.71303e-05
8.45905e-05
8.21031e-05
7.96678e-05
7.72845e-05
7.49528e-05
7.26726e-05
7.04433e-05
6.82648e-05
6.61365e-05
6.4058e-05
6.20289e-05
6.00487e-05
5.81169e-05
5.62329e-05
5.43961e-05
5.2606e-05
5.0862e-05
4.91634e-05
4.75096e-05
4.59e-05
4.43339e-05
4.28105e-05
4.13293e-05
3.98894e-05
3.84902e-05
3.7131e-05
3.5811e-05
3.45295e-05
3.32857e-05
3.2079e-05
3.09086e-05
2.97736e-05
2.86735e-05
2.76074e-05
2.65745e-05
2.55743e-05
2.46058e-05
2.36684e-05
2.27614e-05
2.18839e-05
2.10354e-05
2.0215e-05
1.94221e-05
1.8656e-05
1.7916e-05
1.72013e-05
1.65114e-05
1.58454e-05
1.52029e-05
1.45831e-05
1.39854e-05
1.34092e-05
1.28538e-05
1.23187e-05
1.18032e-05
1.13067e-05
1.08287e-05
1.03686e-05
9.9259e-06
9.49999e-06
9.09036e-06
8.69649e-06
8.31787e-06
7.95401e-06
7.60442e-06
7.26862e-06
6.94617e-06
6.63659e-06
6.33946e-06
6.05435e-06
5.78083e-06
5.51851e-06
5.26698e-06
5.02586e-06
4.79477e-06
4.57336e-06
4.36127e-06
4.15816e-06
3.96369e-06
3.77753e-06
3.59939e-06
3.42895e-06
3.26591e-06
3.11e-06
2.96093e-06
2.81845e-06
2.68228e-06
2.55218e-06
2.42791e-06
2.30924e-06
2.19593e-06
2.08777e-06
1.98455e-06
1.88607e-06
1.79213e-06
1.70253e-06
1.6171e-06
1.53567e-06
1.45805e-06
1.3841e-06
1.31364e-06
1.24654e-06
1.18264e-06
1.12181e-06
1.0639e-06
1.0088e-06
9.56373e-07
9.06503e-07
8.59074e-07
8.13978e-07
7.71108e-07
7.30362e-07
6.91644e-07
6.5486e-07
6.1992e-07
5.86739e-07
5.55235e-07
5.25328e-07
4.96944e-07
4.7001e-07
4.44458e-07
4.20221e-07
3.97236e-07
3.75443e-07
3.54783e-07
3.35203e-07
3.16648e-07
2.99069e-07
2.82417e-07
2.66647e-07
2.51715e-07
2.37579e-07
2.24198e-07
2.11536e-07
1.99555e-07
1.88221e-07
1.77502e-07
1.67365e-07
1.57781e-07
1.48721e-07
1.40158e-07
1.32067e-07
1.24422e-07
1.17201e-07
1.10381e-07
1.03941e-07
9.78614e-08
9.21222e-08
8.67058e-08
8.15947e-08
7.67728e-08
7.22243e-08
6.79346e-08
6.38895e-08
6.00759e-08
5.6481e-08
5.3093e-08
4.99004e-08
4.68925e-08
4.40591e-08
4.13905e-08
3.88776e-08
3.65116e-08
3.42843e-08
3.2188e-08
3.02152e-08
2.83591e-08
2.66129e-08
2.49705e-08
2.34259e-08
2.19736e-08
2.06082e-08
1.93248e-08
1.81185e-08
1.69851e-08
1.59202e-08
1.49198e-08
1.39802e-08
1.30979e-08
1.22694e-08
1.14917e-08
1.07617e-08
1.00766e-08
9.4337e-09
8.83056e-09
8.26478e-09
7.73412e-09
7.23649e-09
6.7699e-09
6.33249e-09
5.92248e-09
5.53823e-09
5.17816e-09
4.84081e-09
4.5248e-09
4.22881e-09
3.95162e-09
3.69208e-09
3.4491e-09
3.22165e-09
3.00878e-09
2.80958e-09
2.6232e-09
2.44884e-09
2.28575e-09
2.13323e-09
1.99061e-09
1.85726e-09
1.73261e-09
1.61611e-09
1.50723e-09
1.4055e-09
1.31045e-09
1.22167e-09
1.13876e-09
1.06133e-09
9.89034e-10
9.21545e-10
8.58552e-10
7.99765e-10
7.44912e-10
6.93737e-10
6.46002e-10
6.01483e-10
5.5997e-10
5.21268e-10
4.85193e-10
4.51572e-10
4.20246e-10
3.91062e-10
3.63881e-10
3.38571e-10
3.15009e-10
2.9308e-10
2.72675e-10
2.53696e-10
2.36047e-10
2.19642e-10
2.04399e-10
1.90241e-10
1.77099e-10
1.64904e-10
1.53597e-10
1.43119e-10
1.33417e-10
1.24442e-10
1.16148e-10
1.08492e-10
1.01434e-10
9.49394e-11
8.8973e-11
8.35041e-11
7.85042e-11
7.39473e-11
6.98094e-11
6.60687e-11
6.27057e-11
5.97026e-11
5.70435e-11
5.47143e-11
5.27027e-11
5.0998e-11
4.95912e-11
4.84746e-11
4.76423e-11
4.70897e-11
4.68141e-11
6.97682e-06
2.09134e-05
3.47991e-05
4.8601e-05
6.22872e-05
7.58276e-05
8.9194e-05
0.00010236
0.0001153
0.000127993
0.000140417
0.000152555
0.00016439
0.000175906
0.000187092
0.000197936
0.000208428
0.000218562
0.00022833
0.000237727
0.000246751
0.0002554
0.000263671
0.000271565
0.000279082
0.000286226
0.000292997
0.0002994
0.000305438
0.000311116
0.000316439
0.000321412
0.000326041
0.000330333
0.000334293
0.000337929
0.000341248
0.000344256
0.00034696
0.000349369
0.000351489
0.000353328
0.000354893
0.000356192
0.000357232
0.00035802
0.000358565
0.000358873
0.000358951
0.000358808
0.000358449
0.000357883
0.000357116
0.000356155
0.000355007
0.000353678
0.000352176
0.000350506
0.000348676
0.000346692
0.000344559
0.000342284
0.000339874
0.000337333
0.000334669
0.000331886
0.00032899
0.000325988
0.000322884
0.000319683
0.000316392
0.000313015
0.000309557
0.000306023
0.000302418
0.000298748
0.000295015
0.000291226
0.000287385
0.000283496
0.000279563
0.00027559
0.000271582
0.000267543
0.000263476
0.000259385
0.000255275
0.000251148
0.000247008
0.000242859
0.000238703
0.000234545
0.000230386
0.000226231
0.000222082
0.000217942
0.000213814
0.0002097
0.000205603
0.000201525
0.000197468
0.000193436
0.00018943
0.000185451
0.000181503
0.000177587
0.000173705
0.000169858
0.000166049
0.000162278
0.000158547
0.000154858
0.000151212
0.000147609
0.000144052
0.000140541
0.000137077
0.000133661
0.000130294
0.000126976
0.000123709
0.000120492
0.000117327
0.000114214
0.000111153
0.000108145
0.000105189
0.000102287
9.94382e-05
9.66427e-05
9.39006e-05
9.1212e-05
8.85768e-05
8.59949e-05
8.34663e-05
8.09906e-05
7.85678e-05
7.61975e-05
7.38794e-05
7.16131e-05
6.93984e-05
6.72348e-05
6.51219e-05
6.30591e-05
6.1046e-05
5.90821e-05
5.71668e-05
5.52996e-05
5.34798e-05
5.17068e-05
4.998e-05
4.82988e-05
4.66625e-05
4.50703e-05
4.35217e-05
4.20158e-05
4.0552e-05
3.91296e-05
3.77478e-05
3.64059e-05
3.51031e-05
3.38387e-05
3.26119e-05
3.1422e-05
3.02682e-05
2.91498e-05
2.8066e-05
2.7016e-05
2.59991e-05
2.50146e-05
2.40616e-05
2.31395e-05
2.22475e-05
2.13849e-05
2.05509e-05
1.97448e-05
1.8966e-05
1.82136e-05
1.74871e-05
1.67857e-05
1.61087e-05
1.54555e-05
1.48254e-05
1.42178e-05
1.3632e-05
1.30674e-05
1.25233e-05
1.19993e-05
1.14945e-05
1.10086e-05
1.05409e-05
1.00908e-05
9.65782e-06
9.24138e-06
8.84097e-06
8.45606e-06
8.08615e-06
7.73076e-06
7.38938e-06
7.06157e-06
6.74685e-06
6.44479e-06
6.15493e-06
5.87687e-06
5.61019e-06
5.35448e-06
5.10935e-06
4.87443e-06
4.64934e-06
4.43373e-06
4.22724e-06
4.02954e-06
3.84029e-06
3.65919e-06
3.48591e-06
3.32017e-06
3.16167e-06
3.01013e-06
2.86527e-06
2.72684e-06
2.59458e-06
2.46825e-06
2.3476e-06
2.23241e-06
2.12246e-06
2.01752e-06
1.9174e-06
1.8219e-06
1.73082e-06
1.64397e-06
1.56118e-06
1.48228e-06
1.40709e-06
1.33547e-06
1.26725e-06
1.20229e-06
1.14044e-06
1.08158e-06
1.02556e-06
9.72262e-07
9.21563e-07
8.73347e-07
8.27501e-07
7.83919e-07
7.42496e-07
7.03135e-07
6.65739e-07
6.30219e-07
5.96487e-07
5.64459e-07
5.34055e-07
5.052e-07
4.77819e-07
4.51842e-07
4.27202e-07
4.03835e-07
3.8168e-07
3.60677e-07
3.40771e-07
3.21908e-07
3.04037e-07
2.87109e-07
2.71077e-07
2.55897e-07
2.41526e-07
2.27923e-07
2.1505e-07
2.0287e-07
1.91348e-07
1.80451e-07
1.70145e-07
1.60402e-07
1.51192e-07
1.42487e-07
1.34261e-07
1.26489e-07
1.19148e-07
1.12215e-07
1.05668e-07
9.94872e-08
9.36527e-08
8.81462e-08
8.29503e-08
7.80482e-08
7.34242e-08
6.90632e-08
6.49509e-08
6.10739e-08
5.74194e-08
5.39751e-08
5.07294e-08
4.76716e-08
4.47911e-08
4.20781e-08
3.95234e-08
3.71181e-08
3.48539e-08
3.27227e-08
3.07172e-08
2.88302e-08
2.70551e-08
2.53854e-08
2.38151e-08
2.23386e-08
2.09506e-08
1.96458e-08
1.84195e-08
1.72672e-08
1.61846e-08
1.51677e-08
1.42125e-08
1.33155e-08
1.24733e-08
1.16826e-08
1.09405e-08
1.0244e-08
9.59043e-09
8.97726e-09
8.40208e-09
7.86261e-09
7.35671e-09
6.88237e-09
6.43769e-09
6.02087e-09
5.63023e-09
5.26419e-09
4.92123e-09
4.59997e-09
4.29906e-09
4.01727e-09
3.75342e-09
3.5064e-09
3.27517e-09
3.05876e-09
2.85625e-09
2.66678e-09
2.48952e-09
2.32372e-09
2.16867e-09
2.02367e-09
1.88812e-09
1.7614e-09
1.64295e-09
1.53227e-09
1.42885e-09
1.33222e-09
1.24197e-09
1.15767e-09
1.07896e-09
1.00546e-09
9.36854e-10
8.72815e-10
8.13052e-10
7.57287e-10
7.05262e-10
6.56734e-10
6.11475e-10
5.69273e-10
5.29928e-10
4.93253e-10
4.59074e-10
4.27227e-10
3.97559e-10
3.69926e-10
3.44196e-10
3.20242e-10
2.97948e-10
2.77205e-10
2.5791e-10
2.39969e-10
2.23291e-10
2.07795e-10
1.93402e-10
1.80041e-10
1.67644e-10
1.56148e-10
1.45496e-10
1.35633e-10
1.26509e-10
1.18077e-10
1.10294e-10
1.0312e-10
9.65166e-11
9.0451e-11
8.48913e-11
7.98084e-11
7.51757e-11
7.0969e-11
6.71663e-11
6.37474e-11
6.06944e-11
5.79911e-11
5.56233e-11
5.35783e-11
5.18452e-11
5.0415e-11
4.92799e-11
4.84338e-11
4.7872e-11
4.75919e-11
7.01661e-06
2.10333e-05
3.50007e-05
4.88867e-05
6.26601e-05
7.62913e-05
8.97522e-05
0.000103016
0.000116059
0.000128858
0.000141392
0.000153642
0.000165592
0.000177226
0.000188531
0.000199495
0.00021011
0.000220366
0.000230257
0.000239777
0.000248923
0.000257691
0.000266082
0.000274093
0.000281726
0.000288982
0.000295863
0.000302373
0.000308515
0.000314293
0.000319712
0.000324778
0.000329497
0.000333873
0.000337914
0.000341627
0.000345018
0.000348094
0.000350862
0.00035333
0.000355506
0.000357395
0.000359007
0.000360349
0.000361427
0.000362251
0.000362826
0.00036316
0.000363262
0.000363137
0.000362795
0.00036224
0.000361482
0.000360526
0.000359379
0.00035805
0.000356543
0.000354867
0.000353026
0.000351029
0.000348881
0.000346589
0.000344158
0.000341595
0.000338906
0.000336097
0.000333172
0.000330139