/*--------------------------------*- C++ -*----------------------------------*\
  =========                 |
  \\      /  F ield         | OpenFOAM: The Open Source CFD Toolbox
   \\    /   O peration     | Website:  https://openfoam.org
    \\  /    A nd           | Version:  10
     \\/     M anipulation  |
\*---------------------------------------------------------------------------*/
FoamFile
{
    format      ascii;
    class       volScalarField;
    location    "0.14";
    object      beta;
}
// * * * * * * * * * * * * * * * * * * * * * * * * * * * * * * * * * * * * * //

dimensions      [0 0 0 0 0 0 0];

internalField   uniform 0;

boundaryField
{
    frontAndBack
    {
        type            empty;
    }
    inlet
    {
        type            calculated;
        value           uniform 0;
    }
    outlet
    {
        type            calculated;
        value           uniform 0;
    }
    substrate
    {
        type            calculated;
        value           nonuniform List<scalar> 
400
(
0.00269616
0.00293534
0.00316382
0.0033868
0.00360662
0.00382435
0.00404042
0.0042549
0.00446765
0.00467841
0.00488684
0.00509259
0.00529527
0.00549451
0.00568995
0.00588124
0.00606809
0.00625021
0.00642737
0.00659936
0.00676603
0.00692724
0.00708289
0.00723294
0.00737734
0.00751609
0.00764923
0.0077768
0.00789887
0.00801553
0.00812688
0.00823305
0.00833416
0.00843036
0.00852179
0.0086086
0.00869096
0.00876903
0.00884296
0.00891294
0.00897911
0.00904164
0.00910069
0.00915642
0.00920899
0.00925853
0.00930521
0.00934917
0.00939054
0.00942945
0.00946603
0.00950042
0.00953272
0.00956305
0.00959152
0.00961823
0.00964329
0.00966678
0.0096888
0.00970943
0.00972876
0.00974686
0.0097638
0.00977965
0.00979449
0.00980836
0.00982134
0.00983347
0.0098448
0.0098554
0.00986529
0.00987453
0.00988316
0.00989122
0.00989874
0.00990576
0.00991231
0.00991841
0.00992411
0.00992942
0.00993437
0.00993898
0.00994328
0.00994729
0.00995102
0.0099545
0.00995773
0.00996074
0.00996355
0.00996616
0.00996859
0.00997085
0.00997295
0.0099749
0.00997672
0.00997841
0.00997998
0.00998144
0.0099828
0.00998405
0.00998523
0.00998631
0.00998732
0.00998826
0.00998913
0.00998993
0.00999068
0.00999138
0.00999202
0.00999262
0.00999317
0.00999369
0.00999416
0.0099946
0.00999501
0.00999539
0.00999574
0.00999607
0.00999637
0.00999665
0.0099969
0.00999714
0.00999736
0.00999757
0.00999775
0.00999793
0.00999809
0.00999824
0.00999838
0.0099985
0.00999862
0.00999873
0.00999883
0.00999892
0.00999901
0.00999909
0.00999916
0.00999923
0.00999929
0.00999935
0.0099994
0.00999945
0.00999949
0.00999953
0.00999957
0.00999961
0.00999964
0.00999967
0.0099997
0.00999972
0.00999974
0.00999976
0.00999978
0.0099998
0.00999982
0.00999983
0.00999985
0.00999986
0.00999987
0.00999988
0.00999989
0.0099999
0.00999991
0.00999992
0.00999992
0.00999993
0.00999994
0.00999994
0.00999995
0.00999995
0.00999996
0.00999996
0.00999996
0.00999997
0.00999997
0.00999997
0.00999997
0.00999998
0.00999998
0.00999998
0.00999998
0.00999998
0.00999999
0.00999999
0.00999999
0.00999999
0.00999999
0.00999999
0.00999999
0.00999999
0.00999999
0.00999999
0.00999999
0.00999999
0.01
0.01
0.01
0.01
0.01
0.01
0.01
0.01
0.01
0.01
0.01
0.01
0.01
0.01
0.01
0.01
0.01
0.01
0.01
0.01
0.01
0.01
0.01
0.01
0.01
0.01
0.01
0.01
0.01
0.01
0.01
0.01
0.01
0.01
0.01
0.01
0.01
0.01
0.01
0.01
0.01
0.01
0.01
0.01
0.01
0.01
0.01
0.01
0.01
0.01
0.01
0.01
0.01
0.01
0.01
0.01
0.01
0.01
0.01
0.01
0.01
0.01
0.01
0.01
0.01
0.01
0.01
0.01
0.01
0.01
0.01
0.01
0.01
0.01
0.01
0.01
0.01
0.01
0.01
0.01
0.01
0.01
0.01
0.01
0.01
0.01
0.01
0.01
0.01
0.01
0.01
0.01
0.01
0.01
0.01
0.01
0.01
0.01
0.01
0.01
0.01
0.01
0.01
0.01
0.01
0.01
0.01
0.01
0.01
0.01
0.01
0.01
0.01
0.01
0.01
0.01
0.01
0.01
0.01
0.01
0.01
0.01
0.01
0.01
0.01
0.01
0.01
0.01
0.01
0.01
0.01
0.01
0.01
0.01
0.01
0.01
0.01
0.01
0.01
0.01
0.01
0.01
0.01
0.01
0.01
0.01
0.01
0.01
0.01
0.01
0.01
0.01
0.01
0.01
0.01
0.01
0.01
0.01
0.01
0.01
0.01
0.01
0.01
0.01
0.01
0.01
0.01
0.01
0.01
0.01
0.01
0.01
0.01
0.01
0.01
0.01
0.01
0.01
0.01
0.01
0.01
0.01
0.01
0.01
0.01
0.01
0.01
0.01
0.01
0.01
0.01
0.01
0.01
0.01
0.01
0.01
0.01
0.01
0.01
0.01
0.01
0.01
0.01
0.01
0.01
0.01
)
;
    }
    Wall
    {
        type            calculated;
        value           nonuniform List<scalar> 
400
(
0.00269616
0.00293534
0.00316382
0.00338679
0.00360662
0.00382435
0.00404043
0.00425491
0.00446765
0.00467841
0.00488684
0.00509258
0.00529526
0.0054945
0.00568993
0.00588122
0.00606806
0.00625018
0.00642734
0.00659933
0.00676599
0.00692719
0.00708285
0.00723289
0.00737728
0.00751604
0.00764917
0.00777674
0.00789881
0.00801547
0.00812682
0.00823299
0.0083341
0.00843029
0.00852172
0.00860854
0.0086909
0.00876896
0.0088429
0.00891288
0.00897905
0.00904158
0.00910063
0.00915636
0.00920893
0.00925848
0.00930516
0.00934912
0.00939049
0.0094294
0.00946599
0.00950037
0.00953268
0.00956301
0.00959148
0.0096182
0.00964325
0.00966675
0.00968877
0.0097094
0.00972873
0.00974683
0.00976377
0.00977963
0.00979446
0.00980834
0.00982131
0.00983344
0.00984478
0.00985538
0.00986527
0.00987452
0.00988315
0.00989121
0.00989873
0.00990574
0.00991229
0.0099184
0.0099241
0.00992941
0.00993436
0.00993897
0.00994327
0.00994728
0.00995101
0.00995449
0.00995772
0.00996074
0.00996354
0.00996615
0.00996858
0.00997084
0.00997294
0.0099749
0.00997672
0.00997841
0.00997998
0.00998144
0.00998279
0.00998405
0.00998522
0.00998631
0.00998732
0.00998826
0.00998912
0.00998993
0.00999068
0.00999138
0.00999202
0.00999262
0.00999317
0.00999369
0.00999416
0.0099946
0.00999501
0.00999539
0.00999574
0.00999607
0.00999637
0.00999664
0.0099969
0.00999714
0.00999736
0.00999757
0.00999775
0.00999793
0.00999809
0.00999824
0.00999838
0.0099985
0.00999862
0.00999873
0.00999883
0.00999892
0.00999901
0.00999909
0.00999916
0.00999923
0.00999929
0.00999935
0.0099994
0.00999945
0.00999949
0.00999953
0.00999957
0.00999961
0.00999964
0.00999967
0.0099997
0.00999972
0.00999974
0.00999976
0.00999978
0.0099998
0.00999982
0.00999983
0.00999985
0.00999986
0.00999987
0.00999988
0.00999989
0.0099999
0.00999991
0.00999992
0.00999992
0.00999993
0.00999994
0.00999994
0.00999995
0.00999995
0.00999996
0.00999996
0.00999996
0.00999997
0.00999997
0.00999997
0.00999997
0.00999998
0.00999998
0.00999998
0.00999998
0.00999998
0.00999999
0.00999999
0.00999999
0.00999999
0.00999999
0.00999999
0.00999999
0.00999999
0.00999999
0.00999999
0.00999999
0.00999999
0.01
0.01
0.01
0.01
0.01
0.01
0.01
0.01
0.01
0.01
0.01
0.01
0.01
0.01
0.01
0.01
0.01
0.01
0.01
0.01
0.01
0.01
0.01
0.01
0.01
0.01
0.01
0.01
0.01
0.01
0.01
0.01
0.01
0.01
0.01
0.01
0.01
0.01
0.01
0.01
0.01
0.01
0.01
0.01
0.01
0.01
0.01
0.01
0.01
0.01
0.01
0.01
0.01
0.01
0.01
0.01
0.01
0.01
0.01
0.01
0.01
0.01
0.01
0.01
0.01
0.01
0.01
0.01
0.01
0.01
0.01
0.01
0.01
0.01
0.01
0.01
0.01
0.01
0.01
0.01
0.01
0.01
0.01
0.01
0.01
0.01
0.01
0.01
0.01
0.01
0.01
0.01
0.01
0.01
0.01
0.01
0.01
0.01
0.01
0.01
0.01
0.01
0.01
0.01
0.01
0.01
0.01
0.01
0.01
0.01
0.01
0.01
0.01
0.01
0.01
0.01
0.01
0.01
0.01
0.01
0.01
0.01
0.01
0.01
0.01
0.01
0.01
0.01
0.01
0.01
0.01
0.01
0.01
0.01
0.01
0.01
0.01
0.01
0.01
0.01
0.01
0.01
0.01
0.01
0.01
0.01
0.01
0.01
0.01
0.01
0.01
0.01
0.01
0.01
0.01
0.01
0.01
0.01
0.01
0.01
0.01
0.01
0.01
0.01
0.01
0.01
0.01
0.01
0.01
0.01
0.01
0.01
0.01
0.01
0.01
0.01
0.01
0.01
0.01
0.01
0.01
0.01
0.01
0.01
0.01
0.01
0.01
0.01
0.01
0.01
0.01
0.01
0.01
0.01
0.01
0.01
0.01
0.01
0.01
0.01
0.01
0.01
0.01
0.01
0.01
0.01
)
;
    }
}


// ************************************************************************* //
