/*--------------------------------*- C++ -*----------------------------------*\
  =========                 |
  \\      /  F ield         | OpenFOAM: The Open Source CFD Toolbox
   \\    /   O peration     | Website:  https://openfoam.org
    \\  /    A nd           | Version:  10
     \\/     M anipulation  |
\*---------------------------------------------------------------------------*/
FoamFile
{
    format      ascii;
    class       volScalarField;
    location    "0.14";
    object      cov;
}
// * * * * * * * * * * * * * * * * * * * * * * * * * * * * * * * * * * * * * //

dimensions      [0 0 0 0 0 0 0];

internalField   uniform 0;

boundaryField
{
    frontAndBack
    {
        type            empty;
    }
    inlet
    {
        type            calculated;
        value           uniform 0;
    }
    outlet
    {
        type            calculated;
        value           uniform 0;
    }
    substrate
    {
        type            calculated;
        value           nonuniform List<scalar> 
400
(
0.730384
0.706466
0.683618
0.66132
0.639338
0.617565
0.595958
0.57451
0.553235
0.532159
0.511316
0.490741
0.470473
0.450549
0.431005
0.411876
0.393191
0.374979
0.357263
0.340064
0.323397
0.307276
0.291711
0.276706
0.262266
0.248391
0.235077
0.22232
0.210113
0.198447
0.187312
0.176695
0.166584
0.156964
0.147821
0.13914
0.130904
0.123097
0.115704
0.108706
0.102089
0.0958362
0.089931
0.0843579
0.0791015
0.0741466
0.0694785
0.0650831
0.0609464
0.0570552
0.0533965
0.0499581
0.046728
0.0436949
0.0408479
0.0381766
0.035671
0.0333218
0.0311198
0.0290566
0.027124
0.0253143
0.0236202
0.0220347
0.0205513
0.0191638
0.0178664
0.0166534
0.0155198
0.0144604
0.0134708
0.0125466
0.0116835
0.0108778
0.0101258
0.00942403
0.00876932
0.00815862
0.00758909
0.00705806
0.00656302
0.00610163
0.00567167
0.00527109
0.00489794
0.00455041
0.00422681
0.00392553
0.0036451
0.00338411
0.00314126
0.00291533
0.00270518
0.00250974
0.00232801
0.00215906
0.00200203
0.00185609
0.00172048
0.0015945
0.00147748
0.00136881
0.00126791
0.00117423
0.00108728
0.00100659
0.000931713
0.000862252
0.000797825
0.000738077
0.000682678
0.000631321
0.000583719
0.000539606
0.000498734
0.000460871
0.000425803
0.000393329
0.000363262
0.00033543
0.000309671
0.000285835
0.000263783
0.000243385
0.000224521
0.000207078
0.000190953
0.000176049
0.000162277
0.000149551
0.000137797
0.000126941
0.000116916
0.000107662
9.91199e-05
9.12371e-05
8.3964e-05
7.7255e-05
7.10674e-05
6.53619e-05
6.0102e-05
5.5254e-05
5.07864e-05
4.66703e-05
4.28788e-05
3.9387e-05
3.61719e-05
3.32123e-05
3.04883e-05
2.79818e-05
2.56758e-05
2.35548e-05
2.16044e-05
1.98112e-05
1.81629e-05
1.66482e-05
1.52564e-05
1.39779e-05
1.28038e-05
1.17257e-05
1.0736e-05
9.82771e-06
8.99425e-06
8.22965e-06
7.52837e-06
6.88531e-06
6.29577e-06
5.75542e-06
5.26026e-06
4.80662e-06
4.3911e-06
4.0106e-06
3.66224e-06
3.34337e-06
3.05157e-06
2.7846e-06
2.54041e-06
2.31709e-06
2.11292e-06
1.92629e-06
1.75575e-06
1.59993e-06
1.4576e-06
1.32762e-06
1.20895e-06
1.10063e-06
1.00178e-06
9.11594e-07
8.29332e-07
7.54314e-07
6.8592e-07
6.23579e-07
5.6677e-07
5.15013e-07
4.67871e-07
4.24943e-07
3.8586e-07
3.50289e-07
3.17919e-07
2.88472e-07
2.61689e-07
2.37335e-07
2.15195e-07
1.95073e-07
1.7679e-07
1.60181e-07
1.45097e-07
1.31401e-07
1.18969e-07
1.07686e-07
9.74498e-08
8.81646e-08
7.97443e-08
7.21104e-08
6.5191e-08
5.8921e-08
5.32407e-08
4.8096e-08
4.34376e-08
3.92205e-08
3.5404e-08
3.19508e-08
2.88271e-08
2.60023e-08
2.34483e-08
2.11398e-08
1.90538e-08
1.71692e-08
1.54671e-08
1.39302e-08
1.25428e-08
1.12906e-08
1.01609e-08
9.14184e-09
8.22288e-09
7.39438e-09
6.64764e-09
5.97477e-09
5.36861e-09
4.82269e-09
4.33116e-09
3.88871e-09
3.49055e-09
3.13233e-09
2.81014e-09
2.52043e-09
2.26e-09
2.02594e-09
1.81564e-09
1.62674e-09
1.45711e-09
1.30482e-09
1.16814e-09
1.04549e-09
9.35478e-10
8.36816e-10
7.4836e-10
6.69075e-10
5.98029e-10
5.34384e-10
4.77384e-10
4.2635e-10
3.80668e-10
3.39789e-10
3.03219e-10
2.70511e-10
2.41265e-10
2.15123e-10
1.91762e-10
1.70891e-10
1.5225e-10
1.35605e-10
1.20747e-10
1.07488e-10
9.5658e-11
8.51069e-11
7.56987e-11
6.73121e-11
5.98382e-11
5.31794e-11
4.72485e-11
4.19675e-11
3.72664e-11
3.30828e-11
2.93606e-11
2.605e-11
2.31063e-11
2.04895e-11
1.8164e-11
1.60979e-11
1.42629e-11
1.26335e-11
1.11871e-11
9.90347e-12
8.7647e-12
7.7547e-12
6.85915e-12
6.06531e-12
5.36184e-12
4.73861e-12
4.18664e-12
3.69792e-12
3.26533e-12
2.88252e-12
2.54387e-12
2.24437e-12
1.97956e-12
1.74551e-12
1.53868e-12
1.35598e-12
1.19463e-12
1.05218e-12
9.26447e-13
8.15508e-13
7.17647e-13
6.31348e-13
5.55268e-13
4.88215e-13
4.29136e-13
3.77097e-13
3.31274e-13
2.90934e-13
2.55434e-13
2.242e-13
1.96729e-13
1.72573e-13
1.5134e-13
1.32681e-13
1.16289e-13
1.01892e-13
8.92517e-14
7.81568e-14
6.84212e-14
5.98809e-14
5.23913e-14
4.58252e-14
4.00702e-14
3.50278e-14
3.0611e-14
2.67432e-14
2.33574e-14
2.03942e-14
1.78018e-14
1.55343e-14
1.35517e-14
1.18186e-14
1.03042e-14
8.98115e-15
7.8257e-15
6.81689e-15
5.93638e-15
5.16808e-15
4.49789e-15
3.91346e-15
3.40396e-15
2.95992e-15
2.57304e-15
2.23607e-15
1.94266e-15
1.68725e-15
1.46498e-15
1.27162e-15
1.10346e-15
9.5725e-16
8.30168e-16
7.19746e-16
6.23827e-16
5.40532e-16
4.68222e-16
4.05467e-16
3.51022e-16
3.03801e-16
2.62857e-16
2.27369e-16
1.96619e-16
1.69984e-16
1.4692e-16
1.26957e-16
1.09685e-16
9.47459e-17
8.18318e-17
7.06737e-17
6.10387e-17
5.27247e-17
4.55566e-17
3.93831e-17
3.40729e-17
2.95131e-17
2.56062e-17
2.22684e-17
1.94277e-17
1.70229e-17
1.50017e-17
1.33204e-17
1.19421e-17
1.08369e-17
9.98056e-18
9.35422e-18
8.94415e-18
8.74134e-18
)
;
    }
    Wall
    {
        type            calculated;
        value           nonuniform List<scalar> 
400
(
0.730384
0.706466
0.683618
0.661321
0.639338
0.617565
0.595957
0.574509
0.553235
0.532159
0.511316
0.490742
0.470474
0.45055
0.431007
0.411878
0.393194
0.374982
0.357266
0.340067
0.323401
0.307281
0.291715
0.276711
0.262272
0.248396
0.235083
0.222326
0.210119
0.198453
0.187318
0.176701
0.16659
0.156971
0.147828
0.139146
0.13091
0.123104
0.11571
0.108712
0.102095
0.0958422
0.0899369
0.0843637
0.0791071
0.074152
0.0694838
0.0650882
0.0609514
0.05706
0.0534012
0.0499626
0.0467324
0.0436991
0.040852
0.0381805
0.0356748
0.0333254
0.0311233
0.0290599
0.0271272
0.0253173
0.023623
0.0220374
0.0205539
0.0191663
0.0178687
0.0166557
0.0155219
0.0144625
0.0134728
0.0125484
0.0116852
0.0108794
0.0101273
0.0094255
0.00877071
0.00815993
0.00759033
0.00705923
0.00656412
0.00610267
0.00567265
0.00527201
0.00489881
0.00455123
0.00422758
0.00392625
0.00364578
0.00338474
0.00314185
0.00291589
0.0027057
0.00251023
0.00232847
0.00215949
0.00200243
0.00185646
0.00172083
0.00159483
0.00147779
0.0013691
0.00126817
0.00117448
0.00108751
0.0010068
0.000931915
0.000862441
0.000798001
0.00073824
0.00068283
0.000631462
0.00058385
0.000539728
0.000498847
0.000460977
0.000425901
0.000393419
0.000363346
0.000335508
0.000309743
0.000285902
0.000263845
0.000243443
0.000224574
0.000207127
0.000190999
0.000176091
0.000162315
0.000149587
0.00013783
0.000126971
0.000116945
0.000107688
9.91439e-05
9.12592e-05
8.39845e-05
7.72738e-05
7.10847e-05
6.53779e-05
6.01167e-05
5.52675e-05
5.07988e-05
4.66817e-05
4.28893e-05
3.93967e-05
3.61808e-05
3.32204e-05
3.04958e-05
2.79886e-05
2.56821e-05
2.35606e-05
2.16097e-05
1.98161e-05
1.81674e-05
1.66522e-05
1.52601e-05
1.39814e-05
1.28069e-05
1.17286e-05
1.07387e-05
9.83012e-06
8.99646e-06
8.23166e-06
7.53021e-06
6.88699e-06
6.29731e-06
5.75682e-06
5.26154e-06
4.80778e-06
4.39217e-06
4.01157e-06
3.66312e-06
3.34418e-06
3.05231e-06
2.78527e-06
2.54102e-06
2.31765e-06
2.11343e-06
1.92676e-06
1.75617e-06
1.60031e-06
1.45795e-06
1.32794e-06
1.20924e-06
1.10089e-06
1.00202e-06
9.1181e-07
8.29528e-07
7.54492e-07
6.86082e-07
6.23726e-07
5.66903e-07
5.15134e-07
4.67981e-07
4.25042e-07
3.85951e-07
3.5037e-07
3.17993e-07
2.88539e-07
2.61749e-07
2.3739e-07
2.15245e-07
1.95118e-07
1.7683e-07
1.60218e-07
1.4513e-07
1.31431e-07
1.18996e-07
1.07711e-07
9.7472e-08
8.81847e-08
7.97625e-08
7.21268e-08
6.52058e-08
5.89343e-08
5.32527e-08
4.81069e-08
4.34474e-08
3.92294e-08
3.54119e-08
3.19579e-08
2.88336e-08
2.60081e-08
2.34535e-08
2.11446e-08
1.9058e-08
1.7173e-08
1.54705e-08
1.39333e-08
1.25455e-08
1.12931e-08
1.01632e-08
9.14388e-09
8.22471e-09
7.39603e-09
6.64912e-09
5.97609e-09
5.3698e-09
4.82376e-09
4.33212e-09
3.88957e-09
3.49132e-09
3.13303e-09
2.81076e-09
2.52099e-09
2.26049e-09
2.02638e-09
1.81604e-09
1.6271e-09
1.45743e-09
1.30511e-09
1.16839e-09
1.04572e-09
9.35685e-10
8.37001e-10
7.48525e-10
6.69223e-10
5.98161e-10
5.34503e-10
4.7749e-10
4.26444e-10
3.80752e-10
3.39865e-10
3.03286e-10
2.70571e-10
2.41319e-10
2.15171e-10
1.91804e-10
1.70929e-10
1.52284e-10
1.35635e-10
1.20774e-10
1.07512e-10
9.56793e-11
8.51259e-11
7.57157e-11
6.73272e-11
5.98516e-11
5.31913e-11
4.72592e-11
4.1977e-11
3.72748e-11
3.30903e-11
2.93673e-11
2.60559e-11
2.31115e-11
2.04942e-11
1.81681e-11
1.61016e-11
1.42661e-11
1.26363e-11
1.11896e-11
9.90574e-12
8.76672e-12
7.75648e-12
6.86073e-12
6.06671e-12
5.36308e-12
4.73971e-12
4.18762e-12
3.69878e-12
3.26609e-12
2.8832e-12
2.54447e-12
2.24489e-12
1.98003e-12
1.74592e-12
1.53905e-12
1.3563e-12
1.19491e-12
1.05243e-12
9.26668e-13
8.15702e-13
7.17818e-13
6.31499e-13
5.55401e-13
4.88332e-13
4.29239e-13
3.77188e-13
3.31354e-13
2.91005e-13
2.55496e-13
2.24255e-13
1.96777e-13
1.72616e-13
1.51377e-13
1.32714e-13
1.16317e-13
1.01917e-13
8.92739e-14
7.81763e-14
6.84383e-14
5.98959e-14
5.24045e-14
4.58367e-14
4.00803e-14
3.50366e-14
3.06187e-14
2.675e-14
2.33633e-14
2.03994e-14
1.78063e-14
1.55383e-14
1.35552e-14
1.18217e-14
1.03068e-14
8.98348e-15
7.82773e-15
6.81866e-15
5.93793e-15
5.16943e-15
4.49907e-15
3.91449e-15
3.40486e-15
2.9607e-15
2.57373e-15
2.23667e-15
1.94318e-15
1.6877e-15
1.46538e-15
1.27197e-15
1.10376e-15
9.57509e-16
8.30394e-16
7.19941e-16
6.23997e-16
5.4068e-16
4.68351e-16
4.05579e-16
3.51119e-16
3.03885e-16
2.6293e-16
2.27432e-16
1.96674e-16
1.70031e-16
1.46962e-16
1.26993e-16
1.09716e-16
9.47727e-17
8.1855e-17
7.06938e-17
6.10561e-17
5.27398e-17
4.55697e-17
3.93943e-17
3.40827e-17
2.95216e-17
2.56136e-17
2.22748e-17
1.94333e-17
1.70278e-17
1.5006e-17
1.33242e-17
1.19455e-17
1.084e-17
9.98337e-18
9.3568e-18
8.94659e-18
8.74373e-18
)
;
    }
}


// ************************************************************************* //
