/*--------------------------------*- C++ -*----------------------------------*\
  =========                 |
  \\      /  F ield         | OpenFOAM: The Open Source CFD Toolbox
   \\    /   O peration     | Website:  https://openfoam.org
    \\  /    A nd           | Version:  10
     \\/     M anipulation  |
\*---------------------------------------------------------------------------*/
FoamFile
{
    format      ascii;
    class       volScalarField;
    location    "0.14";
    object      N1;
}
// * * * * * * * * * * * * * * * * * * * * * * * * * * * * * * * * * * * * * //

dimensions      [0 0 0 0 0 0 0];

internalField   nonuniform List<scalar> 
8000
(
0.214585
0.222967
0.230171
0.236096
0.240748
0.24418
0.246461
0.247674
0.247904
0.247236
0.245756
0.243544
0.240681
0.237241
0.233295
0.228908
0.224144
0.21906
0.21371
0.208141
0.2024
0.196526
0.190559
0.18453
0.178471
0.172408
0.166366
0.160366
0.154427
0.148566
0.142797
0.137133
0.131583
0.126157
0.120863
0.115705
0.11069
0.10582
0.101098
0.0965262
0.0921049
0.0878346
0.0837146
0.0797442
0.0759216
0.072245
0.0687121
0.0653203
0.0620666
0.058948
0.0559612
0.0531028
0.0503691
0.0477565
0.0452613
0.0428798
0.0406081
0.0384425
0.0363792
0.0344145
0.0325446
0.0307659
0.0290747
0.0274677
0.0259413
0.0244921
0.0231168
0.0218123
0.0205754
0.019403
0.0182924
0.0172405
0.0162448
0.0153024
0.014411
0.013568
0.0127711
0.012018
0.0113066
0.0106346
0.0100003
0.0094015
0.00883654
0.00830362
0.00780107
0.00732729
0.00688075
0.00646
0.00606365
0.00569039
0.00533895
0.00500815
0.00469685
0.00440397
0.00412849
0.00386942
0.00362586
0.00339693
0.00318179
0.00297966
0.0027898
0.0026115
0.00244409
0.00228694
0.00213945
0.00200107
0.00187124
0.00174949
0.00163531
0.00152827
0.00142794
0.00133392
0.00124583
0.00116331
0.00108603
0.00101367
0.000945932
0.000882533
0.000823207
0.000767704
0.00071579
0.000667242
0.000621853
0.000579424
0.000539773
0.000502724
0.000468115
0.000435792
0.00040561
0.000377435
0.000351137
0.000326599
0.000303706
0.000282354
0.000262442
0.000243879
0.000226577
0.000210454
0.000195432
0.000181441
0.000168411
0.000156281
0.00014499
0.000134483
0.000124707
0.000115615
0.00010716
9.92995e-05
9.19933e-05
8.52041e-05
7.88969e-05
7.30387e-05
6.75991e-05
6.25492e-05
5.78624e-05
5.35137e-05
4.94795e-05
4.57381e-05
4.22692e-05
3.90536e-05
3.60737e-05
3.33128e-05
3.07556e-05
2.83875e-05
2.61951e-05
2.4166e-05
2.22884e-05
2.05515e-05
1.89451e-05
1.74599e-05
1.6087e-05
1.48183e-05
1.36461e-05
1.25635e-05
1.15638e-05
1.06409e-05
9.7891e-06
9.0032e-06
8.27825e-06
7.60971e-06
6.99334e-06
6.42524e-06
5.90175e-06
5.4195e-06
4.97536e-06
4.56643e-06
4.19002e-06
3.84362e-06
3.52494e-06
3.23184e-06
2.96233e-06
2.71458e-06
2.48689e-06
2.27771e-06
2.08556e-06
1.90912e-06
1.74715e-06
1.5985e-06
1.4621e-06
1.33699e-06
1.22226e-06
1.11707e-06
1.02067e-06
9.32338e-07
8.51422e-07
7.77321e-07
7.09479e-07
6.47385e-07
5.90566e-07
5.3859e-07
4.91056e-07
4.47596e-07
4.07873e-07
3.71574e-07
3.38415e-07
3.08131e-07
2.80482e-07
2.55244e-07
2.32214e-07
2.11204e-07
1.92043e-07
1.74573e-07
1.58649e-07
1.44138e-07
1.30918e-07
1.18878e-07
1.07916e-07
9.7938e-08
8.8858e-08
8.05976e-08
7.3085e-08
6.62544e-08
6.00456e-08
5.44036e-08
4.92781e-08
4.46231e-08
4.03966e-08
3.65602e-08
3.3079e-08
2.9921e-08
2.70568e-08
2.446e-08
2.21063e-08
1.99735e-08
1.80414e-08
1.62916e-08
1.47074e-08
1.32735e-08
1.1976e-08
1.08023e-08
9.7409e-09
8.7813e-09
7.91399e-09
7.13032e-09
6.42243e-09
5.78318e-09
5.20607e-09
4.68523e-09
4.21528e-09
3.7914e-09
3.40916e-09
3.06459e-09
2.75405e-09
2.47427e-09
2.22228e-09
1.99537e-09
1.79112e-09
1.60732e-09
1.44196e-09
1.29324e-09
1.15952e-09
1.03933e-09
9.31326e-10
8.34305e-10
7.47174e-10
6.68948e-10
5.98738e-10
5.35741e-10
4.79233e-10
4.2856e-10
3.83133e-10
3.42421e-10
3.05946e-10
2.73276e-10
2.44023e-10
2.17838e-10
1.94405e-10
1.73442e-10
1.54694e-10
1.37932e-10
1.2295e-10
1.09563e-10
9.76043e-11
8.69255e-11
7.73921e-11
6.88839e-11
6.12928e-11
5.45221e-11
4.84849e-11
4.31034e-11
3.83079e-11
3.40357e-11
3.02309e-11
2.68435e-11
2.38285e-11
2.11458e-11
1.87596e-11
1.66376e-11
1.47513e-11
1.30749e-11
1.15855e-11
1.02627e-11
9.08822e-12
8.04572e-12
7.12066e-12
6.30007e-12
5.57236e-12
4.92722e-12
4.35546e-12
3.84888e-12
3.4002e-12
3.00291e-12
2.65124e-12
2.34005e-12
2.06476e-12
1.8213e-12
1.60606e-12
1.41583e-12
1.24775e-12
1.09929e-12
9.68199e-13
8.52482e-13
7.50367e-13
6.60282e-13
5.80836e-13
5.10793e-13
4.49059e-13
3.94666e-13
3.46756e-13
3.04568e-13
2.67432e-13
2.34752e-13
2.06002e-13
1.80718e-13
1.58488e-13
1.38951e-13
1.21784e-13
1.06706e-13
9.34656e-14
8.18431e-14
7.16439e-14
6.26965e-14
5.48496e-14
4.797e-14
4.19405e-14
3.66575e-14
3.20301e-14
2.79783e-14
2.44315e-14
2.13277e-14
1.86125e-14
1.6238e-14
1.41621e-14
1.23477e-14
1.07625e-14
9.37796e-15
8.16901e-15
7.11375e-15
6.19292e-15
5.38966e-15
4.68918e-15
4.07854e-15
3.54639e-15
3.08279e-15
2.67906e-15
2.32759e-15
2.02172e-15
1.75565e-15
1.52429e-15
1.32321e-15
1.14852e-15
9.9686e-16
8.65268e-16
7.51179e-16
6.52355e-16
5.6685e-16
4.92973e-16
4.29257e-16
3.74432e-16
3.27402e-16
2.87221e-16
2.53079e-16
2.24287e-16
2.0026e-16
1.8051e-16
1.64633e-16
1.52305e-16
1.43274e-16
1.37354e-16
1.34424e-16
0.215411
0.224558
0.232229
0.238499
0.243437
0.247117
0.249621
0.251036
0.251447
0.250943
0.249608
0.247524
0.244771
0.241424
0.237554
0.233228
0.228508
0.223452
0.218115
0.212545
0.20679
0.200891
0.194885
0.188808
0.182691
0.176562
0.170445
0.164364
0.158338
0.152384
0.146518
0.140753
0.1351
0.129568
0.124166
0.118901
0.113776
0.108797
0.103967
0.099287
0.094759
0.0903835
0.0861601
0.0820881
0.0781661
0.0743925
0.0707651
0.0672813
0.0639383
0.0607332
0.0576626
0.0547233
0.0519115
0.0492236
0.046656
0.0442049
0.0418663
0.0396366
0.0375118
0.0354882
0.033562
0.0317296
0.0299871
0.0283311
0.0267579
0.0252642
0.0238466
0.0225017
0.0212265
0.0200177
0.0188725
0.0177878
0.0167609
0.015789
0.0148696
0.0140001
0.0131781
0.0124013
0.0116673
0.0109741
0.0103197
0.00970194
0.00911905
0.00856921
0.00805068
0.00756182
0.00710106
0.0066669
0.00625792
0.00587274
0.00551009
0.00516872
0.00484747
0.00454523
0.00426093
0.00399358
0.00374223
0.00350596
0.00328393
0.00307533
0.00287938
0.00269536
0.00252258
0.00236039
0.00220818
0.00206535
0.00193136
0.0018057
0.00168786
0.00157738
0.00147383
0.00137679
0.00128587
0.0012007
0.00112094
0.00104625
0.000976339
0.000910902
0.00084967
0.000792384
0.000738802
0.000688694
0.000641845
0.000598053
0.000557127
0.000518887
0.000483166
0.000449804
0.000418652
0.000389571
0.000362428
0.0003371
0.000313471
0.000291433
0.000270881
0.000251721
0.000233863
0.000217221
0.000201717
0.000187275
0.000173827
0.000161306
0.000149652
0.000138807
0.000128718
0.000119333
0.000110606
0.000102493
9.49516e-05
8.79441e-05
8.1434e-05
7.53875e-05
6.97729e-05
6.45607e-05
5.97232e-05
5.52346e-05
5.10707e-05
4.7209e-05
4.36285e-05
4.03095e-05
3.72338e-05
3.43841e-05
3.17446e-05
2.93004e-05
2.70375e-05
2.49431e-05
2.30052e-05
2.12124e-05
1.95544e-05
1.80214e-05
1.66044e-05
1.52948e-05
1.4085e-05
1.29675e-05
1.19356e-05
1.09831e-05
1.01039e-05
9.29273e-06
8.54447e-06
7.85443e-06
7.21824e-06
6.63187e-06
6.09154e-06
5.59379e-06
5.13537e-06
4.71328e-06
4.32476e-06
3.96723e-06
3.6383e-06
3.33577e-06
3.05759e-06
2.80188e-06
2.56687e-06
2.35095e-06
2.15263e-06
1.97052e-06
1.80334e-06
1.6499e-06
1.50912e-06
1.37998e-06
1.26156e-06
1.153e-06
1.05349e-06
9.62321e-07
8.78803e-07
8.02319e-07
7.32296e-07
6.68204e-07
6.09558e-07
5.5591e-07
5.06848e-07
4.6199e-07
4.2099e-07
3.83524e-07
3.49298e-07
3.18041e-07
2.89502e-07
2.63452e-07
2.39682e-07
2.17996e-07
1.98219e-07
1.80187e-07
1.63751e-07
1.48773e-07
1.35128e-07
1.22701e-07
1.11387e-07
1.01088e-07
9.17156e-08
8.31896e-08
7.54354e-08
6.83851e-08
6.19766e-08
5.61532e-08
5.08628e-08
4.60581e-08
4.16957e-08
3.7736e-08
3.41428e-08
3.08832e-08
2.7927e-08
2.52467e-08
2.28172e-08
2.06158e-08
1.86216e-08
1.68155e-08
1.51803e-08
1.37003e-08
1.23611e-08
1.11497e-08
1.00542e-08
9.0637e-09
8.1685e-09
7.35963e-09
6.62897e-09
5.96916e-09
5.3735e-09
4.8359e-09
4.35085e-09
3.91333e-09
3.5188e-09
3.16314e-09
2.84262e-09
2.55384e-09
2.29374e-09
2.05954e-09
1.84873e-09
1.65901e-09
1.48833e-09
1.33483e-09
1.19681e-09
1.07275e-09
9.61277e-10
8.61136e-10
7.71203e-10
6.90461e-10
6.17993e-10
5.52971e-10
4.94645e-10
4.42342e-10
3.95455e-10
3.53434e-10
3.15785e-10
2.82065e-10
2.51871e-10
2.24844e-10
2.00657e-10
1.7902e-10
1.59669e-10
1.42368e-10
1.26904e-10
1.13086e-10
1.00743e-10
8.9721e-11
7.9881e-11
7.10992e-11
6.3264e-11
5.62756e-11
5.00442e-11
4.44897e-11
3.95398e-11
3.51303e-11
3.12031e-11
2.77068e-11
2.45948e-11
2.18259e-11
1.93629e-11
1.71727e-11
1.52257e-11
1.34953e-11
1.19581e-11
1.05928e-11
9.38049e-12
8.30447e-12
7.34966e-12
6.50268e-12
5.75157e-12
5.08568e-12
4.49553e-12
3.97266e-12
3.50955e-12
3.09949e-12
2.73651e-12
2.41531e-12
2.13116e-12
1.87987e-12
1.65771e-12
1.46136e-12
1.28788e-12
1.13464e-12
9.99336e-13
8.79898e-13
7.74499e-13
6.81517e-13
5.99516e-13
5.2722e-13
4.63501e-13
4.07359e-13
3.57908e-13
3.14363e-13
2.76033e-13
2.42301e-13
2.12627e-13
1.8653e-13
1.63585e-13
1.43419e-13
1.25701e-13
1.10137e-13
9.64715e-14
8.44753e-14
7.3948e-14
6.47128e-14
5.66136e-14
4.95128e-14
4.32893e-14
3.78364e-14
3.30602e-14
2.88781e-14
2.52172e-14
2.20136e-14
1.92111e-14
1.67602e-14
1.46175e-14
1.27448e-14
1.11087e-14
9.67956e-15
8.43173e-15
7.34253e-15
6.39209e-15
5.56299e-15
4.83999e-15
4.20971e-15
3.66044e-15
3.18194e-15
2.76522e-15
2.40244e-15
2.08674e-15
1.81211e-15
1.57331e-15
1.36576e-15
1.18546e-15
1.02892e-15
8.93096e-16
7.75338e-16
6.73335e-16
5.8508e-16
5.08827e-16
4.43062e-16
3.86474e-16
3.37931e-16
2.96458e-16
2.61219e-16
2.31501e-16
2.06701e-16
1.86315e-16
1.69928e-16
1.57204e-16
1.47882e-16
1.41772e-16
1.38748e-16
0.215862
0.225685
0.233844
0.240487
0.245725
0.249659
0.252384
0.253993
0.254576
0.254224
0.253023
0.251057
0.248404
0.245142
0.241341
0.237068
0.232388
0.227358
0.222034
0.216465
0.210698
0.204776
0.198738
0.192619
0.186451
0.180263
0.174081
0.167928
0.161825
0.155789
0.149838
0.143983
0.138239
0.132613
0.127116
0.121754
0.116533
0.111457
0.10653
0.101754
0.0971317
0.0926625
0.088347
0.0841845
0.0801741
0.0763139
0.0726022
0.0690363
0.0656137
0.0623313
0.0591859
0.0561743
0.0532927
0.0505376
0.0479052
0.0453918
0.0429935
0.0407064
0.0385266
0.0364504
0.0344738
0.0325932
0.0308048
0.0291049
0.0274899
0.0259564
0.0245008
0.0231198
0.0218102
0.0205689
0.0193926
0.0182785
0.0172237
0.0162254
0.0152809
0.0143876
0.0135431
0.0127449
0.0119909
0.0112786
0.0106061
0.00997139
0.00937243
0.00880741
0.00827455
0.00777218
0.00729867
0.00685249
0.00643217
0.00603631
0.0056636
0.00531275
0.00498258
0.00467194
0.00437974
0.00410496
0.00384661
0.00360377
0.00337556
0.00316114
0.00295974
0.00277059
0.002593
0.00242629
0.00226983
0.00212302
0.00198529
0.00185612
0.00173499
0.00162144
0.00151499
0.00141524
0.00132179
0.00123424
0.00115225
0.00107548
0.00100362
0.000936352
0.00087341
0.000814524
0.000759445
0.000707938
0.00065978
0.000614765
0.000572696
0.000533388
0.000496668
0.000462374
0.000430352
0.000400458
0.000372557
0.000346521
0.000322232
0.000299578
0.000278452
0.000258757
0.000240399
0.000223292
0.000207354
0.000192509
0.000178685
0.000165815
0.000153835
0.000142687
0.000132315
0.000122668
0.000113697
0.000105357
9.76055e-05
9.04022e-05
8.37102e-05
7.74946e-05
7.17231e-05
6.63652e-05
6.13925e-05
5.67784e-05
5.24981e-05
4.85285e-05
4.4848e-05
4.14362e-05
3.82745e-05
3.53452e-05
3.26319e-05
3.01193e-05
2.77932e-05
2.56403e-05
2.36482e-05
2.18053e-05
2.0101e-05
1.85251e-05
1.70685e-05
1.57223e-05
1.44787e-05
1.333e-05
1.22693e-05
1.12901e-05
1.03863e-05
9.55247e-06
8.78329e-06
8.07396e-06
7.42e-06
6.81723e-06
6.26181e-06
5.75014e-06
5.2789e-06
4.84502e-06
4.44564e-06
4.07812e-06
3.74e-06
3.42901e-06
3.14306e-06
2.88019e-06
2.63862e-06
2.41667e-06
2.2128e-06
2.0256e-06
1.85374e-06
1.69602e-06
1.5513e-06
1.41856e-06
1.29683e-06
1.18523e-06
1.08294e-06
9.89219e-07
9.03367e-07
8.24745e-07
7.52764e-07
6.86881e-07
6.26596e-07
5.71449e-07
5.21014e-07
4.74903e-07
4.32757e-07
3.94244e-07
3.59061e-07
3.2693e-07
2.97594e-07
2.70816e-07
2.46381e-07
2.2409e-07
2.0376e-07
1.85223e-07
1.68328e-07
1.52931e-07
1.38905e-07
1.26131e-07
1.145e-07
1.03913e-07
9.42791e-08
8.55148e-08
7.75439e-08
7.02965e-08
6.37089e-08
5.77227e-08
5.22845e-08
4.73455e-08
4.28611e-08
3.87908e-08
3.50971e-08
3.17464e-08
2.87075e-08
2.59523e-08
2.3455e-08
2.1192e-08
1.9142e-08
1.72855e-08
1.56046e-08
1.40833e-08
1.27066e-08
1.14614e-08
1.03352e-08
9.31703e-09
8.39681e-09
7.56533e-09
6.81426e-09
6.13601e-09
5.52369e-09
4.97107e-09
4.47246e-09
4.02271e-09
3.61715e-09
3.25156e-09
2.92207e-09
2.62523e-09
2.35786e-09
2.11711e-09
1.9004e-09
1.70538e-09
1.52993e-09
1.37214e-09
1.23026e-09
1.10274e-09
9.88146e-10
8.85205e-10
7.92758e-10
7.0976e-10
6.35267e-10
5.68426e-10
5.08471e-10
4.54706e-10
4.06508e-10
3.63312e-10
3.24612e-10
2.89949e-10
2.58911e-10
2.31128e-10
2.06266e-10
1.84024e-10
1.64132e-10
1.46347e-10
1.30451e-10
1.16247e-10
1.03559e-10
9.22288e-11
8.21138e-11
7.30864e-11
6.50323e-11
5.78485e-11
5.1443e-11
4.57332e-11
4.0645e-11
3.61122e-11
3.20753e-11
2.84812e-11
2.52823e-11
2.24359e-11
1.99041e-11
1.76527e-11
1.56512e-11
1.38726e-11
1.22923e-11
1.08888e-11
9.64269e-12
8.53659e-12
7.55509e-12
6.68443e-12
5.91233e-12
5.22783e-12
4.62119e-12
4.0837e-12
3.60764e-12
3.18612e-12
2.81299e-12
2.48281e-12
2.19073e-12
1.93241e-12
1.70404e-12
1.50221e-12
1.32387e-12
1.16636e-12
1.02727e-12
9.04491e-13
7.96146e-13
7.00566e-13
6.16273e-13
5.41956e-13
4.76456e-13
4.18745e-13
3.67911e-13
3.2315e-13
2.83748e-13
2.49074e-13
2.1857e-13
1.91743e-13
1.68158e-13
1.47428e-13
1.29214e-13
1.13216e-13
9.91679e-14
8.68364e-14
7.60149e-14
6.65216e-14
5.8196e-14
5.08967e-14
4.44993e-14
3.8894e-14
3.39843e-14
2.96852e-14
2.5922e-14
2.26289e-14
1.97481e-14
1.72287e-14
1.50261e-14
1.31011e-14
1.14192e-14
9.95011e-15
8.66741e-15
7.54776e-15
6.57075e-15
5.71848e-15
4.97527e-15
4.32738e-15
3.76276e-15
3.27088e-15
2.84251e-15
2.46959e-15
2.14507e-15
1.86276e-15
1.61729e-15
1.40394e-15
1.21859e-15
1.05768e-15
9.18059e-16
7.97009e-16
6.92156e-16
6.01434e-16
5.23049e-16
4.55446e-16
3.97277e-16
3.47377e-16
3.04744e-16
2.6852e-16
2.37971e-16
2.12478e-16
1.91523e-16
1.74678e-16
1.61598e-16
1.52016e-16
1.45735e-16
1.42626e-16
0.216165
0.226523
0.235119
0.242115
0.247645
0.251824
0.254759
0.25655
0.257293
0.257081
0.256002
0.254142
0.251579
0.248393
0.244653
0.240429
0.235784
0.230778
0.225465
0.219897
0.214121
0.20818
0.202113
0.195958
0.189746
0.183507
0.177269
0.171054
0.164883
0.158777
0.152751
0.146819
0.140994
0.135287
0.129707
0.124261
0.118955
0.113795
0.108783
0.103924
0.099218
0.0946668
0.0902706
0.0860289
0.0819408
0.0780048
0.074219
0.0705811
0.0670885
0.0637383
0.0605272
0.057452
0.0545091
0.0516949
0.0490056
0.0464375
0.0439865
0.041649
0.0394208
0.0372983
0.0352774
0.0333544
0.0315255
0.029787
0.0281351
0.0265665
0.0250775
0.0236647
0.0223249
0.0210548
0.0198512
0.0187112
0.0176318
0.0166101
0.0156435
0.0147293
0.0138649
0.013048
0.0122762
0.0115471
0.0108588
0.010209
0.0095959
0.00901749
0.008472
0.00795771
0.00747295
0.00701617
0.00658586
0.00618058
0.00579899
0.00543979
0.00510175
0.0047837
0.00448453
0.00420319
0.00393868
0.00369004
0.00345637
0.00323684
0.00303062
0.00283695
0.00265511
0.00248441
0.00232421
0.00217389
0.00203287
0.0019006
0.00177658
0.0016603
0.00155131
0.00144917
0.00135347
0.00126383
0.00117988
0.00110127
0.00102768
0.000958802
0.000894352
0.000834055
0.000777655
0.000724913
0.000675602
0.000629507
0.000586429
0.000546179
0.000508579
0.000473463
0.000440673
0.000410062
0.000381492
0.000354832
0.00032996
0.000306762
0.00028513
0.000264963
0.000246165
0.000228648
0.000212328
0.000197126
0.000182971
0.000169792
0.000157525
0.000146109
0.000135489
0.000125611
0.000116425
0.000107884
9.99467e-05
9.25705e-05
8.5718e-05
7.93534e-05
7.34435e-05
6.7957e-05
6.2865e-05
5.81403e-05
5.37573e-05
4.96925e-05
4.59237e-05
4.24301e-05
3.91925e-05
3.6193e-05
3.34146e-05
3.08418e-05
2.84599e-05
2.62553e-05
2.42154e-05
2.23283e-05
2.05831e-05
1.89695e-05
1.74779e-05
1.60995e-05
1.4826e-05
1.36497e-05
1.25636e-05
1.15609e-05
1.06355e-05
9.7816e-06
8.99397e-06
8.26763e-06
7.59798e-06
6.98075e-06
6.41201e-06
5.88806e-06
5.40553e-06
4.96124e-06
4.55228e-06
4.17594e-06
3.82971e-06
3.51126e-06
3.21845e-06
2.94928e-06
2.70191e-06
2.47463e-06
2.26588e-06
2.07419e-06
1.89821e-06
1.7367e-06
1.58851e-06
1.45258e-06
1.32793e-06
1.21366e-06
1.10892e-06
1.01295e-06
9.25035e-07
8.44528e-07
7.7082e-07
7.03357e-07
6.41626e-07
5.85156e-07
5.33512e-07
4.86295e-07
4.43137e-07
4.037e-07
3.67674e-07
3.34772e-07
3.04732e-07
2.77312e-07
2.52291e-07
2.29465e-07
2.08647e-07
1.89666e-07
1.72365e-07
1.566e-07
1.42237e-07
1.29156e-07
1.17246e-07
1.06406e-07
9.65406e-08
8.7566e-08
7.94039e-08
7.19827e-08
6.52371e-08
5.91073e-08
5.35386e-08
4.84811e-08
4.38892e-08
3.97212e-08
3.5939e-08
3.25079e-08
2.93961e-08
2.65748e-08
2.40176e-08
2.17004e-08
1.96012e-08
1.77001e-08
1.59789e-08
1.44211e-08
1.30114e-08
1.17363e-08
1.05831e-08
9.54052e-09
8.59822e-09
7.7468e-09
6.97771e-09
6.28319e-09
5.65619e-09
5.09031e-09
4.57974e-09
4.1192e-09
3.70392e-09
3.32955e-09
2.99216e-09
2.6882e-09
2.41441e-09
2.16789e-09
1.94598e-09
1.74629e-09
1.56663e-09
1.40505e-09
1.25977e-09
1.12919e-09
1.01185e-09
9.06438e-10
8.11774e-10
7.26785e-10
6.50505e-10
5.82061e-10
5.20667e-10
4.65613e-10
4.16259e-10
3.72027e-10
3.32398e-10
2.96904e-10
2.65122e-10
2.36672e-10
2.11214e-10
1.88438e-10
1.68069e-10
1.49858e-10
1.3358e-10
1.19035e-10
1.06043e-10
9.44411e-11
8.40834e-11
7.48396e-11
6.65922e-11
5.92361e-11
5.2677e-11
4.68302e-11
4.162e-11
3.69784e-11
3.28447e-11
2.91644e-11
2.58887e-11
2.29741e-11
2.03815e-11
1.80761e-11
1.60267e-11
1.42053e-11
1.25872e-11
1.115e-11
9.87399e-12
8.74136e-12
7.73632e-12
6.84477e-12
6.05415e-12
5.35323e-12
4.73204e-12
4.18166e-12
3.69418e-12
3.26255e-12
2.88047e-12
2.54237e-12
2.24328e-12
1.97877e-12
1.74492e-12
1.53824e-12
1.35563e-12
1.19433e-12
1.05191e-12
9.26188e-13
8.15244e-13
7.17371e-13
6.31055e-13
5.54957e-13
4.87885e-13
4.2879e-13
3.76737e-13
3.30902e-13
2.90554e-13
2.55048e-13
2.23813e-13
1.96343e-13
1.72191e-13
1.50964e-13
1.32314e-13
1.15932e-13
1.01547e-13
8.89194e-14
7.78384e-14
6.81173e-14
5.9592e-14
5.21176e-14
4.55667e-14
3.9827e-14
3.47995e-14
3.03973e-14
2.65438e-14
2.31717e-14
2.02218e-14
1.7642e-14
1.53866e-14
1.34153e-14
1.16931e-14
1.01888e-14
8.87532e-15
7.72881e-15
6.72837e-15
5.85566e-15
5.09462e-15
4.43118e-15
3.85302e-15
3.34934e-15
2.9107e-15
2.52883e-15
2.19652e-15
1.90744e-15
1.65608e-15
1.43761e-15
1.24783e-15
1.08305e-15
9.40081e-16
8.16128e-16
7.08759e-16
6.15861e-16
5.35596e-16
4.66371e-16
4.06807e-16
3.5571e-16
3.12055e-16
2.74961e-16
2.4368e-16
2.17576e-16
1.96118e-16
1.78868e-16
1.65474e-16
1.55662e-16
1.49231e-16
1.46048e-16
0.216389
0.227167
0.23613
0.243437
0.24923
0.253633
0.25676
0.258717
0.259605
0.259518
0.258547
0.25678
0.254297
0.251177
0.247491
0.24331
0.238696
0.23371
0.228408
0.222841
0.217057
0.2111
0.20501
0.198824
0.192575
0.186293
0.180006
0.173738
0.167511
0.161344
0.155254
0.149256
0.143363
0.137586
0.131935
0.126417
0.121039
0.115806
0.110722
0.105791
0.101014
0.0963924
0.0919269
0.0876172
0.0834624
0.0794612
0.0756119
0.0719121
0.0683594
0.0649508
0.0616832
0.0585534
0.0555577
0.0526926
0.0499543
0.047339
0.0448428
0.0424617
0.0401919
0.0380294
0.0359704
0.0340109
0.0321471
0.0303753
0.0286917
0.0270928
0.025575
0.0241348
0.0227689
0.021474
0.0202469
0.0190845
0.0179839
0.0169421
0.0159564
0.0150241
0.0141427
0.0133096
0.0125224
0.0117789
0.0110768
0.0104141
0.00978875
0.00919879
0.00864241
0.00811783
0.00762337
0.00715744
0.0067185
0.0063051
0.00591585
0.00554944
0.00520461
0.00488017
0.00457498
0.00428798
0.00401814
0.0037645
0.00352613
0.00330217
0.0030918
0.00289423
0.00270872
0.00253458
0.00237115
0.00221779
0.00207393
0.001939
0.00181247
0.00169384
0.00158265
0.00147845
0.00138082
0.00128937
0.00120372
0.00112352
0.00104845
0.00097818
0.000912428
0.000850912
0.000793374
0.000739566
0.000689258
0.000642232
0.000598283
0.00055722
0.00051886
0.000483034
0.000449581
0.000418352
0.000389204
0.000362005
0.000336631
0.000312964
0.000290895
0.000270319
0.000251142
0.00023327
0.00021662
0.000201112
0.00018667
0.000173224
0.000160709
0.000149063
0.000138228
0.00012815
0.000118778
0.000110066
0.000101967
9.44422e-05
8.74511e-05
8.09578e-05
7.49284e-05
6.93311e-05
6.41361e-05
5.93158e-05
5.48443e-05
5.06973e-05
4.68522e-05
4.3288e-05
3.9985e-05
3.69248e-05
3.40902e-05
3.14654e-05
2.90353e-05
2.67862e-05
2.4705e-05
2.27798e-05
2.09993e-05
1.9353e-05
1.78313e-05
1.6425e-05
1.51257e-05
1.39257e-05
1.28176e-05
1.17946e-05
1.08505e-05
9.97937e-06
9.17582e-06
8.43479e-06
7.7516e-06
7.1219e-06
6.54165e-06
6.00712e-06
5.51482e-06
5.06155e-06
4.64432e-06
4.26037e-06
3.90714e-06
3.58225e-06
3.28352e-06
3.00891e-06
2.75654e-06
2.52467e-06
2.31169e-06
2.11612e-06
1.93659e-06
1.77181e-06
1.62063e-06
1.48195e-06
1.35478e-06
1.23819e-06
1.13134e-06
1.03343e-06
9.43739e-07
8.61603e-07
7.86406e-07
7.17578e-07
6.54599e-07
5.96987e-07
5.44299e-07
4.96127e-07
4.52097e-07
4.11863e-07
3.75108e-07
3.41541e-07
3.10893e-07
2.82919e-07
2.57392e-07
2.34104e-07
2.12866e-07
1.93501e-07
1.7585e-07
1.59766e-07
1.45113e-07
1.31768e-07
1.19617e-07
1.08557e-07
9.84926e-08
8.93366e-08
8.10094e-08
7.34382e-08
6.65562e-08
6.03024e-08
5.46211e-08
4.94614e-08
4.47767e-08
4.05244e-08
3.66657e-08
3.31652e-08
2.99905e-08
2.71122e-08
2.45032e-08
2.21391e-08
1.99975e-08
1.8058e-08
1.6302e-08
1.47127e-08
1.32745e-08
1.19736e-08
1.07971e-08
9.73343e-09
8.77208e-09
7.90344e-09
7.1188e-09
6.41023e-09
5.77056e-09
5.19323e-09
4.67234e-09
4.20249e-09
3.77881e-09
3.39687e-09
3.05267e-09
2.74255e-09
2.46323e-09
2.21173e-09
1.98533e-09
1.78159e-09
1.59831e-09
1.43346e-09
1.28524e-09
1.15202e-09
1.03231e-09
9.24766e-10
8.28188e-10
7.41481e-10
6.63658e-10
5.9383e-10
5.31195e-10
4.75028e-10
4.24675e-10
3.79549e-10
3.39119e-10
3.02907e-10
2.70482e-10
2.41458e-10
2.15484e-10
1.92248e-10
1.71467e-10
1.52888e-10
1.36281e-10
1.21442e-10
1.08187e-10
9.63507e-11
8.57836e-11
7.63528e-11
6.79387e-11
6.04339e-11
5.37421e-11
4.77771e-11
4.24615e-11
3.77261e-11
3.35088e-11
2.97541e-11
2.64122e-11
2.34386e-11
2.07936e-11
1.84416e-11
1.63507e-11
1.44925e-11
1.28417e-11
1.13755e-11
1.00736e-11
8.91811e-12
7.89275e-12
6.98318e-12
6.17656e-12
5.46147e-12
4.82772e-12
4.26621e-12
3.76888e-12
3.32852e-12
2.93872e-12
2.59378e-12
2.28864e-12
2.01878e-12
1.7802e-12
1.56934e-12
1.38304e-12
1.21848e-12
1.07318e-12
9.44916e-13
8.31728e-13
7.31876e-13
6.43816e-13
5.66178e-13
4.97751e-13
4.3746e-13
3.84354e-13
3.37593e-13
2.96429e-13
2.60206e-13
2.28339e-13
2.00313e-13
1.75673e-13
1.54017e-13
1.34989e-13
1.18276e-13
1.036e-13
9.07174e-14
7.94123e-14
6.94947e-14
6.07969e-14
5.31714e-14
4.64881e-14
4.06323e-14
3.55032e-14
3.1012e-14
2.70806e-14
2.36403e-14
2.06307e-14
1.79987e-14
1.56977e-14
1.36866e-14
1.19295e-14
1.03948e-14
9.05479e-15
7.8851e-15
6.86442e-15
5.97406e-15
5.19764e-15
4.52078e-15
3.93093e-15
3.41706e-15
2.96955e-15
2.57997e-15
2.24094e-15
1.94602e-15
1.68957e-15
1.46668e-15
1.27306e-15
1.10495e-15
9.59091e-16
8.32631e-16
7.23091e-16
6.28314e-16
5.46427e-16
4.75802e-16
4.15033e-16
3.62903e-16
3.18365e-16
2.80521e-16
2.48607e-16
2.21975e-16
2.00083e-16
1.82485e-16
1.68821e-16
1.5881e-16
1.52249e-16
1.49001e-16
0.216559
0.227664
0.236923
0.244491
0.25051
0.255108
0.258402
0.260504
0.261516
0.261538
0.260661
0.258974
0.256559
0.253495
0.249855
0.24571
0.241122
0.236154
0.230861
0.225296
0.219506
0.213536
0.207427
0.201215
0.194936
0.188618
0.182291
0.17598
0.169705
0.163488
0.157345
0.151292
0.145342
0.139507
0.133797
0.128219
0.122781
0.117488
0.112344
0.107352
0.102516
0.0978358
0.0933124
0.0889459
0.0847355
0.08068
0.0767775
0.0730261
0.0694231
0.0659657
0.0626509
0.0594754
0.0564356
0.053528
0.0507487
0.048094
0.0455599
0.0431425
0.0408378
0.0386419
0.0365509
0.0345608
0.0326678
0.0308682
0.029158
0.0275338
0.0259918
0.0245287
0.0231409
0.0218252
0.0205784
0.0193973
0.0182789
0.0172203
0.0162186
0.0152712
0.0143754
0.0135287
0.0127287
0.0119731
0.0112595
0.010586
0.00995038
0.00935075
0.00878523
0.00825203
0.00774944
0.00727584
0.00682968
0.00640946
0.0060138
0.00564134
0.00529082
0.00496102
0.0046508
0.00435905
0.00408475
0.00382691
0.0035846
0.00335694
0.00314308
0.00294224
0.00275366
0.00257663
0.00241049
0.0022546
0.00210835
0.00197118
0.00184255
0.00172196
0.00160892
0.00150299
0.00140375
0.00131078
0.00122371
0.00114218
0.00106586
0.000994424
0.00092758
0.000865044
0.00080655
0.000751849
0.000700705
0.000652899
0.00060822
0.000566475
0.000527478
0.000491057
0.000457049
0.000425301
0.000395669
0.000368019
0.000342223
0.000318163
0.000295727
0.00027481
0.000255314
0.000237145
0.000220219
0.000204453
0.000189771
0.000176102
0.000163379
0.00015154
0.000140525
0.000130279
0.000120752
0.000111894
0.000103661
9.60112e-05
8.89039e-05
8.23028e-05
7.61732e-05
7.04829e-05
6.52016e-05
6.03012e-05
5.57554e-05
5.15395e-05
4.76306e-05
4.40072e-05
4.06493e-05
3.75382e-05
3.46566e-05
3.19881e-05
2.95177e-05
2.72312e-05
2.51155e-05
2.31583e-05
2.13482e-05
1.96745e-05
1.81275e-05
1.66979e-05
1.5377e-05
1.41571e-05
1.30305e-05
1.19906e-05
1.10308e-05
1.01452e-05
9.32827e-06
8.57493e-06
7.88038e-06
7.24022e-06
6.65033e-06
6.10692e-06
5.60644e-06
5.14564e-06
4.72148e-06
4.33115e-06
3.97205e-06
3.64177e-06
3.33807e-06
3.0589e-06
2.80233e-06
2.56661e-06
2.3501e-06
2.15128e-06
1.96876e-06
1.80125e-06
1.64756e-06
1.50657e-06
1.37729e-06
1.25877e-06
1.15013e-06
1.0506e-06
9.59418e-07
8.75918e-07
7.99471e-07
7.295e-07
6.65475e-07
6.06905e-07
5.53342e-07
5.0437e-07
4.59608e-07
4.18706e-07
3.8134e-07
3.47215e-07
3.16058e-07
2.87619e-07
2.61668e-07
2.37994e-07
2.16402e-07
1.96716e-07
1.78772e-07
1.6242e-07
1.47524e-07
1.33957e-07
1.21604e-07
1.10361e-07
1.00129e-07
9.08208e-08
8.23553e-08
7.46583e-08
6.76619e-08
6.13043e-08
5.55286e-08
5.02832e-08
4.55206e-08
4.11976e-08
3.72748e-08
3.37162e-08
3.04888e-08
2.75626e-08
2.49103e-08
2.2507e-08
2.03298e-08
1.8358e-08
1.65729e-08
1.49571e-08
1.34951e-08
1.21725e-08
1.09765e-08
9.89514e-09
8.91782e-09
8.03475e-09
7.23707e-09
6.51673e-09
5.86643e-09
5.27951e-09
4.74996e-09
4.27231e-09
3.84159e-09
3.45331e-09
3.10338e-09
2.78812e-09
2.50416e-09
2.24847e-09
2.01831e-09
1.81119e-09
1.62486e-09
1.45728e-09
1.3066e-09
1.17116e-09
1.04946e-09
9.40131e-10
8.41948e-10
7.538e-10
6.74684e-10
6.03697e-10
5.40021e-10
4.8292e-10
4.31731e-10
3.85855e-10
3.44753e-10
3.0794e-10
2.74976e-10
2.45469e-10
2.19064e-10
1.95442e-10
1.74316e-10
1.55428e-10
1.38545e-10
1.2346e-10
1.09985e-10
9.79515e-11
8.72088e-11
7.76214e-11
6.90675e-11
6.14379e-11
5.4635e-11
4.85709e-11
4.3167e-11
3.83529e-11
3.40655e-11
3.02484e-11
2.6851e-11
2.38281e-11
2.11391e-11
1.8748e-11
1.66224e-11
1.47333e-11
1.30551e-11
1.15645e-11
1.0241e-11
9.06628e-12
8.02388e-12
7.0992e-12
6.27919e-12
5.55222e-12
4.90793e-12
4.3371e-12
3.8315e-12
3.38382e-12
2.98754e-12
2.63687e-12
2.32666e-12
2.05232e-12
1.80978e-12
1.59542e-12
1.40602e-12
1.23873e-12
1.09101e-12
9.60616e-13
8.45548e-13
7.44037e-13
6.54513e-13
5.75585e-13
5.06021e-13
4.44728e-13
3.90741e-13
3.43202e-13
3.01355e-13
2.64529e-13
2.32132e-13
2.03641e-13
1.78592e-13
1.56576e-13
1.37232e-13
1.20241e-13
1.05321e-13
9.22247e-14
8.07318e-14
7.06494e-14
6.18071e-14
5.40549e-14
4.72605e-14
4.13074e-14
3.60931e-14
3.15273e-14
2.75305e-14
2.40331e-14
2.09735e-14
1.82978e-14
1.59585e-14
1.3914e-14
1.21277e-14
1.05675e-14
9.20524e-15
8.01611e-15
6.97848e-15
6.07333e-15
5.284e-15
4.5959e-15
3.99625e-15
3.47384e-15
3.0189e-15
2.62284e-15
2.27817e-15
1.97835e-15
1.71764e-15
1.49105e-15
1.29421e-15
1.12331e-15
9.75027e-16
8.46466e-16
7.35106e-16
6.38754e-16
5.55506e-16
4.83708e-16
4.21929e-16
3.68933e-16
3.23655e-16
2.85183e-16
2.52738e-16
2.25664e-16
2.03408e-16
1.85518e-16
1.71626e-16
1.61449e-16
1.54779e-16
1.51477e-16
0.216687
0.228041
0.237531
0.245307
0.251509
0.256266
0.259698
0.26192
0.263036
0.263147
0.262347
0.260725
0.258366
0.255348
0.251746
0.247629
0.243064
0.23811
0.232825
0.227261
0.221466
0.215486
0.209361
0.20313
0.196826
0.190481
0.184122
0.177775
0.171463
0.165205
0.15902
0.152924
0.146929
0.141047
0.13529
0.129664
0.124178
0.118836
0.113644
0.108605
0.103721
0.0989939
0.0944243
0.0900123
0.0857574
0.0816582
0.0777132
0.0739203
0.0702771
0.0667806
0.063428
0.0602158
0.0571407
0.0541989
0.0513867
0.0487004
0.0461359
0.0436893
0.0413566
0.0391339
0.0370173
0.0350026
0.0330862
0.0312642
0.0295327
0.0278881
0.0263268
0.0248452
0.0234399
0.0221075
0.0208448
0.0196487
0.018516
0.0174439
0.0164294
0.0154698
0.0145625
0.0137049
0.0128946
0.0121292
0.0114064
0.0107241
0.0100803
0.00947289
0.00890003
0.0083599
0.00785078
0.00737102
0.00691904
0.00649335
0.00609253
0.00571522
0.00536012
0.00502602
0.00471174
0.00441618
0.00413829
0.00387708
0.0036316
0.00340096
0.0031843
0.00298083
0.00278978
0.00261044
0.00244212
0.00228418
0.00213602
0.00199705
0.00186673
0.00174456
0.00163004
0.00152273
0.00142218
0.00132799
0.00123977
0.00115718
0.00107985
0.00100748
0.000939761
0.000876403
0.000817142
0.000761723
0.000709908
0.000661473
0.000616208
0.000573915
0.000534406
0.000497507
0.000463052
0.000430887
0.000400866
0.000372853
0.000346718
0.000322342
0.000299611
0.00027842
0.000258667
0.00024026
0.000223112
0.000207139
0.000192264
0.000178415
0.000165525
0.00015353
0.000142371
0.000131991
0.000122338
0.000113364
0.000105023
9.72724e-05
9.00718e-05
8.3384e-05
7.71739e-05
7.14088e-05
6.60581e-05
6.10934e-05
5.64878e-05
5.22166e-05
4.82563e-05
4.45853e-05
4.11833e-05
3.80313e-05
3.51118e-05
3.24083e-05
2.99055e-05
2.75889e-05
2.54454e-05
2.34625e-05
2.16286e-05
1.9933e-05
1.83656e-05
1.69172e-05
1.5579e-05
1.4343e-05
1.32017e-05
1.21481e-05
1.11757e-05
1.02784e-05
9.45081e-06
8.68758e-06
7.98391e-06
7.33534e-06
6.7377e-06
6.18714e-06
5.68009e-06
5.21324e-06
4.78351e-06
4.38805e-06
4.02423e-06
3.68961e-06
3.38193e-06
3.09908e-06
2.83915e-06
2.60033e-06
2.38097e-06
2.17954e-06
1.99463e-06
1.82491e-06
1.6692e-06
1.52637e-06
1.39538e-06
1.2753e-06
1.16524e-06
1.0644e-06
9.72022e-07
8.87425e-07
8.09974e-07
7.39084e-07