/*--------------------------------*- C++ -*----------------------------------*\
  =========                 |
  \\      /  F ield         | OpenFOAM: The Open Source CFD Toolbox
   \\    /   O peration     | Website:  https://openfoam.org
    \\  /    A nd           | Version:  10
     \\/     M anipulation  |
\*---------------------------------------------------------------------------*/
FoamFile
{
    format      ascii;
    class       volScalarField;
    location    "0.14";
    object      Exp1;
}
// * * * * * * * * * * * * * * * * * * * * * * * * * * * * * * * * * * * * * //

dimensions      [0 0 0 0 0 0 0];

internalField   uniform 0;

boundaryField
{
    frontAndBack
    {
        type            empty;
    }
    inlet
    {
        type            calculated;
        value           uniform 0;
    }
    outlet
    {
        type            calculated;
        value           uniform 0;
    }
    substrate
    {
        type            calculated;
        value           nonuniform List<scalar> 
400
(
0.0282664
0.0293579
0.0302941
0.0310615
0.0316611
0.0320998
0.0323872
0.0325342
0.032552
0.0324521
0.0322458
0.0319439
0.0315569
0.0310948
0.0305669
0.029982
0.0293482
0.0286733
0.0279641
0.0272271
0.0264682
0.0256928
0.0249057
0.0241113
0.0233136
0.0225161
0.0217219
0.0209338
0.0201542
0.0193853
0.0186288
0.0178865
0.0171596
0.0164492
0.0157563
0.0150816
0.0144258
0.0137892
0.0131722
0.0125749
0.0119975
0.01144
0.0109023
0.0103842
0.00988549
0.00940595
0.00894524
0.00850302
0.00807888
0.00767243
0.00728321
0.00691077
0.00655463
0.00621432
0.00588934
0.00557919
0.00528338
0.00500142
0.00473279
0.00447702
0.00423362
0.00400211
0.00378201
0.00357287
0.00337423
0.00318565
0.0030067
0.00283697
0.00267604
0.00252352
0.00237902
0.00224219
0.00211266
0.00199008
0.00187412
0.00176447
0.00166082
0.00156286
0.00147033
0.00138294
0.00130043
0.00122256
0.00114908
0.00107978
0.00101442
0.000952805
0.000894734
0.000840017
0.000788475
0.000739935
0.000694234
0.000651217
0.000610736
0.00057265
0.000536827
0.00050314
0.000471468
0.000441699
0.000413724
0.000387441
0.000362752
0.000339567
0.000317799
0.000297364
0.000278187
0.000260192
0.000243312
0.00022748
0.000212634
0.000198715
0.00018567
0.000173444
0.00016199
0.000151261
0.000141212
0.000131803
0.000122995
0.000114752
0.000107038
9.98211e-05
9.30709e-05
8.67584e-05
8.08566e-05
7.53398e-05
7.0184e-05
6.53668e-05
6.08667e-05
5.66639e-05
5.27395e-05
4.9076e-05
4.56566e-05
4.2466e-05
3.94893e-05
3.6713e-05
3.4124e-05
3.17104e-05
2.94607e-05
2.73642e-05
2.5411e-05
2.35918e-05
2.18976e-05
2.03204e-05
1.88523e-05
1.74861e-05
1.6215e-05
1.50328e-05
1.39335e-05
1.29114e-05
1.19614e-05
1.10786e-05
1.02585e-05
9.49684e-06
8.78955e-06
8.13295e-06
7.52355e-06
6.9581e-06
6.43356e-06
5.94709e-06
5.49604e-06
5.07794e-06
4.69047e-06
4.33149e-06
3.99898e-06
3.69107e-06
3.40601e-06
3.14217e-06
2.89804e-06
2.6722e-06
2.46334e-06
2.27022e-06
2.09171e-06
1.92674e-06
1.77434e-06
1.63356e-06
1.50358e-06
1.38358e-06
1.27282e-06
1.17064e-06
1.07638e-06
9.89449e-07
9.09307e-07
8.35439e-07
7.67373e-07
7.04669e-07
6.4692e-07
5.93749e-07
5.44805e-07
4.99766e-07
4.5833e-07
4.20219e-07
3.85176e-07
3.52962e-07
3.23357e-07
2.96158e-07
2.71175e-07
2.48233e-07
2.27173e-07
2.07844e-07
1.90109e-07
1.73841e-07
1.58924e-07
1.45247e-07
1.32712e-07
1.21227e-07
1.10706e-07
1.01071e-07
9.22498e-08
8.4176e-08
7.67882e-08
7.00299e-08
6.38493e-08
5.81985e-08
5.30335e-08
4.83138e-08
4.40023e-08
4.00647e-08
3.64695e-08
3.3188e-08
3.01935e-08
2.74618e-08
2.49704e-08
2.26988e-08
2.06282e-08
1.87414e-08
1.70226e-08
1.54571e-08
1.40318e-08
1.27344e-08
1.15537e-08
1.04797e-08
9.50286e-09
8.61471e-09
7.80741e-09
7.07381e-09
6.40736e-09
5.8021e-09
5.25255e-09
4.75373e-09
4.30109e-09
3.89046e-09
3.51806e-09
3.18041e-09
2.87437e-09
2.59704e-09
2.34582e-09
2.11831e-09
1.91232e-09
1.72588e-09
1.55718e-09
1.40457e-09
1.26656e-09
1.14178e-09
1.02901e-09
9.27117e-10
8.35074e-10
7.51956e-10
6.76918e-10
6.09195e-10
5.48091e-10
4.92975e-10
4.43275e-10
3.98472e-10
3.58095e-10
3.21716e-10
2.88951e-10
2.59448e-10
2.3289e-10
2.08991e-10
1.8749e-10
1.68153e-10
1.50766e-10
1.35138e-10
1.21095e-10
1.0848e-10
9.7151e-11
8.69798e-11
7.78507e-11
6.96596e-11
6.23121e-11
5.57234e-11
4.98167e-11
4.45232e-11
3.97805e-11
3.55326e-11
3.1729e-11
2.83243e-11
2.52775e-11
2.25518e-11
2.01141e-11
1.79346e-11
1.59865e-11
1.42459e-11
1.2691e-11
1.13025e-11
1.00629e-11
8.9566e-12
7.96958e-12
7.08922e-12
6.30424e-12
5.60451e-12
4.98097e-12
4.42548e-12
3.93076e-12
3.49031e-12
3.09829e-12
2.74948e-12
2.43921e-12
2.1633e-12
1.91803e-12
1.70005e-12
1.5064e-12
1.3344e-12
1.18169e-12
1.04614e-12
9.25862e-13
8.19164e-13
7.24544e-13
6.4066e-13
5.66317e-13
5.0045e-13
4.4211e-13
3.90453e-13
3.44727e-13
3.04264e-13
2.68469e-13
2.36814e-13
2.08827e-13
1.84092e-13
1.62238e-13
1.42935e-13
1.2589e-13
1.10844e-13
9.75662e-14
8.5853e-14
7.5523e-14
6.64157e-14
5.83888e-14
5.13164e-14
4.50868e-14
3.96014e-14
3.47727e-14
3.05235e-14
2.67853e-14
2.34978e-14
2.06074e-14
1.8067e-14
1.58349e-14
1.38744e-14
1.21528e-14
1.06416e-14
9.31548e-15
8.15209e-15
7.1318e-15
6.23729e-15
5.45329e-15
4.76638e-15
4.16471e-15
3.63787e-15
3.17669e-15
2.77313e-15
2.42009e-15
2.11134e-15
1.84142e-15
1.60551e-15
1.39939e-15
1.21937e-15
1.06217e-15
9.24962e-16
8.05232e-16
7.00789e-16
6.0971e-16
5.30311e-16
4.61118e-16
4.00839e-16
3.48344e-16
3.02644e-16
2.62873e-16
2.28278e-16
1.98195e-16
1.72049e-16
1.49336e-16
1.29616e-16
1.12506e-16
9.76718e-17
8.48222e-17
7.37045e-17
6.40986e-17
5.5814e-17
4.86854e-17
4.25703e-17
3.73458e-17
3.29066e-17
2.91629e-17
2.60388e-17
2.34707e-17
2.14063e-17
1.98034e-17
1.86292e-17
1.78594e-17
1.74785e-17
)
;
    }
    Wall
    {
        type            calculated;
        value           nonuniform List<scalar> 
400
(
0.0282664
0.0293579
0.030294
0.0310615
0.0316612
0.0320999
0.0323872
0.0325341
0.0325518
0.0324519
0.0322455
0.0319436
0.0315566
0.0310945
0.0305666
0.0299817
0.0293479
0.028673
0.0279638
0.0272268
0.0264679
0.0256925
0.0249055
0.0241111
0.0233134
0.0225159
0.0217217
0.0209336
0.020154
0.0193851
0.0186287
0.0178864
0.0171594
0.0164491
0.0157562
0.0150815
0.0144257
0.0137891
0.0131721
0.0125749
0.0119975
0.01144
0.0109022
0.0103841
0.00988544
0.00940591
0.0089452
0.00850298
0.00807885
0.0076724
0.00728318
0.00691074
0.00655461
0.0062143
0.00588932
0.00557918
0.00528337
0.0050014
0.00473278
0.00447701
0.00423361
0.0040021
0.003782
0.00357286
0.00337422
0.00318565
0.0030067
0.00283697
0.00267604
0.00252352
0.00237902
0.00224219
0.00211265
0.00199008
0.00187412
0.00176447
0.00166082
0.00156286
0.00147033
0.00138294
0.00130043
0.00122256
0.00114908
0.00107978
0.00101442
0.000952806
0.000894736
0.000840019
0.000788476
0.000739936
0.000694236
0.000651218
0.000610737
0.000572652
0.000536828
0.000503141
0.00047147
0.0004417
0.000413725
0.000387442
0.000362753
0.000339568
0.0003178
0.000297365
0.000278188
0.000260194
0.000243313
0.000227481
0.000212635
0.000198716
0.000185671
0.000173445
0.000161991
0.000151261
0.000141213
0.000131804
0.000122996
0.000114752
0.000107038
9.98217e-05
9.30714e-05
8.67589e-05
8.08571e-05
7.53402e-05
7.01845e-05
6.53672e-05
6.08671e-05
5.66643e-05
5.27399e-05
4.90763e-05
4.5657e-05
4.24663e-05
3.94896e-05
3.67133e-05
3.41243e-05
3.17106e-05
2.94609e-05
2.73644e-05
2.54113e-05
2.3592e-05
2.18978e-05
2.03205e-05
1.88524e-05
1.74862e-05
1.62152e-05
1.5033e-05
1.39336e-05
1.29115e-05
1.19615e-05
1.10788e-05
1.02587e-05
9.49695e-06
8.78965e-06
8.13304e-06
7.52364e-06
6.95818e-06
6.43363e-06
5.94716e-06
5.49611e-06
5.078e-06
4.69053e-06
4.33155e-06
3.99903e-06
3.69112e-06
3.40606e-06
3.14222e-06
2.89808e-06
2.67224e-06
2.46337e-06
2.27025e-06
2.09174e-06
1.92677e-06
1.77436e-06
1.63359e-06
1.5036e-06
1.3836e-06
1.27285e-06
1.17066e-06
1.07639e-06
9.89467e-07
9.09323e-07
8.35454e-07
7.67387e-07
7.04682e-07
6.46932e-07
5.9376e-07
5.44816e-07
4.99776e-07
4.58339e-07
4.20227e-07
3.85183e-07
3.52969e-07
3.23364e-07
2.96164e-07
2.7118e-07
2.48239e-07
2.27178e-07
2.07848e-07
1.90113e-07
1.73845e-07
1.58927e-07
1.45251e-07
1.32716e-07
1.2123e-07
1.10709e-07
1.01073e-07
9.22521e-08
8.41781e-08
7.67901e-08
7.00318e-08
6.3851e-08
5.82001e-08
5.30349e-08
4.83152e-08
4.40035e-08
4.00658e-08
3.64706e-08
3.31889e-08
3.01944e-08
2.74626e-08
2.49711e-08
2.26995e-08
2.06289e-08
1.8742e-08
1.70231e-08
1.54576e-08
1.40322e-08
1.27348e-08
1.15541e-08
1.048e-08
9.50317e-09
8.615e-09
7.80768e-09
7.07405e-09
6.40759e-09
5.8023e-09
5.25274e-09
4.7539e-09
4.30125e-09
3.8906e-09
3.51819e-09
3.18053e-09
2.87447e-09
2.59714e-09
2.34591e-09
2.11839e-09
1.9124e-09
1.72595e-09
1.55724e-09
1.40462e-09
1.26661e-09
1.14183e-09
1.02906e-09
9.27157e-10
8.3511e-10
7.51989e-10
6.76948e-10
6.09222e-10
5.48115e-10
4.92997e-10
4.43296e-10
3.9849e-10
3.58111e-10
3.21731e-10
2.88965e-10
2.5946e-10
2.32901e-10
2.09001e-10
1.87499e-10
1.68161e-10
1.50774e-10
1.35145e-10
1.21102e-10
1.08486e-10
9.71561e-11
8.69843e-11
7.78549e-11
6.96633e-11
6.23155e-11
5.57264e-11
4.98195e-11
4.45257e-11
3.97828e-11
3.55347e-11
3.17309e-11
2.83259e-11
2.5279e-11
2.25531e-11
2.01153e-11
1.79356e-11
1.59875e-11
1.42467e-11
1.26918e-11
1.13032e-11
1.00635e-11
8.95717e-12
7.97009e-12
7.08968e-12
6.30465e-12
5.60488e-12
4.9813e-12
4.42577e-12
3.93103e-12
3.49055e-12
3.09851e-12
2.74967e-12
2.43938e-12
2.16345e-12
1.91816e-12
1.70018e-12
1.50651e-12
1.3345e-12
1.18178e-12
1.04622e-12
9.25932e-13
8.19227e-13
7.246e-13
6.4071e-13
5.66361e-13
5.00489e-13
4.42145e-13
3.90484e-13
3.44755e-13
3.04289e-13
2.68491e-13
2.36833e-13
2.08845e-13
1.84108e-13
1.62252e-13
1.42947e-13
1.25901e-13
1.10853e-13
9.75748e-14
8.58606e-14
7.55298e-14
6.64217e-14
5.83941e-14
5.13211e-14
4.5091e-14
3.96051e-14
3.4776e-14
3.05264e-14
2.67879e-14
2.35e-14
2.06094e-14
1.80688e-14
1.58365e-14
1.38758e-14
1.21541e-14
1.06427e-14
9.31643e-15
8.15293e-15
7.13254e-15
6.23794e-15
5.45387e-15
4.76688e-15
4.16515e-15
3.63826e-15
3.17704e-15
2.77343e-15
2.42036e-15
2.11158e-15
1.84163e-15
1.60569e-15
1.39955e-15
1.21951e-15
1.0623e-15
9.2507e-16
8.05327e-16
7.00872e-16
6.09783e-16
5.30375e-16
4.61174e-16
4.00888e-16
3.48387e-16
3.02681e-16
2.62906e-16
2.28306e-16
1.9822e-16
1.72071e-16
1.49356e-16
1.29633e-16
1.12521e-16
9.76847e-17
8.48335e-17
7.37143e-17
6.41072e-17
5.58215e-17
4.8692e-17
4.25761e-17
3.73509e-17
3.29111e-17
2.91669e-17
2.60424e-17
2.3474e-17
2.14093e-17
1.98061e-17
1.86316e-17
1.78618e-17
1.74808e-17
)
;
    }
}


// ************************************************************************* //
