/*--------------------------------*- C++ -*----------------------------------*\
  =========                 |
  \\      /  F ield         | OpenFOAM: The Open Source CFD Toolbox
   \\    /   O peration     | Website:  https://openfoam.org
    \\  /    A nd           | Version:  10
     \\/     M anipulation  |
\*---------------------------------------------------------------------------*/
FoamFile
{
    format      ascii;
    class       volScalarField;
    location    "4";
    object      Ma;
}
// * * * * * * * * * * * * * * * * * * * * * * * * * * * * * * * * * * * * * //

dimensions      [0 0 0 0 0 0 0];

internalField   nonuniform List<scalar> 
5250
(
3
2.99997
2.99991
2.99975
2.99942
2.99844
2.99645
2.99041
2.97826
2.94245
2.86292
2.65179
2.17787
1.29325
0.534964
0.266782
0.323337
0.338848
0.305203
0.249786
0.198665
0.157701
0.116961
0.072637
0.0399153
3
2.99997
2.99991
2.99977
2.9994
2.99853
2.99637
2.99089
2.97806
2.94418
2.86414
2.65823
2.18886
1.31075
0.54409
0.267758
0.325626
0.341957
0.308566
0.253999
0.204105
0.164474
0.125832
0.0864119
0.0624737
3
2.99997
2.99991
2.99978
2.99942
2.99858
2.9965
2.99118
2.97887
2.94595
2.869
2.66965
2.21396
1.3503
0.56532
0.272622
0.332739
0.350981
0.318495
0.266043
0.218817
0.182262
0.148139
0.116442
0.0998978
3
2.99997
2.99993
2.99977
2.99949
2.99856
2.99686
2.99131
2.98042
2.94831
2.87654
2.6864
2.25267
1.41266
0.598159
0.282136
0.344924
0.366011
0.334989
0.285353
0.241397
0.208469
0.17923
0.153735
0.141071
3
2.99998
2.99993
2.99979
2.99953
2.99866
2.99708
2.99191
2.98182
2.95193
2.88549
2.70881
2.30287
1.49795
0.64268
0.299618
0.363569
0.387517
0.358044
0.311534
0.270614
0.241216
0.216264
0.195428
0.185197
3
2.99998
2.99993
2.99981
2.99955
2.99881
2.99727
2.99267
2.98345
2.95575
2.89644
2.73424
2.36281
1.60569
0.700318
0.330669
0.391811
0.416999
0.388912
0.345262
0.307041
0.280675
0.259661
0.24301
0.235349
3
2.99998
2.99994
2.99983
2.9996
2.99891
2.99751
2.99347
2.98461
2.96085
2.905
2.76128
2.42156
1.7168
0.764012
0.367097
0.424108
0.449051
0.423743
0.384539
0.349798
0.326967
0.310135
0.298376
0.295144
3
2.99998
2.99995
2.99984
2.99964
2.99902
2.99771
2.99412
2.98583
2.96471
2.91303
2.78326
2.46978
1.80596
0.832615
0.404826
0.450587
0.472177
0.454863
0.424229
0.395982
0.378825
0.368346
0.364158
0.370901
3
2.99999
2.99995
2.99988
2.99963
2.9992
2.99774
2.99505
2.9865
2.96906
2.91966
2.8054
2.51523
1.89744
0.92732
0.464586
0.471005
0.486061
0.482676
0.462791
0.444028
0.435032
0.43402
0.444115
0.473985
3
2.99999
2.99996
2.99988
2.9997
2.99923
2.99809
2.99535
2.98824
2.97193
2.92836
2.82557
2.56426
1.99507
1.04636
0.536259
0.486345
0.502096
0.509448
0.500228
0.492661
0.493947
0.50912
0.549006
0.650485
3
2.99999
2.99997
2.99989
2.99975
2.99928
2.99843
2.9956
2.99041
2.97375
2.93969
2.8434
2.61872
2.09963
1.19188
0.620469
0.503968
0.521312
0.536528
0.5373
0.540116
0.554729
0.592813
0.675774
0.844232
3
2.99999
2.99997
2.99992
2.99976
2.99944
2.99853
2.99651
2.99124
2.97846
2.94695
2.8679
2.67182
2.21793
1.37057
0.719428
0.529214
0.546276
0.56575
0.574602
0.586585
0.614568
0.671604
0.778274
0.960473
3
3
2.99998
2.99992
2.99982
2.9995
2.99885
2.99699
2.99285
2.98206
2.95604
2.89096
2.72938
2.34605
1.58741
0.835724
0.572675
0.584665
0.601786
0.615318
0.633452
0.670234
0.736133
0.844008
1.00333
3
3
2.99998
2.99994
2.99986
2.99959
2.9991
2.99747
2.99452
2.98492
2.966
2.91114
2.78695
2.47521
1.83404
0.967886
0.636241
0.633886
0.645994
0.661761
0.681805
0.720488
0.785852
0.884243
1.02009
3.00001
3
2.99999
2.99995
2.99988
2.99966
2.99927
2.99794
2.99551
2.98777
2.97213
2.92762
2.82591
2.56597
2.00789
1.10982
0.704533
0.673058
0.686887
0.704771
0.727132
0.765193
0.825929
0.912771
1.0291
3.00001
3
2.99999
2.99997
2.9999
2.99977
2.99933
2.99854
2.99596
2.99095
2.97606
2.94383
2.85662
2.65009
2.17176
1.32187
0.809404
0.704412
0.716874
0.737416
0.765625
0.803543
0.859721
0.936203
1.03618
3.00001
3
2.99999
2.99997
2.99992
2.99981
2.99949
2.99883
2.99684
2.99298
2.98091
2.95674
2.88702
2.72741
2.33823
1.5841
0.940369
0.745977
0.748092
0.76772
0.798958
0.83688
0.888723
0.956911
1.04312
3.00001
3
3
2.99998
2.99995
2.99984
2.99965
2.99904
2.99781
2.99432
2.98654
2.96636
2.91816
2.79725
2.51006
1.90187
1.1025
0.812482
0.791508
0.805561
0.833879
0.870124
0.916511
0.976716
1.05142
3.00001
3
3
2.99999
2.99996
2.99988
2.99973
2.99926
2.99839
2.9955
2.99021
2.97345
2.93909
2.84329
2.62242
2.11869
1.28649
0.888241
0.828555
0.840577
0.865878
0.901479
0.943407
0.996251
1.06133
3.00001
3.00001
3
2.99999
2.99997
2.99991
2.9998
2.99945
2.99875
2.99675
2.99232
2.98074
2.95316
2.88392
2.71389
2.31633
1.55797
1.01566
0.871616
0.873189
0.893836
0.927883
0.968289
1.01546
1.07232
3.00001
3.00001
3
3
2.99998
2.99994
2.99985
2.99961
2.9991
2.99762
2.99469
2.9857
2.96793
2.91607
2.80136
2.51273
1.915
1.186
0.936844
0.913287
0.926465
0.955498
0.993469
1.03587
1.08525
3.00001
3.00001
3
3
2.99999
2.99996
2.99989
2.99975
2.99929
2.99846
2.99575
2.99062
2.9751
2.94233
2.8533
2.64685
2.17462
1.39251
1.01725
0.950777
0.959532
0.983426
1.01777
1.05615
1.10014
3.00001
3.00001
3.00001
3
2.99999
2.99997
2.99993
2.99981
2.99951
2.99888
2.99701
2.99335
2.98206
2.95967
2.89469
2.74915
2.39217
1.6987
1.15294
1.00079
0.993973
1.00901
1.03874
1.07574
1.11602
3.00001
3.00001
3.00001
3
3
2.99999
2.99995
2.99988
2.99966
2.99925
2.99796
2.99542
2.98805
2.97228
2.92987
2.83201
2.58949
2.06774
1.34796
1.07655
1.03343
1.04027
1.06283
1.09592
1.13272
3.00001
3.00001
3.00001
3
3
2.99999
2.99997
2.99992
2.99977
2.99948
2.99859
2.99693
2.9916
2.98146
2.95113
2.88588
2.71353
2.33037
1.61698
1.18711
1.0773
1.07206
1.08558
1.11405
1.14953
3.00001
3.00001
3.00001
3.00001
3
3
2.99998
2.99994
2.99986
2.99964
2.99911
2.99789
2.99462
2.98769
2.96805
2.92629
2.81372
2.56027
2.0073
1.36287
1.14023
1.10795
1.11385
1.1357
1.16648
3.00001
3.00001
3.00001
3.00001
3
3
2.99999
2.99996
2.99991
2.99976
2.99942
2.99857
2.99651
2.99163
2.9791
2.95056
2.87627
2.70315
2.30032
1.60428
1.23219
1.14704
1.14297
1.15621
1.18233
3.00001
3.00001
3.00001
3.00001
3.00001
3
3
2.99998
2.99994
2.99984
2.99964
2.99903
2.99788
2.99421
2.98748
2.96637
2.9238
2.80615
2.545
1.98086
1.39736
1.20384
1.17582
1.18162
1.20223
3.00001
3.00001
3.00001
3.00001
3.00001
3
3
2.99999
2.99997
2.9999
2.99977
2.99938
2.99861
2.9964
2.99165
2.97916
2.94996
2.87758
2.70398
2.30654
1.64047
1.29736
1.21663
1.2104
1.22123
3.00001
3.00001
3.00001
3.00001
3.00001
3.00001
3
3
2.99998
2.99995
2.99985
2.99965
2.99905
2.99794
2.99437
2.98779
2.96762
2.92622
2.81415
2.56395
2.02381
1.46434
1.27395
1.24277
1.24548
3.00001
3.00001
3.00001
3.00001
3.00001
3.00001
3
3
2.99999
2.99997
2.99992
2.99976
2.99947
2.99857
2.99683
2.99174
2.98103
2.9523
2.88676
2.72266
2.35361
1.7175
1.37294
1.28386
1.27345
3.00001
3.00001
3.00001
3.00001
3.00001
3.00001
3.00001
3
3
2.99998
2.99995
2.99986
2.99968
2.99913
2.99813
2.99495
2.98892
2.97112
2.93401
2.83502
2.61422
2.12619
1.55454
1.34448
1.30706
3.00001
3.00001
3.00001
3.00001
3.00001
3.00001
3.00001
3.00001
3
2.99999
2.99997
2.99992
2.9998
2.99948
2.99884
2.9969
2.9933
2.98194
2.96011
2.89709
2.76003
2.42641
1.82785
1.44635
1.34459
3.00001
3.00001
3.00001
3.00001
3.00001
3.00001
3.00001
3.00001
3
3
2.99998
2.99996
2.99988
2.99972
2.99926
2.9983
2.99576
2.98991
2.97577
2.94088
2.85904
2.66196
2.22688
1.64983
1.41587
3.00001
3.00001
3.00001
3.00001
3.00001
3.00001
3.00001
3.00001
3.00001
3
2.99999
2.99998
2.99993
2.99983
2.99956
2.99902
2.99738
2.99434
2.98477
2.96661
2.91367
2.80018
2.51851
1.97867
1.54599
3.00001
3.00001
3.00001
3.00001
3.00001
3.00001
3.00001
3.00001
3.00001
3
3
2.99999
2.99997
2.9999
2.99977
2.99937
2.99864
2.99635
2.992
2.97922
2.95273
2.88175
2.72281
2.35077
1.78403
3.00001
3.00001
3.00001
3.00001
3.00001
3.00001
3.00001
3.00001
3.00001
3.00001
3
3
2.99998
2.99995
2.99987
2.99966
2.99921
2.99795
2.99553
2.98814
2.9742
2.9331
2.84794
2.63058
2.18493
3.00001
3.00001
3.00001
3.00001
3.00001
3.00001
3.00001
3.00001
3.00001
3.00001
3.00001
3
2.99999
2.99997
2.99992
2.99982
2.99951
2.99894
2.99715
2.99389
2.9837
2.96416
2.90835
2.78853
2.49458
3.00001
3.00001
3.00001
3.00001
3.00001
3.00001
3.00001
3.00001
3.00001
3.00001
3.00001
3
3
2.99999
2.99996
2.9999
2.99975
2.99935
2.99856
2.99622
2.99182
2.97831
2.95233
2.87884
2.72046
3.00001
3.00001
3.00001
3.00001
3.00001
3.00001
3.00001
3.00001
3.00001
3.00001
3.00001
3.00001
3
3
2.99998
2.99995
2.99986
2.99966
2.99916
2.99808
2.99514
2.98918
2.97222
2.93785
2.84509
3.00001
3.00001
3.00001
3.00001
3.00001
3.00001
3.00001
3.00001
3.00001
3.00001
3.00001
3.00001
3.00001
3
2.99999
2.99997
2.99993
2.99981
2.99955
2.99892
2.99736
2.99391
2.98469
2.96548
2.91296
3.00001
3.00001
3.00001
3.00001
3.00001
3.00001
3.00001
3.00001
3.00001
3.00001
3.00001
3.00001
3.00001
3
3
2.99999
2.99997
2.9999
2.99977
2.99938
2.99867
2.99646
2.99229
2.98019
2.9553
3.00001
3.00001
3.00001
3.00001
3.00001
3.00001
3.00001
3.00001
3.00001
3.00001
3.00001
3.00001
3.00001
3.00001
3
3
2.99998
2.99995
2.99986
2.9997
2.99921
2.99825
2.99561
2.98991
2.97558
3.00001
3.00001
3.00001
3.00001
3.00001
3.00001
3.00001
3.00001
3.00001
3.00001
3.00001
3.00001
3.00001
3.00001
3.00001
3
2.99999
2.99998
2.99993
2.99983
2.99957
2.99902
2.9975
2.99455
2.98573
3.00001
3.00001
3.00001
3.00001
3.00001
3.00001
3.00001
3.00001
3.00001
3.00001
3.00001
3.00001
3.00001
3.00001
3.00001
3
3
2.99999
2.99996
2.9999
2.99973
2.99938
2.99844
2.99635
2.99121
3.00001
3.00001
3.00001
3.00001
3.00001
3.00001
3.00001
3.00001
3.00001
3.00001
3.00001
3.00001
3.00001
3.00001
3.00001
3
3
2.99999
2.99997
2.99992
2.99981
2.99951
2.9988
2.99711
2.99279
3.00001
3.00001
3.00001
3.00001
3.00001
3.00001
3.00001
3.00001
3.00001
3.00001
3.00001
3.00001
3.00001
3.00001
3.00001
3.00001
3
2.99999
2.99998
2.99993
2.99984
2.99954
2.999
2.99718
2.99389
3.00001
3.00001
3.00001
3.00001
3.00001
3.00001
3.00001
3.00001
3.00001
3.00001
3.00001
3.00001
3.00001
3.00001
3.00001
3.00001
3
3
2.99998
2.99994
2.99984
2.99957
2.99901
2.99734
2.99401
3.00001
3.00001
3.00001
3.00001
3.00001
3.00001
3.00001
3.00001
3.00001
3.00001
3.00001
3.00001
3.00001
3.00001
3.00001
3.00001
3
3
2.99998
2.99994
2.99983
2.99962
2.99891
2.99763
2.99343
3.00001
3.00001
3.00001
3.00001
3.00001
3.00001
3.00001
3.00001
3.00001
3.00001
3.00001
3.00001
3.00001
3.00001
3.00001
3.00001
3
3
2.99998
2.99994
2.99984
2.9996
2.99898
2.99747
2.99385
1.11968
1.32446
1.38847
1.35107
1.27892
1.19067
1.10838
1.06571
1.05672
1.05767
1.05619
1.04829
1.02623
0.975492
0.868402
0.657161
0.376179
0.165072
0.0872924
0.104442
0.191926
0.275342
0.352278
0.40839
0.444083
0.470604
0.495062
0.516825
0.532264
0.540387
0.543243
0.537034
0.516151
0.479004
0.430228
0.375836
0.319503
0.264154
0.209743
0.158606
0.110818
0.0665826
0.0341133
0.0381761
0.0699362
0.106274
0.14034
0.172294
0.201915
0.230384
0.260053
0.289083
0.316905
0.343062
0.368647
0.393022
0.417074
0.44006
0.462773
0.484546
0.50609
0.52679
0.547326
0.567066
0.586689
0.605563
0.624375
0.642468
0.66053
0.677912
0.695288
0.71204
0.728795
0.74497
0.761181
0.776814
0.792553
0.807671
0.822979
0.837602
0.852485
0.866641
0.881111
0.894808
0.908905
0.92215
0.935894
0.948736
0.962116
0.9746
0.987605
0.999717
1.01231
1.02392
1.03596
1.04679
1.05769
1.06661
1.07425
1.07866
1.13406
1.25252
1.31878
1.36339
1.40873
1.44364
1.45245
1.44717
1.42897
1.40148
1.37928
1.36514
1.3472
1.3101
1.2279
1.04875
0.760786
0.527052
0.404331
0.322809
0.246806
0.181394
0.118363
0.0707556
0.0934251
0.154253
0.21694
0.270272
0.303929
0.31688
0.31738
0.305426
0.282475
0.240969
0.195034
0.146306
0.101811
0.0714996
0.0663556
0.0898275
0.123636
0.158062
0.191717
0.222386
0.253608
0.284224
0.314279
0.342676
0.369474
0.394604
0.420739
0.446835
0.471842
0.495382
0.518374
0.540407
0.562105
0.582934
0.603522
0.623299
0.642923
0.661795
0.680576
0.698637
0.716665
0.733986
0.751331
0.767977
0.784697
0.800731
0.81689
0.832363
0.848026
0.86298
0.878211
0.892682
0.907524
0.92155
0.936016
0.949636
0.963726
0.976958
0.990697
1.00354
1.01695
1.02944
1.04252
1.05469
1.06745
1.07934
1.09181
1.10346
1.11565
1.12695
1.13865
1.14923
1.15984
1.16867
1.17619
1.18061
1.13398
1.2421
1.33957
1.4329
1.51904
1.58707
1.61918
1.62128
1.61565
1.59976
1.57659
1.55384
1.53258
1.50146
1.43996
1.30871
1.07692
0.82511
0.684532
0.605939
0.539369
0.47679
0.412702
0.34807
0.282769
0.22061
0.160332
0.103047
0.0547811
0.034354
0.0433945
0.0598466
0.0547573
0.0826737
0.11554
0.154317
0.191946
0.227492
0.259523
0.290362
0.320611
0.349637
0.377482
0.4036
0.429337
0.454445
0.479261
0.503095
0.525779
0.546857
0.568351
0.590452
0.612207
0.632604
0.652397
0.671448
0.690318
0.708562
0.726661
0.744173
0.761551
0.778406
0.795149
0.8114
0.827578
0.843268
0.858918
0.874089
0.889243
0.903936
0.918638
0.932899
0.947204
0.961065
0.975027
0.988519
1.00216
1.01531
1.02862
1.04146
1.05445
1.06697
1.07968
1.09189
1.10431
1.11626
1.12841
1.14019
1.15216
1.16378
1.17552
1.18687
1.19831
1.2093
1.22031
1.23069
1.24075
1.2496
1.25685
1.26143
1.1423
1.25013
1.34967
1.44096
1.52208
1.5896
1.64189
1.6798
1.69924
1.70308
1.70027
1.69015
1.67124
1.64269
1.59544
1.50239
1.32667
1.0745
0.905767
0.83107
0.77042
0.709867
0.654324
0.600748
0.543778
0.485726
0.428645
0.372463
0.319693
0.275978
0.248241
0.237776
0.260053
0.296442
0.335719
0.374191
0.40799
0.436336
0.461369
0.484148
0.506518
0.52793
0.54905
0.569144
0.589217
0.608779
0.628463
0.64765
0.666174
0.683244
0.700506
0.718534
0.737102
0.754614
0.771621
0.788028
0.804345
0.820244
0.836091
0.851527
0.86691
0.881914
0.896878
0.91148
0.926056
0.940258
0.954458
0.968278
0.982129
0.9956
1.00914
1.02228
1.03553
1.04834
1.06134
1.07385
1.08661
1.09887
1.11137
1.12338
1.13562
1.14736
1.15934
1.17083
1.18262
1.194
1.20568
1.21692
1.2284
1.23944
1.25069
1.26148
1.27247
1.28294
1.29355
1.30346
1.31329
1.32182
1.32913
1.33346
1.14439
1.24927
1.34518
1.43282
1.51247
1.58402
1.64671
1.6998
1.74064
1.7664
1.77497
1.77377
1.76774
1.75266
1.72029
1.6535
1.51955
1.30043
1.10016
1.00254
0.942765
0.892532
0.848331
0.801243
0.750344
0.700841
0.648864
0.595281
0.545324
0.501571
0.466939
0.457669
0.475415
0.508384
0.544689
0.579129
0.607087
0.627345
0.642878
0.656638
0.670397
0.684392
0.698652
0.712729
0.727017
0.741221
0.7558
0.770327
0.784736
0.798015
0.81126
0.825129
0.840132
0.854767
0.869073
0.882896
0.896675
0.910175
0.923747
0.93704
0.950441
0.963591
0.976836
0.989877
1.00294
1.0158
1.02863
1.04123
1.05384
1.06619
1.07867
1.09085
1.10321
1.11524
1.12742
1.13927
1.15123
1.16288
1.17465
1.18609
1.19774
1.20904
1.22061
1.23182
1.24322
1.25422
1.26533
1.27617
1.28705
1.29776
1.3085
1.31903
1.3296
1.33986
1.3501
1.35987
1.36936
1.37794
1.38515
1.38967
1.14171
1.24122
1.33315
1.41762
1.49515
1.56626
1.6298
1.68625
1.73351
1.77235
1.80131
1.81762
1.82008
1.81588
1.80131
1.76541
1.68366
1.52136
1.28074
1.13881
1.07839
1.03012
0.989696
0.954337
0.915867
0.869579
0.819926
0.771876
0.721154
0.66967
0.629241
0.62039
0.638312
0.671886
0.710117
0.744933
0.772868
0.790424
0.799226
0.804439
0.809942
0.816528
0.824617
0.833194
0.842549
0.852145
0.862472
0.872983
0.883907
0.894059
0.904089
0.914393
0.926178
0.938357
0.950555
0.962318
0.974207
0.985906
0.99782
1.00959
1.0215
1.03326
1.04513
1.05687
1.06876
1.08055
1.09245
1.10421
1.11597
1.12755
1.13912
1.15054
1.16207
1.17349
1.18507
1.19649
1.20801
1.21923
1.23049
1.24144
1.25251
1.26333
1.27432
1.28509
1.29607
1.30681
1.31773
1.32827
1.339
1.34926
1.35976
1.36983
1.38014
1.3901
1.40023
1.40986
1.41949
1.42799
1.43554
1.43993
1.13758
1.23051
1.3174
1.39903
1.47405
1.54377
1.60768
1.66554
1.71778
1.76309
1.80173
1.83145
1.85139
1.85642
1.85208
1.83596
1.79382
1.69403
1.50298
1.28391
1.17853
1.13664
1.10367
1.06799
1.03458
0.998059
0.954595
0.90624
0.84884
0.785961
0.740742
0.7342
0.754759
0.791614
0.834337
0.873108
0.901994
0.922193
0.930448
0.930482
0.927958
0.92711
0.928475
0.931699
0.936337
0.941862
0.948217
0.955003
0.962544
0.969881
0.977112
0.984352
0.993048
1.00279
1.01305
1.02311
1.03339
1.04356
1.05406
1.06441
1.07506
1.08555
1.09633
1.10701
1.11795
1.12883
1.13993
1.15097
1.16215
1.17323
1.18438
1.1954
1.20649
1.21745
1.22853
1.23947
1.25054
1.26148
1.27254
1.28344
1.29438
1.30507
1.31587
1.32638
1.33711
1.34755
1.35823
1.36869
1.37926
1.38968
1.40004
1.41026
1.4204
1.43029
1.44021
1.44972
1.4592
1.46788
1.47549
1.4804
1.13497
1.2199
1.3021
1.3791
1.45228
1.51944
1.58291
1.64061
1.69386
1.74206
1.78398
1.82103
1.84981
1.87085
1.87696
1.87247
1.85473
1.80663
1.68947
1.48746
1.30344
1.21817
1.18487
1.15859
1.12674
1.09101
1.05156
1.00196
0.930419
0.853949
0.8119
0.811446
0.835019
0.874849
0.924199
0.96838
0.998268
1.0175
1.02966
1.03238
1.0269
1.01968
1.01433
1.01162
1.01123
1.01272
1.01558
1.01939
1.02434
1.02956
1.03491
1.04014
1.04646
1.05406
1.063
1.07201
1.08139
1.09063
1.10028
1.10982
1.11975
1.12956
1.1397
1.14984
1.16027
1.17078
1.18152
1.19226
1.20318
1.21394
1.22488
1.23558
1.24646
1.25716
1.26802
1.27878
1.28975
1.30058
1.3116
1.32231
1.33326
1.3438
1.35458
1.365
1.37557
1.38593
1.39638
1.40672
1.41715
1.4274
1.43783
1.44789
1.4582
1.468
1.47803
1.4875
1.49697
1.50564
1.51333
1.51822
1.13477
1.21181
1.28774
1.36122
1.43018
1.49604
1.55691
1.61459
1.66727
1.71644
1.76111
1.80071
1.83653
1.86486
1.88637
1.89231
1.88738
1.86768
1.8141
1.68336
1.48086
1.32376
1.25609
1.22444
1.19812
1.16488
1.11868
1.05642
0.967222
0.88629
0.855583
0.861534
0.887111
0.932661
0.987128
1.03462
1.06782
1.08743
1.09924
1.10591
1.10474
1.09689
1.08681
1.07865
1.07317
1.07053
1.07023
1.07157
1.07432
1.0779
1.08212
1.0861
1.09085
1.09676
1.10447
1.11284
1.12168
1.13058
1.13979
1.14902
1.15855
1.168
1.1778
1.18747
1.19761
1.20762
1.21812
1.22846
1.23917
1.24966
1.26044
1.271
1.28181
1.29239
1.30326
1.31395
1.32485
1.33554
1.3464
1.35709
1.36787
1.37849
1.38914
1.39959
1.41014
1.42039
1.43086
1.44097
1.4514
1.46147
1.47184
1.4819
1.49212
1.50209
1.51206
1.52173
1.53122
1.54001
1.54784
1.55277
1.13716
1.2061
1.27622
1.34459
1.41079
1.47307
1.53287
1.58831
1.64096
1.68968
1.73487
1.77692
1.81392
1.84816
1.87541
1.89588
1.90067
1.89493
1.87306
1.81468
1.67623
1.47702
1.34445
1.28676
1.2505
1.21501
1.16265
1.07569
0.966973
0.892831
0.875682
0.887764
0.920718
0.972994
1.02936
1.07645
1.1114
1.1349
1.14806
1.15513
1.15844
1.15584
1.14747
1.1365
1.12761
1.12077
1.11726
1.11629
1.11732
1.11992
1.12358
1.12727
1.13145
1.13635
1.14319
1.15118
1.15999
1.16882
1.17804
1.18716
1.19661
1.20596
1.21563
1.22521
1.23519
1.2451
1.25548
1.26572
1.27639
1.28682
1.29757
1.30807
1.31879
1.32934
1.34007
1.35058
1.36121
1.37169
1.38231
1.39277
1.40343
1.41384
1.42452
1.43483
1.44544
1.45562
1.46607
1.47614
1.48639
1.49637
1.50646
1.51635
1.52634
1.53608
1.54598
1.55544
1.565
1.57368
1.58165
1.58664
1.14224
1.20397
1.2676
1.33119
1.39319
1.45293
1.50978
1.56416
1.61512
1.66331
1.70869
1.75036
1.79009
1.82482
1.85773
1.88383
1.90304
1.90644
1.89974
1.87538
1.8111
1.66662
1.4706
1.35937
1.30137
1.24841
1.17638
1.05814
0.939925
0.886245
0.882871
0.900543
0.942417
0.998961
1.05372
1.09892
1.13441
1.1605
1.17834
1.18834
1.19317
1.19555
1.19388
1.18733
1.17796
1.16997
1.16351
1.16088
1.16047
1.16229
1.16575
1.16973
1.17418
1.17893
1.18516
1.19276
1.20158
1.21051
1.21978
1.22889
1.23831
1.24761
1.25726
1.26679
1.27663
1.28635
1.29638
1.30631
1.31658
1.32672
1.33716
1.34742
1.35802
1.36834
1.37891
1.38913
1.39962
1.40973
1.42013
1.43018
1.44052
1.45057
1.46087
1.47092
1.48117
1.49119
1.50132
1.51122
1.52119
1.53091
1.54074
1.55024
1.55997
1.56927
1.57888
1.58796
1.59723
1.60569
1.61346
1.61848
1.15013
1.20513
1.26244
1.32092
1.37854
1.43512
1.4893
1.54168
1.59124
1.63873
1.68296
1.72574
1.76445
1.80206
1.83504
1.86638
1.89118
1.90843
1.91015
1.90174
1.87391
1.80247
1.65279
1.46021
1.35494
1.27446
1.16178
1.00911
0.900722
0.872162
0.879655
0.908062
0.957526
1.01418
1.0643
1.10623
1.14106
1.16892
1.1909
1.20659
1.21672
1.22312
1.22741
1.22982
1.22741
1.22179
1.21561
1.21154
1.20974
1.21044
1.21321
1.21735
1.22243
1.22733
1.23301
1.23973
1.24801
1.25664
1.26571
1.27458
1.28373
1.29269
1.30203
1.31123
1.32075
1.33009
1.33969
1.34915
1.35892
1.36862
1.37864
1.38861
1.39876
1.40868
1.41877
1.42862
1.43866
1.44845
1.45842
1.4681
1.47798
1.48759
1.49742
1.50699
1.51679
1.52632
1.53607
1.5455
1.55514
1.5644
1.57391
1.58295
1.59231
1.60113
1.61031
1.61889
1.62769
1.63566
1.64304
1.64773
1.1606
1.20922
1.26089
1.3139
1.36737
1.41987
1.47167
1.52114
1.56952
1.61509
1.65934
1.70057
1.74056
1.77727
1.81255
1.84423
1.87371
1.8976
1.91126
1.9112
1.90031
1.86717
1.78539
1.6256
1.42927
1.28696
1.11751
0.939512
0.860224
0.853411
0.868741
0.908869
0.963902
1.01539
1.06067
1.0998
1.13482
1.16573
1.19275
1.21524
1.23385
1.24809
1.25895
1.26817
1.27459
1.27731
1.27568
1.27187
1.26879
1.26762
1.26843
1.27123
1.27583
1.28071
1.28574
1.29098
1.29765
1.30524
1.31354
1.32177
1.3303
1.33861
1.34725
1.35578
1.36468
1.37347
1.38257
1.39151
1.40073
1.40983
1.41932
1.42861
1.43817
1.44748
1.45704
1.46632
1.47582
1.48506
1.49453
1.50373
1.51314
1.52228
1.53162
1.5407
1.54996
1.55901
1.56821
1.57719
1.58633
1.59516
1.6042
1.61283
1.62172
1.6301
1.63878
1.64684
1.65512
1.66253
1.66939
1.6737
1.17251
1.21563
1.2619
1.31004
1.35939
1.40822
1.45691
1.50416
1.55029
1.5945
1.63745
1.67798
1.71736
1.75415
1.78965
1.82201
1.85342
1.87943
1.90254
1.9105
1.90632
1.89006
1.84581
1.74326
1.55243
1.31323
1.05385
0.858591
0.816266
0.825536
0.8552
0.903493
0.955492
1.00302
1.04666
1.08781
1.12657
1.1631
1.19644
1.22696
1.25365
1.27689
1.29595
1.31155
1.32326
1.33235
1.33737
1.33801
1.3354
1.33191
1.33001
1.32972
1.33132
1.33446
1.33846
1.3422
1.34663
1.35206
1.35896
1.36612
1.37377
1.38129
1.38914
1.39683
1.40486
1.4128
1.42112
1.42942
1.43807
1.4467
1.45553
1.46419
1.47309
1.48183
1.49084
1.49964
1.5087
1.51751
1.52657
1.53535
1.54438
1.5531
1.56206
1.57069
1.5796
1.58813
1.59699
1.60545
1.61427
1.62264
1.63142
1.63964
1.64828
1.65628
1.66463
1.67227
1.68009
1.68699
1.69328
1.69735
1.18522
1.22379
1.26541
1.30911
1.35434
1.40014
1.44519
1.4905
1.5339
1.57706
1.61786
1.65817
1.69578
1.73314
1.76722
1.80122
1.83156
1.86061
1.88539
1.90039
1.9004
1.89046
1.86084
1.78848
1.63638
1.35796
0.996772
0.786046
0.765652
0.785059
0.82897
0.885925
0.940514
0.992764
1.04276
1.09078
1.13608
1.17825
1.21721
1.25259
1.28453
1.31306
1.33707
1.35698
1.37231
1.38387
1.39224
1.397
1.39852
1.39611
1.39213
1.38799
1.38578
1.38499
1.3864
1.38871
1.39168
1.39496
1.3998
1.40567
1.41233
1.41907
1.42622
1.4333
1.4407
1.44803
1.45571
1.46341
1.47153
1.47958
1.4879
1.4961
1.50457
1.51286
1.52145
1.52982
1.53852
1.54698
1.55576
1.56428
1.57309
1.58159
1.59037
1.59881
1.60753
1.61585
1.62451
1.63267
1.64124
1.64919
1.65761
1.66531
1.67348
1.68084
1.68861
1.6955
1.70258
1.70869
1.71438
1.71794
1.19955
1.23419
1.27156
1.31141
1.35225
1.39516
1.4372
1.47973
1.52117
1.56223
1.60168
1.64063
1.67724
1.71387
1.74725
1.78117
1.81104
1.84079
1.86544
1.88234
1.88289
1.87396
1.84821
1.78552
1.65216
1.39669
1.04164
0.819923
0.797771
0.822808
0.869176
0.929625
0.988356
1.04247
1.0917
1.13678
1.17898
1.21875
1.25579
1.28955
1.32045
1.34817
1.3731
1.39406
1.41112
1.42447
1.43532
1.44259
1.44702
1.44884
1.44721
1.44276
1.43764
1.43367
1.43155
1.4314
1.43295
1.4351
1.43806
1.44199
1.44747
1.45349
1.46011
1.46672
1.47368
1.48064
1.488
1.49545
1.50318
1.51082
1.51872
1.52651
1.53461
1.54255
1.5508
1.55882
1.56714
1.57517
1.58353
1.59157
1.59996
1.60802
1.61642
1.62444
1.63281
1.64071
1.64904
1.65677
1.66499
1.67251
1.68054
1.68779
1.69547
1.70226
1.70938
1.71551
1.72199
1.72737
1.73207
1.73505
1.21487
1.24759
1.2807
1.31694
1.35422
1.39278
1.43259
1.47209
1.51112
1.55061
1.58768
1.62601
1.66081
1.69693
1.72942
1.76248
1.79231
1.82026
1.84464
1.85627
1.85347
1.84193
1.81197
1.74263
1.61157
1.4113
1.17892
0.972295
0.911293
0.921444
0.946138
0.99127
1.04547
1.09361
1.13612
1.17506
1.21191
1.24672
1.27986
1.31102
1.34045
1.36807
1.39348
1.41636
1.43647
1.45317
1.46673
1.47735
1.48542
1.49003
1.49217
1.49185
1.48856
1.48388
1.47927
1.47632
1.47452
1.47505
1.47662
1.47855
1.48162
1.48615
1.49217
1.49838
1.50494
1.51142
1.5183
1.52516
1.53234
1.53947
1.54695
1.55429
1.56199
1.56949
1.57737
1.585
1.59302
1.60077
1.60891
1.61674
1.62495
1.63277
1.641
1.64873
1.65691
1.6645
1.67256
1.67995
1.6878
1.69491
1.70243
1.70907
1.71607
1.72201
1.72839
1.73369
1.73925
1.74329
1.74637
1.74854
1.23073
1.26106
1.29229
1.32442
1.35908
1.39425
1.43039
1.46793
1.50401
1.54154
1.57705
1.61302
1.64756
1.68129
1.7141
1.74483
1.77454
1.79972
1.81887
1.82188
1.81395
1.79322
1.74622
1.64606
1.50325
1.39154
1.28862
1.14416
1.03065
0.997233
1.00499
1.02314
1.05958
1.10679
1.15013
1.18904
1.2252
1.25938
1.29165
1.32252
1.35199
1.3801
1.40635
1.43072
1.45286
1.47272
1.48957
1.50339
1.51467
1.52392
1.52942
1.53202
1.53276
1.53098
1.52666
1.5218
1.51762
1.5153
1.51474
1.51572
1.51744
1.51978
1.52383
1.52912
1.53527
1.54152
1.54822
1.55474
1.56158
1.56826
1.57534
1.58227
1.58963
1.59679
1.60439
1.61171
1.61948
1.6269
1.63476
1.64221
1.65011
1.65755
1.66542
1.67278
1.68054
1.68773
1.69531
1.70221
1.70951
1.71595
1.72277
1.72848
1.73468
1.73972
1.74529
1.74932
1.75325
1.75531
1.75626
1.75841
1.24481
1.27531
1.30494
1.33468
1.36572
1.39845
1.43161
1.46587
1.50041
1.53492
1.56924
1.60312
1.63618
1.66868
1.69977
1.7296
1.75588
1.77796
1.78471
1.77856
1.76226
1.72368
1.64076
1.51469
1.42402
1.37967
1.34421
1.27947
1.18281
1.10092
1.06866
1.0707
1.08476
1.11419
1.15466
1.19477
1.23238
1.2673
1.2999
1.33101
1.36063
1.38892
1.41559
1.44101
1.46477
1.48687
1.50656
1.52391
1.5382
1.55039
1.56052
1.56745
1.57107
1.57266
1.5723
1.56934
1.56466
1.56012
1.55686
1.55499
1.55519
1.55634
1.55815
1.56101
1.56575
1.57147
1.57784
1.58405
1.59057
1.59688
1.6036
1.61014
1.61714
1.62389
1.63115
1.63805
1.6455
1.6525
1.66004
1.66711
1.67466
1.68173
1.68924
1.6962
1.7036
1.71028
1.71747
1.72364
1.73041
1.73583
1.7418
1.74656
1.75172
1.7558
1.75938
1.76176
1.76275
1.76269
1.76125
1.76375
1.26334
1.28902
1.31769
1.34533
1.37442
1.40401
1.43517
1.46684
1.4987
1.5315
1.56357
1.59582
1.6274
1.65788
1.68744
1.71419
1.73681
1.74663
1.74235
1.72804
1.69366
1.62266
1.50138
1.41232
1.3809
1.37499
1.3701
1.35182
1.30971
1.24112
1.16843
1.12898
1.1246
1.13614
1.15871
1.1932
1.23205
1.26941
1.30411
1.33665
1.36728
1.39611
1.42359
1.44983
1.4749
1.49828
1.52007
1.53976
1.55751
1.57251
1.58549
1.59639
1.60481
1.60942
1.61147
1.61197
1.61043
1.60642
1.60191
1.59755
1.59506
1.59409
1.59476
1.59593
1.59811
1.60188
1.60746
1.61323
1.61951
1.62556
1.63201
1.63814
1.64481
1.65113
1.65805
1.66455
1.67161
1.67825
1.68537
1.69205
1.69919
1.70575
1.7129
1.71919
1.7262
1.73207
1.73858
1.74389
1.74939
1.75401
1.75868
1.76262
1.76597
1.76825
1.76922
1.76924
1.76846
1.76634
1.76062
1.76175
1.28137
1.30208
1.33018
1.35734
1.38408
1.41197
1.44012
1.46995
1.49964
1.5299
1.56043
1.59058
1.62037
1.64902
1.67531
1.698
1.70933
1.70665
1.69317
1.66166
1.59666
1.47792
1.38728
1.35886
1.36147
1.37303
1.385
1.38762
1.37936
1.35045
1.29548
1.22668
1.18413
1.17563
1.18507
1.20248
1.23209
1.26865
1.30549
1.34031
1.37268
1.40272
1.43118
1.45819
1.484
1.50832
1.53138
1.553
1.57301
1.59102
1.60674
1.62022
1.63195
1.64132
1.64722
1.65008
1.65108
1.65064
1.64787
1.64312
1.63889
1.63514
1.63337
1.6329
1.63372
1.63519
1.63815
1.64252
1.64831
1.65407
1.66031
1.66618
1.67247
1.67844
1.68489
1.69095
1.69759
1.70365
1.71045
1.71644
1.72326
1.72915
1.73575
1.74145
1.74751
1.75276
1.75788
1.76226
1.7665
1.77018
1.77325
1.77535
1.77616
1.77606
1.77517
1.77296
1.76812
1.763
1.75505
1.75376
1.30579
1.3192
1.34241
1.36951
1.39545
1.42105
1.44762
1.47454
1.50272
1.5308
1.55918
1.58726
1.61489
1.64033
1.66239
1.67418
1.6722
1.65885
1.62847
1.56583
1.45408
1.36135
1.33299
1.33706
1.35135
1.3748
1.39832
1.41152
1.41353
1.40815
1.38741
1.34342
1.28373
1.24265
1.22969
1.23588
1.24801
1.27194
1.30575
1.34174
1.37598
1.40778
1.43767
1.46601
1.49257
1.51785
1.54182
1.56475
1.58616
1.60612
1.62414
1.64032
1.65436
1.66679
1.67694
1.68423
1.68802
1.68953
1.68974
1.68821
1.68446
1.67966
1.67526
1.67239
1.67098
1.67126
1.67209
1.67396
1.67772
1.6827
1.68845
1.69396
1.70002
1.70547
1.71166
1.71709
1.72338
1.72885
1.7351
1.74061
1.74666
1.75209
1.7577
1.76272
1.76748
1.77157
1.77527
1.77862
1.78132
1.78307
1.78368
1.78324
1.7822
1.77919
1.77482
1.7686
1.76219
1.75525
1.74742
1.74603
1.33098
1.33749
1.35614
1.38122
1.40636
1.43098
1.45564
1.48117
1.50678
1.5334
1.55954
1.58536
1.60945
1.63048
1.64187
1.63978
1.62605
1.59565
1.53339
1.42604
1.33122
1.30301
1.30769
1.32334
1.34905
1.37968
1.40771
1.4273
1.4371
1.43948
1.4368
1.42266
1.38928
1.34268
1.30276
1.28463
1.28591
1.29549
1.31429
1.34346
1.37652
1.40992
1.44188
1.47187
1.4999
1.52616
1.55131
1.57506
1.59775
1.61881
1.63881
1.65697
1.67355
1.68801
1.70089
1.71186
1.72018
1.72524
1.72769
1.72824
1.72759
1.72489
1.72013
1.71573
1.71148
1.70932
1.70832
1.70875
1.70992
1.71247
1.71689
1.7216
1.7274
1.73248
1.73825
1.74327
1.74887
1.75391
1.7593
1.76428
1.76932
1.77394
1.77828
1.78198
1.78516
1.788
1.79029
1.79158
1.79196
1.79123
1.78971
1.78595
1.78151
1.77464
1.7682
1.7609
1.75415
1.7496
1.74426
1.7447
1.36771
1.36287
1.37199
1.3919
1.41728
1.44152
1.46505
1.48863
1.51268
1.53671
1.56078
1.58326
1.60261
1.61287
1.61004
1.59551
1.56421
1.50158
1.39442
1.29894
1.27133
1.27716
1.29355
1.32175
1.3553
1.38564
1.41265
1.4346
1.45218
1.46232
1.467
1.46753
1.45984
1.43735
1.40181
1.36302
1.34151
1.33744
1.34473
1.35788
1.38079
1.41165
1.4441
1.47558
1.50515
1.53306
1.55953
1.58454
1.60797
1.63036
1.65135
1.67139
1.68962
1.70647
1.7212
1.7347
1.74632
1.75558
1.76181
1.76524
1.76621
1.76615
1.76446
1.7607
1.75531
1.75084
1.74701
1.74567
1.74502
1.74552
1.74704
1.75004
1.75473
1.7593
1.76442
1.76911
1.77395
1.77845
1.7829
1.78701
1.79082
1.79407
1.79667
1.79879
1.80056
1.80138
1.80127
1.8004
1.79821
1.79363
1.78849
1.78142
1.77423
1.76707
1.76007
1.75565
1.75163
1.75089
1.75011
1.75211
1.41183
1.38919
1.39109
1.40515
1.42696
1.45134
1.47441
1.49662
1.51882
1.54067
1.56128
1.57898
1.58755
1.58334
1.56757
1.53433
1.46978
1.36139
1.26936
1.24304
1.24962
1.26606
1.29505
1.32989
1.36171
1.38933
1.415
1.43773
1.45928
1.47748
1.48953
1.49773
1.5005
1.49847
1.48581
1.45905
1.4262