/*--------------------------------*- C++ -*----------------------------------*\
  =========                 |
  \\      /  F ield         | OpenFOAM: The Open Source CFD Toolbox
   \\    /   O peration     | Website:  https://openfoam.org
    \\  /    A nd           | Version:  10
     \\/     M anipulation  |
\*---------------------------------------------------------------------------*/
FoamFile
{
    format      ascii;
    class       volScalarField;
    location    "4";
    object      p;
}
// * * * * * * * * * * * * * * * * * * * * * * * * * * * * * * * * * * * * * //

dimensions      [1 -1 -2 0 0 0 0];

internalField   nonuniform List<scalar> 
5250
(
1
1.00003
1.00008
1.00022
1.0005
1.00137
1.00307
1.00831
1.01895
1.05016
1.12026
1.31704
1.84808
3.42185
8.00626
11.687
11.2839
11.0397
11.1234
11.352
11.5797
11.7168
11.8215
11.9041
11.9656
1
1.00003
1.00008
1.00021
1.0005
1.00133
1.00304
1.00817
1.01854
1.04965
1.11776
1.31217
1.83255
3.37787
7.89103
11.7006
11.2836
11.0299
11.1146
11.3441
11.5717
11.7093
11.8154
11.8995
11.9624
1
1.00003
1.00007
1.00021
1.00048
1.00129
1.00293
1.00789
1.01791
1.04798
1.11358
1.30099
1.80048
3.28271
7.63309
11.7279
11.2795
11
11.0831
11.3105
11.5361
11.672
11.7777
11.8613
11.9247
1
1.00003
1.00007
1.0002
1.00046
1.00121
1.00284
1.00729
1.01759
1.04409
1.10961
1.2818
1.7549
3.13897
7.2357
11.768
11.2742
10.9505
11.0291
11.25
11.4728
11.6051
11.708
11.7899
11.8546
1
1.00002
1.00007
1.00018
1.00043
1.00113
1.00264
1.00679
1.01634
1.04098
1.10167
1.2606
1.69426
2.95763
6.71276
11.8049
11.2676
10.8847
10.9553
11.1646
11.3838
11.5107
11.6087
11.6881
11.7555
1
1.00002
1.00006
1.00017
1.00039
1.00105
1.00235
1.00639
1.01442
1.03849
1.09083
1.23851
1.62315
2.75113
6.087
11.7894
11.2488
10.8033
10.8616
11.0518
11.2644
11.3823
11.4709
11.5437
11.613
1
1.00002
1.00006
1.00015
1.00037
1.00091
1.00228
1.00544
1.01395
1.03305
1.08507
1.21087
1.56032
2.55089
5.48824
11.6345
11.1748
10.7003
10.7456
10.9083
11.1072
11.2105
11.2821
11.3395
11.4055
1
1.00002
1.00005
1.00013
1.00034
1.00082
1.00209
1.00489
1.01281
1.0298
1.07778
1.19053
1.50661
2.39504
5.04143
11.1918
10.9814
10.5849
10.6101
10.7297
10.9043
10.9841
11.0261
11.0491
11.0914
1
1.00002
1.00005
1.00012
1.00031
1.00073
1.00189
1.00452
1.01128
1.02784
1.06893
1.17388
1.45411
2.24966
4.60019
10.4875
10.6965
10.511
10.4644
10.5247
10.6524
10.6942
10.6847
10.6342
10.5842
1
1.00001
1.00004
1.00011
1.00028
1.00065
1.00172
1.00391
1.01049
1.0239
1.06361
1.15243
1.40615
2.10022
4.15984
9.60794
10.5373
10.4113
10.2846
10.3055
10.3583
10.3415
10.2519
10.0318
9.69258
1
1.00001
1.00004
1.0001
1.00023
1.00062
1.00141
1.00371
1.00863
1.02226
1.0536
1.13688
1.34962
1.95447
3.70983
8.57016
10.4264
10.3128
10.0976
10.0651
10.0408
9.94711
9.68935
9.08798
7.53025
1
1.00001
1.00003
1.00008
1.0002
1.00052
1.00122
1.00318
1.00729
1.01943
1.04503
1.11803
1.29469
1.80114
3.24991
7.37484
10.3438
10.2151
9.93007
9.81778
9.72883
9.53422
9.11854
8.28649
6.63928
1
1.00001
1.00003
1.00007
1.00017
1.00042
1.00106
1.00249
1.00652
1.01501
1.0395
1.09392
1.24499
1.64205
2.79061
6.07186
10.2345
10.1086
9.78864
9.57691
9.42116
9.14313
8.62559
7.7641
6.42094
1
1.00001
1.00002
1.00006
1.00013
1.00036
1.00082
1.00213
1.00498
1.01267
1.03063
1.07663
1.19149
1.50063
2.36059
4.79374
9.91851
9.90523
9.67671
9.35604
9.12682
8.80143
8.2662
7.46753
6.39248
1
1.00001
1.00002
1.00005
1.00011
1.00029
1.00067
1.00173
1.00409
1.01025
1.02517
1.06201
1.15596
1.40241
2.09193
4.0682
9.02286
9.63084
9.47812
9.152
8.86458
8.51579
8.00237
7.2874
6.39059
1
1
1.00001
1.00004
1.00009
1.00022
1.00057
1.00134
1.00338
1.00824
1.02013
1.05042
1.12462
1.32074
1.8603
3.40468
7.54741
9.35498
9.26165
8.99615
8.64735
8.28011
7.79716
7.15875
6.38661
1
1
1.00001
1.00003
1.00008
1.00017
1.00046
1.00102
1.00274
1.00619
1.01644
1.03816
1.09892
1.24493
1.65504
2.79903
5.9886
9.16491
9.11771
8.89242
8.4803
8.08841
7.63063
7.0567
6.37906
1
1
1.00001
1.00002
1.00005
1.00014
1.00033
1.0008
1.00202
1.00474
1.01224
1.02848
1.07363
1.17869
1.46814
2.24779
4.37821
8.74838
8.97939
8.79548
8.38148
7.94149
7.49469
6.97265
6.37027
1
1
1.00001
1.00002
1.00004
1.00011
1.00024
1.00064
1.00145
1.00381
1.00887
1.02251
1.05462
1.13722
1.34933
1.93618
3.57338
7.68043
8.72701
8.60727
8.28394
7.82154
7.38115
6.90077
6.36012
1
1
1
1.00001
1.00003
1.00008
1.00019
1.00046
1.00115
1.00271
1.007
1.01619
1.04218
1.10038
1.26052
1.68003
2.86565
6.03788
8.45515
8.41315
8.19668
7.74533
7.29284
6.83956
6.34892
1
1
1
1.00001
1.00002
1.00006
1.00013
1.00035
1.00078
1.00208
1.00468
1.01239
1.02835
1.07366
1.17748
1.46454
2.22263
4.23973
7.99936
8.27638
8.11655
7.72592
7.23852
6.79352
6.34021
1
1
1
1.00001
1.00002
1.00004
1.0001
1.00023
1.00061
1.0014
1.00358
1.00856
1.02104
1.05201
1.12821
1.32666
1.86146
3.32345
6.90832
8.04992
7.95934
7.6848
7.213
6.76523
6.33662
1
1
1
1
1.00001
1.00003
1.00007
1.00016
1.00044
1.00098
1.00261
1.00587
1.01551
1.0357
1.09247
1.22566
1.59641
2.59081
5.21908
7.71712
7.7473
7.59909
7.22722
6.76636
6.33934
1
1
1
1
1.00001
1.00002
1.00005
1.00012
1.0003
1.0007
1.00172
1.00422
1.01002
1.02526
1.06026
1.15182
1.3825
1.99845
3.5943
7.01356
7.61444
7.51224
7.22615
6.7812
6.35088
1
1
1
1
1.00001
1.00001
1.00003
1.00008
1.00021
1.00046
1.00122
1.00276
1.00716
1.01674
1.04203
1.10233
1.25889
1.66959
2.77751
5.56253
7.36258
7.35037
7.2025
6.83774
6.38072
1
1
1
1
1
1.00001
1.00002
1.00005
1.00014
1.00031
1.00081
1.00181
1.0048
1.01069
1.0283
1.06468
1.16793
1.41411
2.07956
3.73233
6.83065
7.24769
7.14925
6.88503
6.44057
1
1
1
1
1
1.00001
1.00001
1.00004
1.00009
1.00021
1.00053
1.00121
1.00316
1.00714
1.01878
1.04274
1.11128
1.26882
1.70722
2.83711
5.61643
7.02593
7.01606
6.87514
6.54288
1
1
1
1
1
1
1.00001
1.00002
1.00005
1.00014
1.00032
1.00085
1.00191
1.00495
1.01136
1.02888
1.0686
1.17262
1.43267
2.1175
3.81876
6.52215
6.90507
6.82453
6.59582
1
1
1
1
1
1
1.00001
1.00002
1.00004
1.00009
1.00021
1.00053
1.00129
1.00302
1.00769
1.01761
1.04554
1.10657
1.27399
1.69124
2.78853
5.3807
6.67425
6.68919
6.57998
1
1
1
1
1
1
1
1.00001
1.00002
1.00005
1.00014
1.00032
1.00083
1.00187
1.00482
1.0111
1.02785
1.06654
1.16564
1.4133
2.05285
3.61277
6.14907
6.57822
6.52441
1
1
1
1
1
1
1
1.00001
1.00001
1.00004
1.00008
1.00021
1.00049
1.00122
1.00293
1.00697
1.0174
1.04078
1.10305
1.25018
1.64204
2.62714
4.97531
6.33215
6.4064
1
1
1
1
1
1
1
1
1.00001
1.00002
1.00005
1.00013
1.00029
1.00075
1.00172
1.0043
1.0102
1.02464
1.06022
1.14599
1.36361
1.90621
3.19213
5.76429
6.29223
1
1
1
1
1
1
1
1
1.00001
1.00001
1.00003
1.00008
1.00018
1.00047
1.00104
1.00269
1.00609
1.0155
1.03616
1.09027
1.21947
1.55757
2.40595
4.47259
5.99013
1
1
1
1
1
1
1
1
1
1.00001
1.00002
1.00005
1.00011
1.00027
1.00063
1.00158
1.00359
1.00925
1.0207
1.05389
1.12406
1.31652
1.77806
2.9017
5.27351
1
1
1
1
1
1
1
1
1
1
1.00001
1.00003
1.00007
1.00015
1.0004
1.00088
1.00228
1.00513
1.01311
1.03032
1.0756
1.18219
1.45785
2.13871
3.77656
1
1
1
1
1
1
1
1
1
1
1.00001
1.00002
1.00004
1.0001
1.00021
1.00055
1.00125
1.00311
1.00739
1.01771
1.04325
1.10388
1.25626
1.63502
2.55591
1
1
1
1
1
1
1
1
1
1
1
1.00001
1.00002
1.00005
1.00012
1.00032
1.0007
1.00181
1.00402
1.01033
1.02337
1.05885
1.1381
1.34393
1.83068
1
1
1
1
1
1
1
1
1
1
1
1.00001
1.00001
1.00003
1.00008
1.00017
1.00043
1.00097
1.00247
1.00558
1.01404
1.0327
1.08043
1.19409
1.48181
1
1
1
1
1
1
1
1
1
1
1
1
1.00001
1.00002
1.00004
1.0001
1.00023
1.00058
1.00129
1.00332
1.0074
1.01891
1.04307
1.10805
1.25741
1
1
1
1
1
1
1
1
1
1
1
1
1
1.00001
1.00002
1.00005
1.00013
1.0003
1.00076
1.00169
1.00435
1.00961
1.02472
1.05554
1.14054
1
1
1
1
1
1
1
1
1
1
1
1
1
1.00001
1.00001
1.00003
1.00007
1.00017
1.00042
1.00094
1.00241
1.00531
1.01377
1.03045
1.07855
1
1
1
1
1
1
1
1
1
1
1
1
1
1
1.00001
1.00002
1.00004
1.0001
1.00021
1.00054
1.00123
1.00304
1.00716
1.01697
1.04118
1
1
1
1
1
1
1
1
1
1
1
1
1
1
1
1.00001
1.00002
1.00005
1.00012
1.00028
1.00068
1.00163
1.00377
1.00935
1.02107
1
1
1
1
1
1
1
1
1
1
1
1
1
1
1
1
1.00001
1.00003
1.00007
1.00015
1.0004
1.00087
1.00223
1.00493
1.01253
1
1
1
1
1
1
1
1
1
1
1
1
1
1
1
1
1.00001
1.00002
1.00004
1.0001
1.00024
1.00058
1.00134
1.00337
1.00757
1
1
1
1
1
1
1
1
1
1
1
1
1
1
1
1
1.00001
1.00001
1.00003
1.00007
1.00019
1.00042
1.0011
1.00247
1.00652
1
1
1
1
1
1
1
1
1
1
1
1
1
1
1
1
1
1.00001
1.00003
1.00007
1.00015
1.0004
1.00092
1.00239
1.00561
1
1
1
1
1
1
1
1
1
1
1
1
1
1
1
1
1
1.00001
1.00002
1.00006
1.00014
1.00039
1.00087
1.00234
1.00528
1
1
1
1
1
1
1
1
1
1
1
1
1
1
1
1
1
1.00001
1.00003
1.00006
1.00015
1.00035
1.00093
1.00217
1.00553
1
1
1
1
1
1
1
1
1
1
1
1
1
1
1
1
1
1.00001
1.00002
1.00006
1.00014
1.00037
1.00086
1.0023
1.00522
3.02783
1.53285
1.03813
0.941782
0.968931
1.05298
1.22957
1.36969
1.41745
1.41736
1.41853
1.42672
1.45297
1.51814
1.66404
1.98217
2.63781
3.26369
3.4205
3.47735
3.45818
3.40249
3.34322
3.29899
3.26233
3.22879
3.19243
3.16258
3.14963
3.1462
3.15394
3.18915
3.26438
3.38224
3.52513
3.67455
3.82018
3.9541
4.07547
4.18062
4.26794
4.34043
4.39717
4.449
4.4877
4.5118
4.52617
4.53263
4.53168
4.52626
4.513
4.49196
4.4666
4.43842
4.4065
4.372
4.33458
4.29537
4.25412
4.21164
4.16773
4.12296
4.07717
4.03077
3.9836
3.93599
3.88781
3.83933
3.79045
3.74139
3.69211
3.64277
3.59338
3.54407
3.49486
3.44588
3.39716
3.3488
3.30086
3.25342
3.20653
3.16023
3.11458
3.06957
3.02526
2.9816
2.93866
2.89636
2.85478
2.81383
2.77362
2.73409
2.69533
2.65748
2.62074
2.58529
2.55179
2.52118
2.49513
2.478
3.73107
2.33886
1.74497
1.49484
1.37897
1.29613
1.28064
1.28976
1.31536
1.36843
1.42049
1.44644
1.47074
1.52265
1.63905
1.90095
2.47896
3.22778
3.45333
3.47031
3.44591
3.38891
3.3357
3.30824
3.27375
3.2359
3.19595
3.15775
3.13914
3.13396
3.14491
3.17916
3.24933
3.3631
3.50447
3.65217
3.79682
3.92879
4.05446
4.16252
4.25109
4.32473
4.38413
4.43649
4.475
4.50087
4.51584
4.52279
4.52223
4.51818
4.50688
4.48478
4.45912
4.43125
4.40017
4.36623
4.32941
4.29053
4.24969
4.20745
4.16382
4.11922
4.07363
4.02734
3.98032
3.93281
3.88477
3.83638
3.78764
3.73868
3.68954
3.64031
3.59105
3.54185
3.49277
3.44388
3.39528
3.34701
3.29917
3.2518
3.20501
3.15877
3.1132
3.06824
3.02399
2.98037
2.93747
2.8952
2.85365
2.81269
2.77256
2.73309
2.69448
2.65658
2.61975
2.58417
2.55049
2.51957
2.49296
2.47525
4.55971
3.26285
2.44621
1.92896
1.59472
1.38952
1.26924
1.25854
1.26682
1.29077
1.34062
1.39435
1.44039
1.48632
1.5796
1.77453
2.18908
3.03566
3.42082
3.45385
3.43425
3.38818
3.3358
3.29906
3.25984
3.22021
3.18387
3.15662
3.14204
3.13329
3.13795
3.16701
3.22503
3.3405
3.48307
3.6287
3.77463
3.91025
4.0346
4.1426
4.2324
4.30742
4.3685
4.41949
4.45829
4.48536
4.50143
4.5088
4.50845
4.50542
4.49624
4.47647
4.4494
4.42104
4.3906
4.35748
4.3215
4.28323
4.24295
4.20112
4.15789
4.11357
4.06826
4.02216
3.97536
3.928
3.88015
3.83191
3.78335
3.73456
3.6856
3.63654
3.58746
3.53842
3.48951
3.44077
3.39232
3.34419
3.29649
3.24926
3.2026
3.15649
3.11104
3.06618
3.02206
2.97855
2.9357
2.89353
2.85209
2.81132
2.7712
2.73174
2.69306
2.65516
2.61826
2.58255
2.54859
2.51724
2.48989
2.47118
5.01727
3.84152
2.97159
2.36602
1.95957
1.68671
1.5149
1.40769
1.34489
1.33332
1.33816
1.35358
1.38645
1.44219
1.5147
1.66014
1.96307
2.60803
3.29888
3.43596
3.42772
3.39883
3.34414
3.30054
3.25991
3.22261
3.19101
3.16623
3.15108
3.14364
3.15052
3.18071
3.24747
3.34749
3.47509
3.61112
3.74726
3.87905
4.00076
4.10854
4.19978
4.27634
4.33929
4.39101
4.43099
4.45968
4.47747
4.48612
4.4861
4.48418
4.47747
4.46182
4.43465
4.40581
4.3757
4.34346
4.30857
4.27124
4.23178
4.19059
4.14792
4.10406
4.05916
4.01341
3.96693
3.91986
3.87231
3.82435
3.77608
3.72756
3.67889
3.6301
3.5813
3.53251
3.48385
3.43534
3.38713
3.3392
3.29173
3.2447
3.19825
3.15234
3.1071
3.06233
3.01842
2.97513
2.93256
2.89054
2.84919
2.80847
2.76843
2.72903
2.69039
2.6525
2.61556
2.57971
2.54547
2.51363
2.48547
2.46566
5.29315
4.26105
3.42297
2.79007
2.32746
1.99111
1.74664
1.57174
1.4499
1.37374
1.33943
1.34107
1.35011
1.37345
1.42343
1.52617
1.73527
2.15962
3.00473
3.36845
3.4139
3.40052
3.3651
3.31281
3.26852
3.23499
3.21122
3.19543
3.19232
3.19861
3.22176
3.27017
3.32933
3.40399
3.49947
3.60693
3.71663
3.83369
3.95174
4.06131
4.15624
4.23587
4.30116
4.35415
4.3955
4.42593
4.44577
4.45627
4.45773
4.45645
4.45167
4.44002
4.41632
4.38756
4.3574
4.32575
4.29192
4.25574
4.21733
4.17703
4.13514
4.09191
4.04758
4.00233
3.95632
3.90968
3.86253
3.81497
3.76709
3.71895
3.67066
3.62223
3.57378
3.52532
3.47698
3.42877
3.38083
3.3332
3.28601
3.23926
3.19309
3.14743
3.10246
3.05822
3.01449
2.97137
2.92892
2.88706
2.84584
2.80523
2.76528
2.72597
2.68738
2.64952
2.61254
2.57659
2.54208
2.50979
2.48089
2.45988
5.47859
4.58278
3.80467
3.17494
2.68329
2.30607
2.01824
1.80144
1.63945
1.52262
1.44148
1.38708
1.37548
1.38065
1.40085
1.4537
1.57489
1.84048
2.41065
3.15174
3.3718
3.39187
3.37791
3.34185
3.29196
3.26174
3.25145
3.25341
3.26534
3.29965
3.37051
3.43447
3.47974
3.52024
3.56964
3.62727
3.69717
3.76855
3.8755
3.98854
4.09298
4.18096
4.2517
4.30762
4.351
4.38344
4.40566
4.41862
4.42256
4.42181
4.41867
4.4105
4.39298
4.36562
4.33566
4.30438
4.27141
4.23637
4.19915
4.15993
4.11896
4.07653
4.03289
3.98825
3.94281
3.89669
3.85005
3.80298
3.75557
3.7079
3.66004
3.61205
3.564
3.51592
3.46794
3.42007
3.37247
3.32517
3.2783
3.23188
3.1861
3.14092
3.09634
3.05234
3.00891
2.96602
2.92375
2.88205
2.841
2.80052
2.76072
2.72152
2.68304
2.64524
2.60829
2.57228
2.5376
2.50494
2.47544
2.45343
5.60806
4.82862
4.11711
3.50979
3.01067
2.60954
2.29067
2.03863
1.8404
1.68562
1.56652
1.48038
1.41973
1.3954
1.39998
1.42108
1.48164
1.6281
1.95451
2.64917
3.21748
3.36582
3.37353
3.36255
3.33385
3.30624
3.30866
3.32425
3.36984
3.47225
3.60756
3.6799
3.70167
3.70108
3.69628
3.68689
3.69498
3.7249
3.78634
3.8855
3.99979
4.10271
4.18575
4.24942
4.29762
4.33313
4.35812
4.37385
4.38109
4.38099
4.37945
4.37447
4.36288
4.33954
4.31083
4.28003
4.24773
4.21368
4.17765
4.13962
4.09977
4.05831
4.01555
3.97169
3.92696
3.88152
3.83552
3.78905
3.74223
3.69512
3.64781
3.60032
3.55274
3.50511
3.45754
3.41007
3.36288
3.31599
3.26963
3.22379
3.17851
3.13373
3.0895
3.04577
3.00261
2.95996
2.91792
2.87643
2.83556
2.79528
2.75563
2.71659
2.67824
2.64056
2.60368
2.56769
2.53292
2.50001
2.47003
2.44719
5.70065
5.01546
4.36899
3.79391
3.30232
2.89143
2.55361
2.27748
2.05327
1.87237
1.72697
1.61284
1.5253
1.46289
1.43269
1.4372
1.46009
1.52885
1.69644
2.06329
2.81765
3.25549
3.3587
3.37015
3.36538
3.36567
3.37751
3.42084
3.52728
3.74574
3.93192
3.9862
3.97838
3.94549
3.86752
3.76687
3.71678
3.72087
3.74275
3.79247
3.8845
3.99453
4.09321
4.17181
4.23082
4.2732
4.30308
4.32255
4.33349
4.33626
4.33548
4.33252
4.325
4.30895
4.28291
4.25313
4.22148
4.18826
4.15329
4.11644
4.07777
4.03742
3.99566
3.95271
3.90881
3.86413
3.81885
3.77305
3.72689
3.68038
3.63365
3.58669
3.53961
3.49243
3.44531
3.39827
3.35161
3.30536
3.25961
3.21428
3.16944
3.12502
3.08112
3.03768
2.9948
2.95243
2.91065
2.8694
2.82878
2.78871
2.74928
2.71044
2.67228
2.63476
2.59803
2.56213
2.52737
2.49434
2.46406
2.44066
5.76827
5.15932
4.57156
4.03305
3.55737
3.14774
2.80045
2.50921
2.26613
2.06461
1.89782
1.76075
1.6496
1.56176
1.49601
1.46458
1.46962
1.49518
1.57198
1.75705
2.15311
2.93804
3.27539
3.36028
3.38588
3.40889
3.45798
3.56487
3.78929
4.12897
4.32505
4.33347
4.30648
4.22364
4.05015
3.88124
3.77381
3.73234
3.73618
3.7547
3.79691
3.87674
3.97617
4.06825
4.14288
4.19845
4.23777
4.26391
4.27997
4.28717
4.28709
4.28576
4.28146
4.27138
4.25082
4.22311
4.19256
4.16022
4.12621
4.09045
4.05294
4.01377
3.97314
3.93123
3.88831
3.84451
3.80007
3.75505
3.70963
3.6638
3.61771
3.57133
3.52478
3.4781
3.4315
3.38518
3.33923
3.29364
3.24846
3.20363
3.15921
3.11519
3.07165
3.02856
2.98602
2.94395
2.90248
2.86152
2.82118
2.78137
2.74221
2.70362
2.6657
2.62842
2.59189
2.55618
2.52154
2.48853
2.45813
2.43432
5.81939
5.27216
4.73614
4.23383
3.77914
3.37717
3.02829
2.72849
2.473
2.25627
2.07304
1.91878
1.78951
1.68261
1.59673
1.53042
1.50148
1.50745
1.53635
1.62119
1.82395
2.262
3.00037
3.29201
3.3813
3.45158
3.55585
3.76691
4.18964
4.60363
4.74681
4.72898
4.65624
4.48563
4.23094
4.01984
3.8721
3.78399
3.74717
3.74929
3.76237
3.79479
3.86016
3.94657
4.03112
4.10213
4.15619
4.19394
4.21841
4.23142
4.23546
4.2349
4.23252
4.22627
4.21285
4.18902
4.16054
4.12945
4.09647
4.06174
4.02538
3.9874
3.94799
3.90726
3.86545
3.82267
3.77917
3.73501
3.69039
3.6453
3.59987
3.55406
3.50804
3.462
3.41621
3.37067
3.32545
3.28048
3.23584
3.1915
3.14754
3.10393
3.0608
3.01808
2.9759
2.93418
2.89304
2.85241
2.81238
2.77289
2.73404
2.69576
2.65815
2.62118
2.58497
2.54954
2.51517
2.48235
2.45202
2.42801
5.85933
5.36283
4.87139
4.40345
3.97143
3.58172
3.23615
2.93353
2.67046
2.44323
2.24764
2.07971
1.93615
1.8138
1.71088
1.62685
1.56136
1.53635
1.54354
1.57652
1.67132
1.89851
2.38861
3.05941
3.33454
3.49386
3.68797
4.07872
4.71781
5.12554
5.16302
5.12101
4.989
4.71138
4.41403
4.17759
4.00203
3.87808
3.79886
3.75795
3.75564
3.76171
3.78367
3.83204
3.90662
3.98436
4.05313
4.10633
4.14379
4.16645
4.17769
4.17956
4.17853
4.17504
4.16676
4.14962
4.1242
4.09499
4.06339
4.02988
3.99472
3.958
3.91988
3.88042
3.83983
3.7982
3.75576
3.71258
3.66885
3.62455
3.57981
3.53459
3.4894
3.44425
3.39935
3.3546
3.31009
3.26574
3.22168
3.17786
3.13441
3.09127
3.04859
3.0063
2.96453
2.92322
2.88247
2.84222
2.80257
2.76347
2.725
2.6871
2.64991
2.61334
2.57756
2.54257
2.50864
2.47624
2.44622
2.42231
5.89199
5.43716
4.98427
4.54808
4.139
3.76385
3.42518
3.12349
2.85679
2.62273
2.41794
2.23963
2.08436
1.94997
1.8339
1.73497
1.65374
1.59019
1.57127
1.58063
1.61945
1.72726
1.98113
2.52075
3.15413
3.4926
3.86298
4.56339
5.3428
5.62315
5.59922
5.49577
5.25278
4.89945
4.59204
4.34556
4.15103
3.99964
3.88658
3.80821
3.76284
3.74921
3.75098
3.76318
3.79475
3.85867
3.9293
3.99527
4.0482
4.08512
4.10785
4.11826
4.11848
4.11707
4.11261
4.10245
4.08203
4.05571
4.02609
3.99418
3.96048
3.92518
3.88848
3.85041
3.81117
3.77083
3.72959
3.68753
3.64478
3.60134
3.55734
3.51313
3.46892
3.42477
3.38074
3.33677
3.29297
3.24928
3.20583
3.16258
3.11968
3.07707
3.0349
2.9931
2.9518
2.91095
2.87066
2.83087
2.79168
2.75303
2.71504
2.67762
2.64095
2.60492
2.56973
2.53537
2.50211
2.47044
2.44104
2.41777
5.92005
5.49926
5.08053
4.67326
4.28664
3.92662
3.59715
3.29876
3.03154
2.79325
2.58233
2.39576
2.23164
2.08715
1.96076
1.85043
1.75559
1.67788
1.61677
1.60887
1.62151
1.66885
1.79732
2.08888
2.70389
3.41643
4.0892
5.24301
5.98158
6.06191
5.99835
5.80993
5.43227
5.0714
4.76836
4.51742
4.30881
4.13583
3.99629
3.88725
3.80793
3.75733
3.73561
3.72956
3.73518
3.75564
3.80053
3.86352
3.92638
3.97891
4.01756
4.04114
4.05165
4.05155
4.04981
4.04456
4.03282
4.01099
3.98403
3.9541
3.92216
3.88854
3.85346
3.81697
3.77923
3.74031
3.70042
3.65957
3.6179
3.5754
3.53254
3.48951
3.44644
3.40328
3.36015
3.31699
3.27393
3.23095
3.18817
3.14557
3.10329
3.06127
3.01968
2.97844
2.9377
2.89739
2.85765
2.8184
2.77977
2.74169
2.7043
2.66751
2.63151
2.59622
2.56185
2.52842
2.49616
2.4657
2.43736
2.41559
5.94977
5.55666
5.16671
4.78473
4.41854
4.07337
3.75347
3.46019
3.19403
2.95398
2.73883
2.54645
2.37525
2.22296
2.08805
1.96865
1.86409
1.77372
1.69964
1.64959
1.65264
1.67442
1.74354
1.91627
2.30208
3.12167
4.2657
6.02347
6.53543
6.48945
6.32875
5.98836
5.58774
5.23808
4.94128
4.68632
4.46698
4.27891
4.11932
3.98688
3.88037
3.79957
3.74357
3.71467
3.6979
3.69933
3.70989
3.7366
3.79013
3.84726
3.89922
3.93948
3.96514
3.97738
3.97816
3.97656
3.97132
3.95944
3.93695
3.90966
3.87973
3.84797
3.8147
3.77995
3.74389
3.70658
3.66818
3.62867
3.58816
3.54697
3.50549
3.46372
3.4218
3.37967
3.33747
3.29517
3.25294
3.21073
3.16871
3.12683
3.08525
3.04391
3.00299
2.9624
2.92232
2.88265
2.84357
2.80497
2.76704
2.72966
2.69303
2.65705
2.62196
2.58767
2.55444
2.52236
2.49161
2.46305
2.43643
2.41689
5.98688
5.6139
5.24665
4.88595
4.53749
4.20643
3.89586
3.6087
3.34475
3.10478
2.88693
2.69086
2.51403
2.35597
2.21394
2.08749
1.97529
1.87525
1.79394
1.72057
1.70931
1.72018
1.76395
1.88673
2.17891
2.83789
4.24936
6.60345
6.92496
6.81826
6.54316
6.10969
5.72161
5.38789
5.09737
4.8427
4.61887
4.42244
4.25048
4.10136
3.97395
3.86872
3.78503
3.72332
3.68555
3.66165
3.65151
3.65611
3.67256
3.70852
3.75968
3.80945
3.85109
3.88037
3.89627
3.89981
3.89851
3.89377
3.88272
3.86057
3.83373
3.80402
3.77251
3.73949
3.70518
3.66961
3.63286
3.59481
3.55583
3.51622
3.47618
3.43571
3.39496
3.35391
3.31272
3.27138
3.23005
3.18869
3.1475
3.10641
3.06561
3.02504
2.98486
2.94502
2.90569
2.86677
2.82847
2.79066
2.75358
2.7171
2.68147
2.64658
2.61273
2.57988
2.54833
2.51826
2.48982
2.46401
2.43894
2.42249
6.03933
5.67334
5.32157
4.97866
4.64503
4.32682
4.02573
3.74492
3.48446
3.24568
3.02675
2.82838
2.64759
2.48507
2.33755
2.20541
2.0872
1.98054
1.89371
1.8128
1.79416
1.80388
1.84263
1.95221
2.21805
2.8181
4.10537
6.66867
7.10732
7.002
6.72425
6.28455
5.88707
5.54764
5.25535
4.99999
4.77402
4.57228
4.3911
4.2289
4.08544
3.95976
3.85294
3.76535
3.69752
3.65151
3.62027
3.59865
3.59946
3.60707
3.62704
3.66786
3.71415
3.75725
3.78975
3.80933
3.81705
3.81627
3.81249
3.80296
3.78336
3.75726
3.72755
3.69595
3.66318
3.62931
3.59421
3.55791
3.52075
3.48282
3.4443
3.4052
3.36571
3.32582
3.28574
3.24544
3.20511
3.16471
3.12446
3.08427
3.04437
3.00467
2.96538
2.92642
2.88799
2.84998
2.81264
2.77584
2.73985
2.70454
2.67024
2.63687
2.6048
2.57406
2.54499
2.51797
2.49202
2.46885
2.44669
2.43609
6.10921
5.73508
5.39185
5.06231
4.74335
4.4361
4.1445
3.87036
3.6141
3.37762
3.15873
2.95926
2.77588
2.60995
2.45844
2.32172
2.19916
2.08854
1.99933
1.91994
1.9175
1.93133
1.98076
2.11265
2.40558
3.0252
4.03399
5.93888
6.96786
6.95104
6.83097
6.55111
6.11655
5.73618
5.42388
5.16053
4.93042
4.72307
4.5342
4.36154
4.20482
4.06383
3.93897
3.83072
3.7397
3.66654
3.61291
3.57455
3.54619
3.53417
3.53751
3.54944
3.57604
3.61772
3.6586
3.69312
3.71733
3.73016
3.73003
3.72778
3.72078
3.70546
3.67966
3.64995
3.61856
3.58604
3.55252
3.51807
3.4828
3.44667
3.40981
3.37222
3.33412
3.29552
3.25665
3.2175
3.17829
3.13896
3.09975
3.06058
3.02169
2.98299
2.94472
2.90679
2.86942
2.83253
2.79638
2.76085
2.72628
2.69259
2.66016
2.62899
2.59953
2.57197
2.54631
2.52186
2.4995
2.48104
2.46461
2.46284
6.17998
5.79948
5.45924
5.13949
4.83228
4.53679
4.25367
3.98656
3.73498
3.50132
3.28371
3.08369
2.89917
2.73056
2.57647
2.43657
2.31112
2.20163
2.11111
2.06525
2.07224
2.10532
2.1988
2.4125
2.85673
3.5097
4.08052
4.92862
6.11439
6.7053
6.68917
6.5929
6.36823
5.98301
5.63425
5.34416
5.09576
4.87577
4.67644
4.49412
4.3269
4.17408
4.03549
3.9115
3.80241
3.70871
3.63112
3.57034
3.52656
3.49054
3.46661
3.46718
3.47264
3.48756
3.51856
3.55681
3.59337
3.6213
3.63799
3.6424
3.6411
3.63608
3.62421
3.60036
3.57188
3.54069
3.50841
3.47538
3.44177
3.40744
3.37238
3.33649
3.29997
3.26284
3.22534
3.18748
3.14951
3.11138
3.07335
3.03534
2.99762
2.9601
2.92304
2.88635
2.85031
2.81482
2.78021
2.7464
2.71382
2.68241
2.65275
2.62486
2.59938
2.57501
2.55252
2.53302
2.51668
2.50587
2.50215
2.5043
6.30192
5.88651
5.53155
5.2147
4.91634
4.63008
4.35617
4.09519
3.84864
3.61789
3.40227
3.20242
3.01749
2.8474
2.69177
2.55069
2.42583
2.32148
2.24869
2.25106
2.2745
2.35095
2.53684
2.9292
3.49729
3.87959
4.12013
4.47413
5.07692
5.90681
6.39908
6.44604
6.38916
6.22586
5.89515
5.57147
5.28902
5.04234
4.82378
4.6277
4.44942
4.28623
4.13684
4.00087
3.87804
3.76852
3.67266
3.59125
3.52465
3.47545
3.43202
3.40226
3.39154
3.39374
3.4023
3.42188
3.45649
3.49101
3.52098
3.54185
3.55199
3.55149
3.54833
3.5396
3.52115
3.49354
3.46258
3.4305
3.39807
3.36521
3.33184
3.29773
3.26299
3.22755
3.19167
3.15531
3.11878
3.08203
3.04536
3.00872
2.97238
2.93627
2.90068
2.86554
2.83118
2.79752
2.76501
2.73361
2.70389
2.67589
2.6504
2.62684
2.60442
2.58507
2.56823
2.55727
2.55099
2.55231
2.55653
2.56876
6.34498
5.97716
5.61146
5.29107
4.99762
4.71894
4.45207
4.19803
3.95601
3.72854
3.51507
3.31615
3.13152
2.96114
2.80582
2.66624
2.54944
2.45741
2.45002
2.46895
2.53683
2.71547
3.09078
3.66752
4.00825
4.13969
4.20155
4.33056
4.55874
4.96887
5.59914
6.10195
6.24711
6.21131
6.08867
5.83119
5.52734
5.24105
4.99058
4.77145
4.5768
4.40098
4.24098
4.09471
3.96093
3.83907
3.72926
3.63175
3.5472
3.47598
3.42036
3.37253
3.33643
3.31435
3.31463
3.31853
3.32986
3.35384
3.38651
3.41843
3.44278
3.45777
3.46005
3.45842
3.45269
3.43955
3.41357
3.38412
3.35296
3.32106
3.28882
3.25617
3.22317
3.18958
3.15553
3.12093
3.0861
3.05099
3.01595
2.98092
2.94626
2.91187
2.87814
2.84499
2.81287
2.78176
2.75222
2.72444
2.69898
2.67636
2.65449
2.63553
2.61889
2.60799
2.60092
2.60203
2.6059
2.61545
2.63315
2.669
6.32423
6.10157
5.71462
5.37626
5.07912
4.80451
4.54357
4.29483
4.0583
3.83396
3.623
3.42562
3.24225
3.07349
2.92108
2.79093
2.68834
2.66354
2.68063
2.74536
2.91668
3.27971
3.90122
4.25164
4.33906
4.33034
4.30272
4.30819
4.35847
4.50017
4.80217
5.34856
5.85501
6.06386
6.04299
5.95397
5.75294
5.47175
5.1888
4.93899
4.71873
4.52392
4.35004
4.19245
4.04822
3.91585
3.7948
3.68483
3.5861
3.49904
3.42423
3.36338
3.31157
3.26902
3.24106
3.23179
3.23333
3.23971
3.25475
3.28422
3.31405
3.34074
3.359
3.3673
3.3665
3.36275
3.35316
3.33324
3.30603
3.27552
3.24413
3.21254
3.18095
3.14906
3.11691
3.08429
3.05147
3.01836
2.98533
2.95232
2.91976
2.88759
2.85627
2.82584
2.79682
2.76952
2.74433
2.72229
2.70186
2.68352
2.66767
2.65699
2.65035
2.6516
2.65574
2.66559
2.68375
2.71434
2.7427
2.7998
6.26348
6.12843
5.83283
5.47474
5.16547
4.8896
4.63243
4.38813
4.1556
3.93526
3.72706
3.53211
3.35166
3.18738
3.04568
2.93288
2.89607
2.91214
2.97657
3.15005
3.52344
4.17823
4.54637
4.60714
4.58533
4.51914
4.38248
4.29112
4.29686
4.33658
4.44796
4.69129
5.14069
5.60246
5.85974
5.85162
5.79641
5.66134
5.40764
5.14099
4.89012
4.66833
4.47329
4.2993
4.14169
3.99798
3.8664
3.74582
3.6357
3.53604
3.44719
3.36958
3.30463
3.24912
3.2021
3.16856
3.14953
3.14916
3.15189
3.16069
3.17983
3.20851
3.2365
3.25796
3.27218
3.27318
3.2714
3.26547
3.2518
3.22638
3.19781
3.16767
3.13726
3.10671
3.07631
3.04574
3.01521
2.9845
2.95395
2.92354
2.89368
2.8645
2.83648
2.81
2.78557
2.76413
2.74564
2.72832
2.7137
2.70359
2.69815
2.69969
2.70449
2.71577
2.73661
2.76611
2.79994
2.84246
2.8733
2.9298
6.16436
6.10031
5.92443
5.57696
5.25651
4.97554
4.71912
4.47829
4.24963
4.03291
3.8286
3.63787
3.46327
3.31143
3.18992
3.14484
3.16094
3.22791
3.41031
3.80765
4.5031
4.88581
4.92756
4.89864
4.81076
4.63077
4.45945
4.33023
4.27952
4.28577
4.31753
4.40401
4.5901
4.92979
5.33931
5.60704
5.65369
5.62461
5.53108
5.33146
5.08595
4.83835
4.61838
4.42155
4.24571
4.08774
3.9444
3.81311
3.69265
3.58238
3.48221
3.39214
3.31255
3.24428
3.18587
3.13528
3.0958
3.07206
3.06223
3.06331
3.06827
3.08036
3.1047
3.13124
3.15589
3.17301
3.18046
3.17965
3.17591
3.16643
3.14697
3.12114
3.09271
3.06358
3.03476
3.0062
2.97807
2.95014
2.92262
2.89558
2.86936
2.84438
2.82128
2.8007
2.78384
2.76856
2.75565
2.74654
2.74303
2.74502
2.75079
2.76427
2.78821
2.81934
2.85583
2.89626
2.9344
2.97088
2.99252
3.02414
5.9987
6.00333
5.91875
5.70748
5.36751
5.06875
4.8068
4.56683
4.34165
4.12913
3.93002
3.74672
3.58661
3.45791
3.40841
3.42549
3.49758
3.69245
4.11706
4.85079
5.2557
5.28124
5.24487
5.13733
4.9209
4.72116
4.55753
4.42631
4.33088
4.27528
4.27654
4.29095
4.34544
4.47137
4.72105
5.06116
5.33248
5.45088
5.4374
5.37874
5.24314
5.01704
4.7884
4.56737
4.3685
4.19151
4.03268
3.88839
3.75655
3.63605
3.52582
3.4254
3.33451
3.25347
3.18265
3.12181
3.06783
3.02413
2.9951
2.97736
2.97588
2.97807
2.98534
3.00136
3.02729
3.05341
3.07341
3.08611
3.08776
3.08615
3.08064
3.06823
3.04556
3.02016
2.99363
2.96724
2.94158
2.91674
2.8929
2.87023
2.84922
2.83038
2.81526
2.80304
2.79262
2.78466
2.78405
2.78648
2.79388
2.81
2.8377
2.87151
2.91051
2.95225
2.99169
3.02621
3.04958
3.06504
3.06785
3.07021
5.57489
5.89975
5.87112
5.74855
5.48404
5.17038
4.89791
4.65621
4.43392
4.22685
4.03602
3.86889
3.73474
3.6858
3.70517
3.78532
3.9997
4.46492
5.25052
5.66062
5.66139
5.61659
5.48851
5.24375
5.02039
4.83569
4.68218
4.54854
4.43213
4.33541
4.26863
4.24396
4.2465
4.27125
4.34784
4.51074
4.77983
5.0455
5.22191
5.22744
5.20001
5.11949
4.94489
4.72937
4.51243
4.31438
4.13575
3.9747
3.82917
3.6972
3.57673
3.46656
3.36598
3.27464
3.1925
3.1197
3.05663
2.99977
2.95295
2.91855
2.89683
2.8878
2.88876
2.89316
2.90388
2.9256
2.9511
2.97427
2.99022
2.99905
2.99867
2.99611
2.98901
2.974
2.95287
2.9304
2.90793
2.8868
2.86748
2.85091
2.83739
2.8288
2.82167
2.81676
2.81795
2.82236
2.83305
2.85328
2.88371
2.921
2.96329
3.00741
3.04789
3.08283
3.10522
3.11773
3.11594
3.10975
3.09641
3.07815
4.61995
5.66325
5.77757
5.72588
5.58037
5.28502
4.99919
4.75149
4.53079
4.33098
4.15765
4.0192
3.97573
3.99874
4.09066
4.33216
4.85075
5.70275
6.0967
6.08882
6.02433
5.85814
5.58947
5.34468
5.14258
4.97234
4.82157
4.68183
4.55061
4.42963
4.32418
4.24057
4.20026
4.1765
4.18495
4.22509
4.32259
4.51825
4.7589
4.94877
5.02672
5.01469
4.96638
4.85597
4.65757
4.45481
4.25656
4.07591
3.91446
3.76877
3.63638
3.51576
3.40578
3.30509
3.2132
3.12988
3.05538
2.99044
2.93178
2.88218
2.84399
2.81804
2.80219
2.80209
2.80431
2.81129
2.82677
2.8521
2.87713
2.89762
2.91086
2.91751
2.91708
2.91459
2.90818
2.89491
2.87887
2.86388
2.85155
2.84444
2.84093
2.84128
2.84377
2.85043
2.86503
2.89233
2.92595
2.96629
3.01232
3.05973
3.10218
3.13765
3.16056
3.16964
3.16745
3.16028
3.14382
3.11737
3.08882
3.0607
2.95749
5.10158
5.65175
5.653
5.58483
5.41509
5.1226
4.86137
4.63867
4.45369
4.30946
4.27587
4.30433
4.41327
4.69326
5.28897
6.156
6.54334
6.53124
6.45045
6.2513
5.95345
5.68818
5.4704
5.28637
5.12169
4.96727
4.81845
4.67458
4.53707
4.40851
4.29453
4.1995
4.14144
4.09526
4.08819
4.10353
4.15664
4.27354
4.47706
4.6641
4.79865
4.80604
4.78492
4.72401
4.58688
4.38859
4.19552
4.01723
3.85383
3.70641
3.57373
3.45348
3.34333
3.24219
3.14983
3.06594
2.99052
2.92397
2.86415
2.81255
2.77151
2.74105
2.72201
2.71651
2.71788
2.723
2.73491
2.75878
2.78497
2.80918
2.82869
2.8421
2.85091
2.85441
2.85415
2.85303
2.85102
2.85197
2.85459
2.86037
2.87218
2.89224
2.92204
2.95934
3.00567
3.05638
3.10732
3.15268
3.18929
3.21312
3.21997
3.21741
3.20934
3.19128
3.16126
3.12966
3.0977
3.06702
3.042
2.18101
3.83644
5.29691
5.56691
5.55034
5.46247
5.26249
4.99099
4.77097
4.6084
4.58491