/*--------------------------------*- C++ -*----------------------------------*\
  =========                 |
  \\      /  F ield         | OpenFOAM: The Open Source CFD Toolbox
   \\    /   O peration     | Website:  https://openfoam.org
    \\  /    A nd           | Version:  10
     \\/     M anipulation  |
\*---------------------------------------------------------------------------*/
FoamFile
{
    format      ascii;
    class       surfaceScalarField;
    location    "4";
    object      phi;
}
// * * * * * * * * * * * * * * * * * * * * * * * * * * * * * * * * * * * * * //

dimensions      [1 0 -1 0 0 0 0];

internalField   nonuniform List<scalar> 
10325
(
0.00840003
1.30217e-10
0.0084
4.44925e-10
0.00840011
2.27918e-09
0.00839984
4.54932e-09
0.00840047
1.63033e-08
0.00839895
2.89251e-08
0.00840246
1.09279e-07
0.00839442
1.64193e-07
0.00841068
6.8538e-07
0.0083793
1.04122e-06
0.0084192
3.92193e-06
0.00836072
9.07496e-06
0.00837001
3.09642e-05
0.00823723
0.000112095
0.00766864
0.000572354
0.00700253
0.000666951
0.00637098
0.000631388
0.0057196
0.000651036
0.0050364
0.000682811
0.00431335
0.000722843
0.00354115
0.000772155
0.00272083
0.000819929
0.0018592
0.000862981
0.000953161
0.00090664
0.000952222
0.00840003
1.63594e-10
0.00840001
1.0587e-09
0.00840006
3.57255e-09
0.00839994
1.03498e-08
0.00840022
2.66661e-08
0.0083993
6.89263e-08
0.00840163
1.68273e-07
0.00839525
4.33302e-07
0.00840896
1.04611e-06
0.00838093
2.73022e-06
0.00841648
6.94749e-06
0.00836415
1.96984e-05
0.0083676
6.15926e-05
0.00823558
0.000225573
0.00768048
0.00113095
0.00699897
0.00134906
0.00637546
0.0012548
0.00573351
0.00129264
0.0050548
0.00136114
0.00432437
0.00145307
0.00354318
0.00155331
0.00271447
0.00164825
0.00184102
0.00173779
0.000928219
0.00182004
0.00187951
0.00840003
1.5061e-10
0.00840001
1.84668e-09
0.00840006
4.08825e-09
0.00839994
1.79642e-08
0.00840023
3.16636e-08
0.00839929
1.19254e-07
0.00840166
1.9726e-07
0.00839528
7.56526e-07
0.00840916
1.25312e-06
0.00838064
4.56994e-06
0.00841791
9.40305e-06
0.00836375
3.00238e-05
0.00837196
8.95407e-05
0.00824878
0.000328928
0.00775706
0.00162654
0.00706482
0.00204196
0.00643904
0.00188049
0.00580148
0.00192987
0.0051273
0.00203497
0.00439469
0.0021854
0.00360782
0.00234023
0.00276808
0.00248766
0.00187896
0.00262816
0.000945824
0.00275383
0.00282465
0.00840003
3.12226e-10
0.00840002
1.95987e-09
0.00840008
6.73742e-09
0.00839992
1.90047e-08
0.00840027
5.02741e-08
0.00839944
1.26157e-07
0.00840106
3.21447e-07
0.0083974
7.88617e-07
0.00840349
2.01075e-06
0.00839049
5.0214e-06
0.00840683
1.31684e-05
0.00837346
3.64273e-05
0.00837394
0.000113818
0.00828251
0.000407776
0.00791374
0.00199702
0.00721585
0.00274072
0.00657655
0.00251959
0.00593706
0.00256904
0.00526385
0.00270782
0.00453192
0.00291714
0.00373725
0.00313497
0.002885
0.00333942
0.00197097
0.00354383
0.000999452
0.00372584
0.00382293
0.00840003
4.04305e-10
0.00840002
1.99528e-09
0.00840008
8.2563e-09
0.00839992
1.93684e-08
0.00840027
6.09679e-08
0.00839947
1.31241e-07
0.00840109
3.95286e-07
0.00839757
8.25679e-07
0.00840369
2.44534e-06
0.00839129
5.41678e-06
0.00840865
1.52785e-05
0.00837793
4.05267e-05
0.00838955
0.000127267
0.0083354
0.00044916
0.00818723
0.00214666
0.00748452
0.00344433
0.0068074
0.00319656
0.00615327
0.00322294
0.005477
0.00338376
0.00474214
0.00365193
0.00394116
0.00393606
0.00306775
0.00421258
0.00211721
0.0044958
0.00108499
0.00475868
0.00490686
0.00840003
2.67418e-10
0.00840001
2.50871e-09
0.00840009
6.35116e-09
0.0083999
2.46223e-08
0.00840039
4.82812e-08
0.00839922
1.61688e-07
0.00840211
3.11918e-07
0.00839579
9.96143e-07
0.00841027
2.01878e-06
0.0083823
6.03832e-06
0.00842786
1.39296e-05
0.00837189
4.07218e-05
0.00842878
0.000120221
0.00842965
0.000420982
0.00867262
0.00190874
0.00795711
0.00416063
0.00717708
0.00397666
0.0064859
0.00391392
0.00579173
0.00407781
0.00505299
0.00439041
0.00423452
0.00475454
0.0033343
0.00511257
0.00233595
0.00549536
0.00121973
0.00587569
0.00612611
0.00840003
3.34046e-10
0.00840003
2.07498e-09
0.00840004
7.15799e-09
0.0084
2.03244e-08
0.00840005
5.29513e-08
0.00840004
1.33723e-07
0.00839978
3.28679e-07
0.00840078
8.18252e-07
0.00839801
2.01917e-06
0.00840401
5.04109e-06
0.00839911
1.28821e-05
0.0084084
3.43887e-05
0.0084275
0.000101777
0.00850836
0.000340699
0.00894184
0.00147297
0.00839692
0.00470639
0.00755138
0.00482197
0.00685067
0.00461443
0.00617052
0.00475754
0.0054363
0.00512486
0.00461339
0.00557717
0.00368756
0.00603826
0.00264137
0.00654263
0.00142467
0.00709347
0.00755033
0.00840003
3.71768e-10
0.00840003
1.75501e-09
0.00840003
7.31329e-09
0.00840002
1.73212e-08
0.0084
5.40402e-08
0.00840013
1.13003e-07
0.00839949
3.50198e-07
0.00840149
6.73046e-07
0.00839611
2.17851e-06
0.00840757
4.21132e-06
0.00839106
1.3085e-05
0.00841261
3.08468e-05
0.00840512
9.49137e-05
0.00844652
0.000309029
0.00860858
0.00130573
0.00831499
0.00500014
0.0076462
0.00549034
0.00710052
0.00515988
0.00648529
0.00537256
0.00581273
0.00579699
0.00502902
0.00636126
0.0041188
0.00694767
0.00305143
0.00761125
0.00174131
0.00840448
0.00929125
0.00840003
2.57741e-10
0.00840004
2.17585e-09
0.0084
6.10854e-09
0.0084001
2.10381e-08
0.00839989
4.54242e-08
0.00840035
1.38661e-07
0.00839941
2.82113e-07
0.00840101
8.64807e-07
0.00839777
1.71168e-06
0.00840359
5.25005e-06
0.00839276
1.13091e-05
0.00841018
3.3052e-05
0.00839263
9.0965e-05
0.00841091
0.000302482
0.00849917
0.00121559
0.00819784
0.00530063
0.00791691
0.00577124
0.00733214
0.00574448
0.00673668
0.00596778
0.00615639
0.00637678
0.00546526
0.00705255
0.00464266
0.00776979
0.0036486
0.0086057
0.00226511
0.00978934
0.0115561
0.00840003
3.76688e-10
0.00840004
1.76021e-09
0.00840001
7.77098e-09
0.00840006
1.73929e-08
0.0083999
5.60335e-08
0.00840036
1.19707e-07
0.00839906
3.39473e-07
0.00840243
7.62188e-07
0.00839426
2.03164e-06
0.00841198
4.82806e-06
0.00837992
1.25661e-05
0.00842293
3.23805e-05
0.00837719
9.33066e-05
0.00841392
0.000299925
0.00845124
0.00116037
0.00830612
0.00544813
0.00789691
0.00618073
0.0074713
0.00617014
0.00702456
0.00641426
0.00652015
0.00688074
0.00598064
0.00759202
0.00533943
0.00841093
0.00444833
0.00949693
0.00314402
0.0110946
0.0147001
0.00840003
3.40727e-10
0.00840002
2.01281e-09
0.00840006
7.13911e-09
0.00839996
1.96263e-08
0.00840021
5.39885e-08
0.00839965
1.2753e-07
0.00840093
3.51125e-07
0.00839814
7.69151e-07
0.0084041
2.18874e-06
0.00839178
4.73257e-06
0.00841283
1.35376e-05
0.00837969
3.24756e-05
0.00841612
9.57006e-05
0.00838541
0.000299227
0.00844211
0.00111877
0.00849891
0.00538713
0.00807636
0.00660315
0.00765185
0.00659461
0.00730938
0.00675659
0.00693556
0.00725425
0.00657366
0.00795361
0.00614428
0.00884006
0.0057308
0.00991034
0.00569951
0.0111264
0.0115045
0.00889523
0.00840003
2.69234e-10
0.00840003
2.21034e-09
0.00840003
6.34279e-09
0.00840003
2.15895e-08
0.00840004
4.77108e-08
0.00839992
1.44446e-07
0.00840035
2.99684e-07
0.00839876
9.04757e-07
0.00840301
1.85197e-06
0.00839293
5.56019e-06
0.00841156
1.20955e-05
0.00838541
3.494e-05
0.00841362
9.17424e-05
0.00839892
0.0002932
0.00847959
0.00105089
0.00891013
0.00495189
0.00845219
0.00706133
0.00797684
0.00707007
0.00762682
0.00710632
0.00734022
0.00754071
0.00708191
0.00821174
0.006885
0.00903689
0.00685005
0.00994509
0.00729857
0.0106776
0.0104763
0.00832719
0.00840003
3.31807e-10
0.00840003
1.80069e-09
0.00840003
6.99114e-09
0.00840003
1.7511e-08
0.00840002
5.12893e-08
0.00840007
1.17886e-07
0.00839982
3.22856e-07
0.00840076
7.44027e-07
0.00839801
1.97644e-06
0.00840496
4.69149e-06
0.00839299
1.22369e-05
0.00841439
3.08848e-05
0.00840308
8.53966e-05
0.00845258
0.000257232
0.00859506
0.000900295
0.00965391
0.00389419
0.00907689
0.00763829
0.00847589
0.00767121
0.00808333
0.00749915
0.00781517
0.00780844
0.00763914
0.00838759
0.00760777
0.00906763
0.00783468
0.0097185
0.00837961
0.010133
0.00984622
0.00900935
0.00840003
2.47141e-10
0.00840002
1.59783e-09
0.00840005
5.37984e-09
0.00839999
1.5658e-08
0.00840015
4.00641e-08
0.00839986
1.02858e-07
0.00840062
2.53575e-07
0.00839928
6.27648e-07
0.00840266
1.54822e-06
0.00839739
3.81524e-06
0.0084117
9.5273e-06
0.00839833
2.40534e-05
0.00844928
6.36213e-05
0.0084922
0.000183896
0.00880637
0.0006034
0.0102477
0.00244812
0.00976302
0.00812324
0.00930185
0.00813237
0.00869407
0.00810646
0.00837137
0.00813157
0.00824376
0.00851462
0.00828948
0.00902204
0.0085449
0.00946246
0.00901846
0.00965962
0.00934362
0.00952173
0.00840003
2.21506e-10
0.00840003
1.35595e-09
0.00840005
4.64869e-09
0.0084
1.32885e-08
0.00840011
3.45753e-08
0.00839991
8.65207e-08
0.00840044
2.20557e-07
0.00839954
5.17051e-07
0.00840149
1.37326e-06
0.00839883
3.06011e-06
0.00840569
8.45811e-06
0.00839997
1.93614e-05
0.0084266
5.37778e-05
0.00844155
0.000146913
0.00858524
0.00047688
0.00918897
0.00183557
0.00990086
0.00741361
0.00957326
0.00846004
0.00915354
0.0085261
0.00887599
0.00840913
0.00877896
0.00861117
0.00885003
0.00895124
0.00908413
0.00922813
0.00946805
0.00927547
0.00893616
0.00987529
0.00840003
1.75e-10
0.00840003
1.24142e-09
0.00840002
3.95413e-09
0.00840006
1.20273e-08
0.00839999
2.95372e-08
0.00840017
7.87102e-08
0.00839984
1.85699e-07
0.00840053
4.86751e-07
0.00839961
1.12787e-06
0.00840122
2.97374e-06
0.00839973
6.94551e-06
0.00840649
1.83451e-05
0.00840319
4.59148e-05
0.00843764
0.000129622
0.0084979
0.000401236
0.00887172
0.00146896
0.00988126
0.00640126
0.00975374
0.00858744
0.0095251
0.00875462
0.0092918
0.00864272
0.0092187
0.00868403
0.00930052
0.00886888
0.00950643
0.00902266
0.00980757
0.00897386
0.0086207
0.0101239
0.00840003
1.68712e-10
0.00840003
9.9509e-10
0.00840002
3.63951e-09
0.00840005
9.77873e-09
0.00839998
2.67825e-08
0.00840019
6.60883e-08
0.00839974
1.6633e-07
0.00840096
4.14834e-07
0.00839849
1.00822e-06
0.00840515
2.57958e-06
0.00839265
6.16182e-06
0.00842007
1.61741e-05
0.00838673
4.01083e-05
0.00845233
0.000111532
0.00847642
0.000334328
0.00879839
0.00116956
0.0103683
0.00482547
0.0102062
0.00874897
0.00996324
0.00899733
0.00969223
0.00891435
0.00961466
0.00876127
0.009679
0.00880473
0.00984812
0.00885312
0.0100788
0.00874319
0.00838739
0.0103114
0.00840003
1.33746e-10
0.00840003
7.83643e-10
0.00840004
2.85991e-09
0.00840002
7.6371e-09
0.00840006
2.12741e-08
0.00840002
5.02882e-08
0.00840011
1.33156e-07
0.0084002
3.0788e-07
0.00840004
8.03306e-07
0.00840203
1.87289e-06
0.00839925
4.82062e-06
0.00841252
1.15511e-05
0.00840906
2.97686e-05
0.00845944
7.68502e-05
0.00855903
0.000221409
0.00902436
0.000713633
0.0110687
0.00277589
0.0109107
0.00890771
0.0106612
0.00924681
0.010303
0.00927269
0.0100766
0.00898752
0.0100514
0.00882967
0.010156
0.008749
0.0103188
0.00858028
0.0082261
0.0104801
0.00840003
9.61753e-11
0.00840003
6.55586e-10
0.00840004
2.12223e-09
0.00840002
6.41932e-09
0.00840007
1.57141e-08
0.00839997
4.23031e-08
0.00840026
9.89605e-08
0.00839977
2.57098e-07
0.00840121
6.03903e-07
0.00839895
1.53522e-06
0.00840524
3.68715e-06
0.00839753
9.24534e-06
0.0084216
2.3023e-05
0.00841181
5.95364e-05
0.00850262
0.000164929
0.0086697
0.000516797
0.00952839
0.00193332
0.0109671
0.007462
0.010908
0.00930563
0.0106986
0.00948213
0.0104646
0.00922201
0.0103912
0.00890278
0.0104346
0.00870515
0.0105366
0.00847864
0.00812254
0.0106401
0.00840003
8.75864e-11
0.00840003
4.98839e-10
0.00840003
1.84073e-09
0.00840003
4.86872e-09
0.00840004
1.3652e-08
0.00840003
3.20872e-08
0.00840007
8.62459e-08
0.00840011
1.96822e-07
0.00840002
5.24565e-07
0.00840103
1.20126e-06
0.00839911
3.17381e-06
0.0084066
7.41706e-06
0.00839919
1.94832e-05
0.00842603
4.83176e-05
0.00844166
0.000133856
0.0085699
0.000400873
0.00907759
0.0014182
0.0110064
0.00553274
0.0111481
0.00916415
0.0110611
0.00956948
0.0108355
0.00944806
0.0107083
0.0090303
0.0106947
0.00871845
0.0107404
0.00843271
0.00806627
0.0107966
0.00840003
5.74416e-11
0.00840003
4.08151e-10
0.00840003
1.27598e-09
0.00840003
3.9758e-09
0.00840005
9.50781e-09
0.00840001
2.58814e-08
0.00840016
6.02905e-08
0.00839987
1.55525e-07
0.0084009
3.69812e-07
0.00839916
9.2179e-07
0.00840501
2.25949e-06
0.00839618
5.47435e-06
0.00842404
1.39012e-05
0.00840024
3.40475e-05
0.00849488
9.05506e-05
0.00858864
0.00025581
0.00920763
0.000828804
0.0116337
0.00309779
0.0117201
0.00907736
0.0116256
0.00966448
0.0113705
0.00970358
0.0110893
0.00931184
0.0109806
0.00882721
0.0109625
0.00845064
0.00806102
0.0109675
0.00840003
4.58458e-11
0.00840003
2.92293e-10
0.00840003
1.0027e-09
0.00840004
2.86465e-09
0.00840002
7.39645e-09
0.00840007
1.89723e-08
0.00839999
4.57849e-08
0.00840024
1.16298e-07
0.00839991
2.744e-07
0.00840099
6.98536e-07
0.00839998
1.64015e-06
0.00840381
4.20061e-06
0.00840296
9.9231e-06
0.00841968
2.5641e-05
0.0084316
6.40471e-05
0.00853006
0.000178377
0.00879255
0.000547227
0.00989769
0.00200299
0.0117324
0.00723789
0.0118402
0.00955669
0.0116915
0.00985248
0.0114076
0.0095959
0.0112768
0.00895842
0.0111984
0.00852882
0.00809987
0.0111597
0.00840003
3.59505e-11
0.00840003
2.14437e-10
0.00840003
7.70719e-10
0.00840003
2.08251e-09
0.00840003
5.71294e-09
0.00840005
1.36958e-08
0.00840001
3.58748e-08
0.0084002
8.40226e-08
0.00839983
2.16735e-07
0.00840112
5.07048e-07
0.00839895
1.30263e-06
0.00840617
3.079e-06
0.00839508
7.86858e-06
0.00842784
1.9088e-05
0.00839952
4.94516e-05
0.00850297
0.000130472
0.00860899
0.000387402
0.009312
0.00133149
0.0117108
0.00482902
0.0119991
0.00926824
0.0120695
0.00978214
0.0119183
0.00974708
0.0115845
0.00929188
0.0114505
0.00866309
0.00818664
0.0113632
0.00840003
2.45776e-11
0.00840003
1.58822e-10
0.00840003
5.41144e-10
0.00840003
1.55664e-09
0.00840003
3.98529e-09
0.00840005
1.0248e-08
0.00840002
2.47257e-08
0.00840013
6.23118e-08
0.00840004
1.48318e-07
0.00840041
3.73519e-07
0.00840052
8.81192e-07
0.00840134
2.23612e-06
0.00840417
5.26709e-06
0.0084089
1.3432e-05
0.00842517
3.2721e-05
0.00847543
8.55444e-05
0.00861712
0.000235969
0.00921074
0.000744251
0.0113897
0.00264912
0.0124174
0.00823802
0.0124113
0.0097879
0.0122287
0.00992949
0.0118877
0.00963275
0.0117263
0.00882433
0.00832953
0.011583
0.00840003
1.81295e-11
0.00840003
1.11607e-10
0.00840003
3.94457e-10
0.00840003
1.0892e-09
0.00840003
2.91593e-09
0.00840004
7.21213e-09
0.00840002
1.80062e-08
0.00840012
4.41452e-08
0.00839997
1.07399e-07
0.00840053
2.66636e-07
0.00839981
6.38587e-07
0.0084026
1.59738e-06
0.00839959
3.81794e-06
0.00841181
9.68242e-06
0.00840586
2.33481e-05
0.0084554
6.08175e-05
0.00849582
0.000160319
0.0087887
0.000485447
0.00971931
0.00169836
0.0121785
0.0057824
0.0125143
0.00945227
0.0125883
0.00985562
0.0124449
0.00977585
0.0120518
0.00921779
0.00855243
0.0118286
0.00840003
1.26261e-11
0.00840003
7.6274e-11
0.00840003
2.73215e-10
0.00840003
7.45727e-10
0.00840003
2.00896e-09
0.00840003
4.89789e-09
0.00840003
1.24422e-08
0.00840007
2.97503e-08
0.00840003
7.41653e-08
0.00840035
1.77632e-07
0.00839988
4.37438e-07
0.00840225
1.05836e-06
0.008399
2.58645e-06
0.00841327
6.30865e-06
0.0083985
1.55138e-05
0.00846182
3.87597e-05
0.00846223
9.99331e-05
0.00873091
0.000279563
0.00949672
0.000891378
0.0122333
0.00305346
0.0129435
0.0087424
0.0129576
0.00984143
0.0127384
0.00999472
0.0123963
0.00955941
0.0088083
0.0121416
0.00840003
8.8577e-12
0.00840003
5.22766e-11
0.00840003
1.88794e-10
0.00840003
5.10588e-10
0.00840003
1.38808e-09
0.00840003
3.34126e-09
0.00840004
8.65148e-09
0.00840004
2.0106e-08
0.00840006
5.18142e-08
0.00840017
1.19431e-07
0.00840006
3.07203e-07
0.00840112
7.11312e-07
0.00839982
1.8069e-06
0.00840731
4.27065e-06
0.0083994
1.07349e-05
0.00843799
2.6142e-05
0.0084288
6.68951e-05
0.00858369
0.000177909
0.00888496
0.000538331
0.0101003
0.0018676
0.0126803
0.00615449
0.0129846
0.00953682
0.0131615
0.00981764
0.0128908
0.00983011
0.00917981
0.0125194
0.00840003
5.47589e-12
0.00840003
3.63861e-11
0.00840003
1.212e-10
0.00840003
3.54754e-10
0.00840003
8.96417e-10
0.00840003
2.31563e-09
0.00840004
5.54841e-09
0.00840003
1.40021e-08
0.0084001
3.31444e-08
0.0084
8.29978e-08
0.00840044
1.96135e-07
0.00839994
4.90169e-07
0.00840227
1.16288e-06
0.00840004
2.89079e-06
0.00841155
6.94024e-06
0.00840491
1.72823e-05
0.00845648
4.27572e-05
0.00848194
0.000111078
0.00875376
0.000310647
0.0095938
0.00099863
0.0124141
0.00334063
0.0132861
0.00866342
0.0133625
0.00974139
0.0132222
0.0099707
0.00955952
0.0128422
0.00840003
3.64059e-12
0.00840003
2.46516e-11
0.00840003
8.00604e-11
0.00840003
2.40498e-10
0.00840003
5.91381e-10
0.00840003
1.56105e-09
0.00840004
3.69353e-09
0.00840003
9.32285e-09
0.00840007
2.22584e-08
0.00840004
5.46601e-08
0.00840019
1.33253e-07
0.00840025
3.18484e-07
0.00840057
7.9656e-07
0.0084021
1.86406e-06
0.00840195
4.75426e-06
0.0084142
1.10751e-05
0.00841496
2.87193e-05
0.00847723
6.98846e-05
0.00857211
0.000191303
0.00902835
0.000566322
0.0104174
0.00193639
0.0130071
0.00607442
0.0133333
0.00941557
0.0135669
0.00973754
0.00976564
0.013361
0.00840003
2.63924e-12
0.00840003
1.51259e-11
0.00840003
5.62665e-11
0.00840003
1.47557e-10
0.00840003
4.11226e-10
0.00840003
9.67407e-10
0.00840003
2.52111e-09
0.00840004
5.86398e-09
0.00840003
1.48481e-08
0.0084001
3.49611e-08
0.00840002
8.64647e-08
0.00840043
2.08098e-07
0.00840009
5.02774e-07
0.0084022
1.23431e-06
0.00840086
2.93218e-06
0.00841095
7.35648e-06
0.00840989
1.7391e-05
0.00845676
4.46707e-05
0.0085028
0.000111836
0.00878991
0.000315794
0.0097022
0.00100042
0.0125511
0.00322802
0.0135944
0.00837334
0.0136616
0.00967081
0.00978336
0.0136442
0.00840003
1.5874e-12
0.00840003
1.02454e-11
0.00840003
3.47714e-11
0.00840003
9.98379e-11
0.00840003
2.56256e-10
0.00840003
6.48905e-10
0.00840003
1.58703e-09
0.00840003
3.88165e-09
0.00840005
9.45495e-09
0.00840003
2.27901e-08
0.00840013
5.59458e-08
0.00840007
1.33366e-07
0.00840047
3.29286e-07
0.00840061
7.82309e-07
0.00840169
1.94011e-06
0.00840488
4.61103e-06
0.00840812
1.14925e-05
0.00843006
2.78759e-05
0.0084643
7.10579e-05
0.00859762
0.00018633
0.00903913
0.000556172
0.0104164
0.00185031
0.0131968
0.00559389
0.0136945
0.00917235
0.00961269
0.0138651
0.00840003
9.87994e-13
0.00840003
6.43534e-12
0.00840003
2.16507e-11
0.00840003
6.27669e-11
0.00840003
1.59282e-10
0.00840003
4.06848e-10
0.00840003
9.82693e-10
0.00840003
2.42638e-09
0.00840004
5.83432e-09
0.00840003
1.41783e-08
0.0084001
3.42761e-08
0.00840004
8.25134e-08
0.00840043
2.00897e-07
0.00840021
4.79089e-07
0.00840198
1.17316e-06
0.00840202
2.79034e-06
0.00840912
6.88359e-06
0.00841591
1.64369e-05
0.00845449
4.1297e-05
0.00851992
0.000103604
0.0088124
0.000285683
0.00976363
0.000882759
0.0126079
0.0027557
0.0139097
0.00786876
0.00956301
0.0139591
0.00840003
5.94823e-13
0.00840003
4.10625e-12
0.00840003
1.33413e-11
0.00840003
3.98764e-11
0.00840003
9.83629e-11
0.00840003
2.58009e-10
0.00840003
6.05314e-10
0.00840003
1.5423e-09
0.00840004
3.58623e-09
0.00840003
9.00922e-09
0.00840007
2.11018e-08
0.00840003
5.22661e-08
0.00840029
1.24281e-07
0.00840006
3.01965e-07
0.00840145
7.33908e-07
0.00840047
1.74494e-06
0.00840755
4.33423e-06
0.00840411
1.01996e-05
0.0084381
2.59093e-05
0.00844754
6.26566e-05
0.00861062
0.000167265
0.00896652
0.00047978
0.0101691
0.00158276
0.0132346
0.00479264
0.00878479
0.0140113
0.00840003
3.95403e-13
0.00840003
2.40543e-12
0.00840003
8.59987e-12
0.00840003
2.35287e-11
0.00840003
6.27244e-11
0.00840003
1.53956e-10
0.00840003
3.81021e-10
0.00840003
9.26615e-10
0.00840003
2.2254e-09
0.00840004
5.46524e-09
0.00840004
1.28808e-08
0.00840008
3.20072e-08
0.0084001
7.45047e-08
0.00840022
1.86792e-07
0.0084006
4.31522e-07
0.00840077
1.08542e-06
0.00840414
2.51561e-06
0.00840336
6.31224e-06
0.00842616
1.48369e-05
0.00842724
3.74927e-05
0.00853901
9.27019e-05
0.00872544
0.000251921
0.00958115
0.000756785
0.0119729
0.00238718
0.0067965
0.0139639
0.00840003
2.45695e-13
0.00840003
1.47724e-12
0.00840003
5.25113e-12
0.00840003
1.43884e-11
0.00840003
3.85526e-11
0.00840003
9.27808e-11
0.00840003
2.37495e-10
0.00840003
5.49347e-10
0.00840003
1.40098e-09
0.00840004
3.21092e-09
0.00840003
8.13306e-09
0.00840007
1.87423e-08
0.00840004
4.70098e-08
0.00840027
1.09627e-07
0.00840008
2.70327e-07
0.00840134
6.43807e-07
0.00840057
1.55435e-06
0.00840702
3.78435e-06
0.00840457
8.99682e-06
0.00843542
2.25124e-05
0.00844626
5.43287e-05
0.00859659
0.000142496
0.00891118
0.000396224
0.0100602
0.00126816
0.00379402
0.0130513
0.00840003
1.38804e-13
0.00840003
9.19366e-13
0.00840003
3.06605e-12
0.00840003
8.95338e-12
0.00840003
2.2502e-11
0.00840003
5.79407e-11
0.00840003
1.37951e-10
0.00840003
3.43509e-10
0.00840003
8.14131e-10
0.00840003
1.99312e-09
0.00840004
4.76922e-09
0.00840003
1.15019e-08
0.00840009
2.7809e-08
0.00840005
6.64737e-08
0.00840034
1.62037e-07
0.00840025
3.83969e-07
0.0084015
9.43862e-07
0.00840198
2.22409e-06
0.00840672
5.51591e-06
0.00841376
1.30265e-05
0.00844039
3.27185e-05
0.00849115
8.03098e-05
0.00869025
0.000213774
0.00932172
0.000625181
0.00197178
0.0111439
0.00840003
8.30622e-14
0.00840003
5.34882e-13
0.00840003
1.8411e-12
0.00840003
5.21348e-12
0.00840003
1.34541e-11
0.00840003
3.38648e-11
0.00840003
8.14354e-11
0.00840003
2.02924e-10
0.00840003
4.72261e-10
0.00840003
1.18688e-09
0.00840003
2.72176e-09
0.00840003
6.88163e-09
0.00840006
1.57136e-08
0.00840005
3.9532e-08
0.00840023
9.11693e-08
0.00840011
2.2638e-07
0.0084012
5.2863e-07
0.00840064
1.29281e-06
0.00840661
3.07718e-06
0.0084046
7.40884e-06
0.00843526
1.80403e-05
0.00844176
4.37231e-05
0.0085924
0.000111373
0.00886029
0.000299317
0.000912768
0.00995903
0.00840003
5.05669e-14
0.00840003
3.13221e-13
0.00840003
1.08875e-12
0.00840003
3.04577e-12
0.00840003
7.97188e-12
0.00840003
1.95757e-11
0.00840003
4.89448e-11
0.00840003
1.14983e-10
0.00840003
2.87616e-10
0.00840003
6.63461e-10
0.00840003
1.66984e-09
0.00840004
3.82065e-09
0.00840003
9.60643e-09
0.00840008
2.21058e-08
0.00840005
5.50698e-08
0.00840031
1.27934e-07
0.00840017
3.14628e-07
0.00840153
7.43488e-07
0.00840113
1.79611e-06
0.00840776
4.32201e-06
0.00840814
1.03306e-05
0.00843992
2.54717e-05
0.00846554
6.18797e-05
0.00864075
0.000161016
0.000451788
0.00905854
0.00840003
2.88673e-14
0.00840003
1.81352e-13
0.00840003
6.34619e-13
0.00840003
1.76457e-12
0.00840003
4.63293e-12
0.00840003
1.14122e-11
0.00840003
2.79954e-11
0.00840003
6.80733e-11
0.00840003
1.61889e-10
0.00840003
3.97522e-10
0.00840003
9.25838e-10
0.00840003
2.30433e-09
0.00840004
5.30699e-09
0.00840004
1.3273e-08
0.00840009
3.04813e-08
0.00840006
7.61817e-08
0.00840041
1.75861e-07
0.00840023
4.35586e-07
0.00840219
1.01747e-06
0.00840142
2.48962e-06
0.008412
5.9198e-06
0.00840971
1.43623e-05
0.00846296
3.50093e-05
0.00849407
8.70933e-05
0.000228518
0.00876751
0.00840003
1.64397e-14
0.00840003
1.0455e-13
0.00840003
3.59408e-13
0.00840003
1.017e-12
0.00840003
2.6245e-12
0.00840003
6.53159e-12
0.00840003
1.59961e-11
0.00840003
3.836e-11
0.00840003
9.32488e-11
0.00840003
2.20882e-10
0.00840003
5.37157e-10
0.00840003
1.26386e-09
0.00840003
3.08288e-09
0.00840004
7.22802e-09
0.00840005
1.76179e-08
0.0084001
4.14052e-08
0.00840011
1.00429e-07
0.00840052
2.37075e-07
0.00840036
5.71808e-07
0.00840309
1.35779e-06
0.00840197
3.25772e-06
0.00841767
7.8019e-06
0.00841445
1.8767e-05
0.00849377
4.58748e-05
0.000114838
0.00854611
0.00840003
9.1279e-15
0.00840003
6.0272e-14
0.00840003
2.00307e-13
0.00840003
5.86237e-13
0.00840003
1.46375e-12
0.00840003
3.74974e-12
0.00840003
8.92377e-12
0.00840003
2.19184e-11
0.00840003
5.21663e-11
0.00840003
1.25314e-10
0.00840003
3.01689e-10
0.00840003
7.12103e-10
0.00840003
1.73446e-09
0.00840003
4.04898e-09
0.00840004
9.9506e-09
0.00840006
2.30162e-08
0.00840009
5.68778e-08
0.00840026
1.31355e-07
0.00840028
3.23657e-07
0.00840159
7.51992e-07
0.00840106
1.83794e-06
0.0084096
4.32334e-06
0.00840626
1.04846e-05
0.00845311
2.52172e-05
6.20098e-05
0.00845726
0.00840003
4.98784e-15
0.00840003
3.31802e-14
0.00840003
1.12652e-13
0.00840003
3.21997e-13
0.00840003
8.22961e-13
0.00840003
2.07627e-12
0.00840003
4.94986e-12
0.00840003
1.22885e-11
0.00840003
2.84637e-11
0.00840003
7.09293e-11
0.00840003
1.62729e-10
0.00840003
4.05143e-10
0.00840003
9.29545e-10
0.00840003
2.30407e-09
0.00840004
5.32836e-09
0.00840004
1.30377e-08
0.0084001
3.05765e-08
0.00840008
7.38019e-08
0.0084004
1.75724e-07
0.0084004
4.16578e-07
0.00840183
1.01113e-06
0.00840281
2.35936e-06
0.00840843
5.82783e-06
0.00841852
1.35094e-05
3.40206e-05
0.0084492
0.00840003
2.97605e-15
0.00840003
1.75655e-14
0.00840003
6.33115e-14
0.00840003
1.70677e-13
0.00840003
4.59386e-13
0.00840003
1.09533e-12
0.00840003
2.77227e-12
0.00840003
6.41981e-12
0.00840003
1.59692e-11
0.00840003
3.68252e-11
0.00840003
9.06917e-11
0.00840003
2.10823e-10
0.00840003
5.1149e-10
0.00840003
1.2047e-09
0.00840003
2.87995e-09
0.00840005
6.8906e-09
0.00840005
1.61806e-08
0.00840011
3.92465e-08
0.00840014
9.11563e-08
0.0084004
2.23047e-07
0.00840084
5.13423e-07
0.00840176
1.26367e-06
0.0084055
2.90665e-06
0.00840865
7.16094e-06
1.66517e-05
0.00843382
0.00840003
1.39312e-15
0.00840003
9.77487e-15
0.00840003
3.16798e-14
0.00840003
9.34511e-14
0.00840003
2.31729e-13
0.00840003
5.94832e-13
0.00840003
1.39124e-12
0.00840003
3.46263e-12
0.00840003
7.99139e-12
0.00840003
1.96074e-11
0.00840003
4.53987e-11
0.00840003
1.0983e-10
0.00840003
2.57831e-10
0.00840003
6.11119e-10
0.00840003
1.46062e-09
0.00840004
3.39643e-09
0.00840004
8.24438e-09
0.00840007
1.88633e-08
0.00840008
4.62445e-08
0.00840032
1.04975e-07
0.00840025
2.57771e-07
0.00840174
5.83913e-07
0.00840141
1.42959e-06
0.00840951
3.25874e-06
7.90977e-06
0.00840919
0.00840003
8.7655e-16
0.00840003
4.68953e-15
0.00840003
1.68982e-14
0.00840003
4.5472e-14
0.00840003
1.21083e-13
0.00840003
2.88251e-13
0.00840003
7.28186e-13
0.00840003
1.64721e-12
0.00840003
4.1448e-12
0.00840003
9.21551e-12
0.00840003
2.30911e-11
0.00840003
5.13949e-11
0.00840003
1.26902e-10
0.00840003
2.86751e-10
0.00840003
6.91326e-10
0.00840004
1.59498e-09
0.00840003
3.73076e-09
0.00840006
8.86013e-09
0.00840006
1.9944e-08
0.00840014
4.896e-08
0.00840027
1.05857e-07
0.00840051
2.66651e-07
0.00840172
5.61126e-07
0.00840206
1.43072e-06
2.9765e-06
0.00841103
0.00840003
2.55275e-16
0.00840003
2.32217e-15
0.00840003
7.66938e-15
0.00840003
2.30247e-14
0.00840003
5.54365e-14
0.00840003
1.45635e-13
0.00840003
3.27473e-13
0.00840003
8.25151e-13
0.00840003
1.84719e-12
0.00840003
4.49094e-12
0.00840003
1.03161e-11
0.00840003
2.40205e-11
0.00840003
5.70344e-11
0.00840003
1.27419e-10
0.00840003
3.12174e-10
0.00840003
6.72465e-10
0.00840003
1.69026e-09
0.00840004
3.51368e-09
0.00840005
9.0275e-09
0.00840009
1.82139e-08
0.00840008
4.72093e-08
0.00840046
9.47549e-08
0.00840008
2.39976e-07
0.00840286
4.91967e-07
1.18501e-06
0.00839969
0.00840003
1.84369e-16
0.00840003
1.14107e-15
0.00840003
3.48698e-15
0.00840003
1.05476e-14
0.00840003
2.54633e-14
0.00840003
6.54405e-14
0.00840003
1.48397e-13
0.00840003
3.71067e-13
0.00840003
8.13158e-13
0.00840003
2.03404e-12
0.00840003
4.34905e-12
0.00840003
1.09564e-11
0.00840003
2.31453e-11
0.00840003
5.74712e-11
0.00840003
1.24296e-10
0.00840003
2.92694e-10
0.00840003
6.64217e-10
0.00840003
1.46272e-09
0.00840006
3.47867e-09
0.0084
7.22069e-09
0.00840018
1.80399e-08
0.00839991
3.44003e-08
0.00840076
9.18232e-08
0.00839953
1.60751e-07
4.61501e-07
0.00840295
0.00840003
9.83371e-17
0.00840003
3.52881e-16
0.00840003
1.55141e-15
0.00840003
4.10181e-15
0.00840003
1.23078e-14
0.00840003
2.53653e-14
0.00840003
7.05361e-14
0.00840003
1.47168e-13
0.00840003
3.56845e-13
0.00840003
8.59559e-13
0.00840003
1.71827e-12
0.00840003
4.9633e-12
0.00840003
8.06747e-12
0.00840003
2.78449e-11
0.00840003
3.71963e-11
0.00840003
1.52325e-10
0.00840003
1.65586e-10
0.00840003
8.00514e-10
0.00840005
7.65423e-10
0.0084
3.94822e-09
0.00840015
3.88238e-09
0.00839978
1.8458e-08
0.00840082
2.214e-08
0.00839851
7.76296e-08
1.33718e-07
0.00840448
0.00840003
6.37511e-17
0.00840003
2.36383e-16
0.00840003
1.06219e-15
0.00840003
2.44493e-15
0.00840003
3.80569e-15
0.00840003
1.35044e-14
0.00840003
1.77739e-14
0.00840003
6.7099e-14
0.00840003
1.09322e-13
0.00840003
3.03106e-13
0.00840003
6.94953e-13
0.00840003
1.31076e-12
0.00840003
4.29963e-12
0.00840003
5.4559e-12
0.00840003
2.49996e-11
0.00840003
2.17166e-11
0.00840003
1.49411e-10
0.00840004
4.62784e-11
0.00840001
8.63634e-10
0.00840008
-5.57536e-11
0.00839994
4.62197e-09
0.00840026
-2.07136e-09
0.00839962
2.31217e-08
0.00840078
-8.61861e-09
9.59032e-08
0.00839856
0.00840003
0.00840003
0.00840003
0.00840003
0.00840003
0.00840003
0.00840003
0.00840003
0.00840003
0.00840003
0.00840003
0.00840003
0.00840003
0.00840003
0.00840003
0.00840003
0.00840003
0.00840003
0.00840003
0.00840001
0.00840007
0.00839985
0.00840046
0.00839866
0.00840307
0.0048376
0.00405754
0.0032164
0.00162109
0.00252203
0.000694229
0.00224457
0.000277245
0.00222704
1.6805e-05
0.0024171
-0.000190423
0.00263649
-0.000219704
0.0027566
-0.000120863
0.00279109
-3.6241e-05
0.00276943
1.95451e-05
0.00273184
3.50963e-05
0.00269678
3.10993e-05
0.00266214
2.6724e-05
0.0026116
3.33172e-05
0.00249553
7.95322e-05
0.00218546
0.000222997
0.00138663
0.000618748
0.000541206
0.00077651
-0.000156412
0.000699764
-0.000788773
0.000627299
-0.00131379
0.000538883
-0.00173877
0.000435053
-0.00207409
0.000337091
-0.00230756
0.00023615
-0.00245207
0.000150572
-0.00255726
0.000111141
-0.00263589
8.48337e-05
-0.00271181
7.99431e-05
-0.00277973
7.00367e-05
-0.00282483
4.74195e-05
-0.00283775
1.42407e-05
-0.00282169
-1.68934e-05
-0.00276222
-6.3759e-05
-0.00262744
-0.000141771
-0.00242521
-0.000210342
-0.00217565
-0.00025832
-0.00188928
-0.000294428
-0.00158478
-0.000311959
-0.00126282
-0.000328636
-0.000938726
-0.000329562
-0.000619204
-0.000323927
-0.000300755
-0.000321803
3.13597e-05
-0.000334826
0.000338236
-0.000308641
0.000619747
-0.000282497
0.000888131
-0.000268697
0.0011432
-0.000254781
0.00138429
-0.000240417
0.00161019
-0.000225176
0.00182421
-0.000213332
0.00203275
-0.000208068
0.00223195
-0.000199111
0.00242064
-0.000188952
0.00259756
-0.000177533
0.00276455
-0.000167545
0.0029215
-0.000157652
0.00306991
-0.000148872
0.00320936
-0.000139964
0.00334091
-0.000131783
0.00346434
-0.000123639
0.00358048
-0.000116152
0.00368943
-0.000108828
0.0037917
-0.000102112
0.00388731
-9.55916e-05
0.00397674
-8.96173e-05
0.00406014
-8.38411e-05
0.00413786
-7.85374e-05
0.00420993
-7.34051e-05