/*--------------------------------*- C++ -*----------------------------------*\
  =========                 |
  \\      /  F ield         | OpenFOAM: The Open Source CFD Toolbox
   \\    /   O peration     | Website:  https://openfoam.org
    \\  /    A nd           | Version:  10
     \\/     M anipulation  |
\*---------------------------------------------------------------------------*/
FoamFile
{
    format      ascii;
    class       volScalarField;
    location    "9";
    object      p;
}
// * * * * * * * * * * * * * * * * * * * * * * * * * * * * * * * * * * * * * //

dimensions      [1 -1 -2 0 0 0 0];

internalField   nonuniform List<scalar> 
5250
(
1.00001
1.00004
1.00011
1.00028
1.00072
1.00175
1.00433
1.01081
1.02619
1.06629
1.16523
1.43258
2.18958
4.43882
10.3684
11.23
11.1009
11.0816
11.1729
11.3975
11.6145
11.7542
11.864
11.9507
12.0176
1.00001
1.00004
1.00011
1.00027
1.00073
1.00167
1.00445
1.01027
1.02678
1.0641
1.16537
1.42531
2.17736
4.39451
10.2822
11.2245
11.0957
11.0732
11.1643
11.3886
11.6052
11.7453
11.8567
11.9448
12.0132
1.00001
1.00004
1.00011
1.00026
1.00071
1.00165
1.00428
1.01024
1.02569
1.06352
1.16028
1.41633
2.14594
4.30364
10.0886
11.2116
11.0807
11.0459
11.1342
11.3541
11.5675
11.7057
11.8163
11.9035
11.9716
1.00001
1.00003
1.00011
1.00025
1.00069
1.00157
1.00422
1.00951
1.02574
1.0594
1.15715
1.39751
2.10313
4.1634
9.78498
11.1979
11.0595
10.9999
11.0827
11.2937
11.5017
11.6352
11.7422
11.8268
11.8951
1.00001
1.00003
1.00009
1.00026
1.0006
1.00162
1.00368
1.00991
1.02253
1.06017
1.14378
1.38331
2.03628
3.98421
9.36329
11.1885
11.0346
10.9366
11.0119
11.2105
11.4108
11.5374
11.6387
11.7195
11.789
1.00001
1.00003
1.00009
1.00024
1.00059
1.00144
1.00367
1.00867
1.0225
1.05354
1.13829
1.35234
1.96505
3.75496
8.81425
11.1912
11.0088
10.8558
10.9211
11.1027
11.2917
11.407
11.4978
11.5706
11.6403
1.00001
1.00003
1.00009
1.00021
1.00056
1.00128
1.00346
1.00778
1.02103
1.04845
1.12778
1.31983
1.87697
3.4864
8.12666
11.2082
10.9846
10.758
10.811
10.9698
11.142
11.2392
11.3112
11.3666
11.4302
1
1.00003
1.00007
1.0002
1.00047
1.00125
1.00284
1.00765
1.01734
1.04643
1.10977
1.29043
1.76982
3.18585
7.29944
11.2433
10.9626
10.6441
10.6819
10.8109
10.9587
11.0277
11.0673
11.0859
11.1233
1
1.00002
1.00006
1.00018
1.00041
1.0011
1.0025
1.00672
1.01521
1.04073
1.09578
1.25245
1.66153
2.86177
6.36868
11.2504
10.9331
10.5214
10.5375
10.6255
10.7384
10.7653
10.7523
10.6963
10.6444
1
1.00002
1.00006
1.00014
1.00039
1.00087
1.00236
1.00531
1.01422
1.03266
1.0858
1.20917
1.55967
2.53528
5.38175
11.1427
10.8504
10.4015
10.3711
10.4165
10.4754
10.4527
10.358
10.1399
9.82103
1
1.00002
1.00005
1.00014
1.00031
1.00083
1.0019
1.00498
1.01167
1.02977
1.07252
1.18478
1.47945
2.32269
4.78957
10.6455
10.5907
10.301
10.1736
10.1841
10.1758
10.0933
9.84925
9.28496
7.85121
1
1.00001
1.00004
1.00011
1.00029
1.00067
1.00175
1.00415
1.01042
1.02559
1.06336
1.15952
1.41418
2.13263
4.23191
9.64414
10.3118
10.1623
9.97679
9.94168
9.87341
9.70455
9.32599
8.56761
7.11143
1
1.00001
1.00004
1.00009
1.00025
1.00057
1.00154
1.00344
1.00929
1.02109
1.05607
1.13386
1.35486
1.95141
3.70644
8.47783
10.1472
10.0398
9.80846
9.70025
9.58088
9.33702
8.86861
8.11151
6.98337
1
1.00001
1.00003
1.00008
1.00019
1.00052
1.00119
1.00312
1.00731
1.01863
1.0453
1.11425
1.29069
1.78226
3.19462
7.1768
10.0478
9.94032
9.67083
9.47306
9.29915
9.01231
8.53787
7.85215
6.96952
1
1.00001
1.00003
1.00007
1.00016
1.00042
1.00097
1.00256
1.00582
1.01554
1.03563
1.09404
1.22972
1.61731
2.697
5.77789
9.89865
9.82946
9.56678
9.26944
9.0441
8.74296
8.29405
7.68474
6.94714
1
1.00001
1.00002
1.00005
1.00014
1.00031
1.00084
1.00188
1.00501
1.01144
1.02991
1.07084
1.18267
1.46739
2.27324
4.52757
9.46805
9.649
9.46046
9.09342
8.8243
8.51998
8.1014
7.55638
6.91578
1
1.00001
1.00002
1.00004
1.00011
1.00026
1.00065
1.00154
1.00397
1.00916
1.02407
1.0563
1.14627
1.36893
2.00453
3.80036
8.39951
9.38916
9.26104
8.95275
8.64064
8.33104
7.94113
7.45078
6.88517
1
1
1.00001
1.00003
1.00008
1.00021
1.00048
1.00129
1.00291
1.00782
1.0176
1.04717
1.11065
1.29257
1.768
3.14326
6.85892
9.14589
9.07853
8.8469
8.49561
8.17205
7.80512
7.36253
6.85969
1
1
1.00001
1.00003
1.00006
1.00016
1.00037
1.00099
1.00227
1.00585
1.0139
1.03481
1.08562
1.2169
1.56567
2.54243
5.2274
8.87196
8.93735
8.77313
8.40985
8.04723
7.6917
7.29015
6.84149
1
1
1.00001
1.00002
1.00005
1.00012
1.00028
1.00075
1.00166
1.00448
1.01001
1.02674
1.0617
1.16097
1.40384
2.08773
3.94866
8.1966
8.80064
8.66639
8.33958
7.94897
7.60055
7.234
6.83471
1
1
1.00001
1.00001
1.00004
1.00009
1.00021
1.00055
1.00126
1.00333
1.00753
1.02007
1.046
1.12084
1.29734
1.80146
3.18309
6.78227
8.55442
8.49509
8.27774
7.88018
7.53261
7.19405
6.83736
1
1
1
1.00001
1.00003
1.00007
1.00015
1.00041
1.00093
1.00242
1.00564
1.01431
1.03442
1.08628
1.21501
1.56352
2.51611
5.07936
8.2173
8.34692
8.20779
7.87564
7.50244
7.17739
6.84934
1
1
1
1.00001
1.00002
1.00004
1.00012
1.00027
1.00071
1.00162
1.00422
1.00982
1.0248
1.05996
1.15048
1.3816
2.00931
3.68554
7.46281
8.22031
8.12448
7.86699
7.50535
7.18343
6.88039
1
1
1
1.00001
1.00001
1.00003
1.00008
1.0002
1.0005
1.00116
1.00303
1.00685
1.01815
1.04147
1.10877
1.26476
1.70646
2.88941
5.9472
7.99539
7.98531
7.84855
7.53309
7.21131
6.94653
1
1
1
1
1.00001
1.00002
1.00006
1.00014
1.00033
1.00086
1.00194
1.00513
1.01148
1.03059
1.07012
1.18295
1.45721
2.2111
4.14489
7.5303
7.92642
7.83228
7.59582
7.28609
7.07501
1
1
1
1
1.00001
1.00002
1.00004
1.0001
1.00023
1.0006
1.00134
1.00356
1.00797
1.02114
1.0484
1.12582
1.30862
1.81916
3.16535
6.44327
7.7857
7.77827
7.67595
7.44598
7.28307
1
1
1
1
1
1.00001
1.00003
1.00007
1.00016
1.00041
1.00093
1.00242
1.00548
1.01447
1.0329
1.08627
1.20666
1.54473
2.42913
4.72884
7.44207
7.77415
7.7445
7.65507
7.6036
1
1
1
1
1
1.00001
1.00002
1.00004
1.00011
1.00026
1.00066
1.00157
1.00381
1.00946
1.02237
1.05663
1.13669
1.34953
1.90442
3.35614
6.63992
7.72655
7.89345
7.92699
7.99758
1
1
1
1
1
1.00001
1.00001
1.00003
1.00007
1.00019
1.00042
1.00112
1.00247
1.0066
1.01478
1.03892
1.09067
1.2347
1.59549
2.57839
5.05523
7.53084
8.16436
8.36871
8.57708
1
1
1
1
1
1
1.00001
1.00002
1.00005
1.00012
1.00031
1.00068
1.00181
1.00404
1.01065
1.02421
1.0626
1.14912
1.3849
1.98993
3.55719
6.98183
8.50586
9.0173
9.30683
1
1
1
1
1
1
1.00001
1.00001
1.00003
1.00009
1.0002
1.0005
1.0012
1.00289
1.00724
1.01696
1.04347
1.10353
1.26574
1.68544
2.82992
5.74469
8.8507
9.8636
10.0851
1
1
1
1
1
1
1
1.00001
1.00002
1.00006
1.00014
1.00036
1.00082
1.00215
1.00492
1.01264
1.02984
1.07515
1.18477
1.47829
2.26377
4.35309
8.87235
10.7754
10.8055
1
1
1
1
1
1
1
1.00001
1.00002
1.00005
1.00011
1.00028
1.00063
1.00167
1.00379
1.01012
1.02295
1.06107
1.14512
1.38524
2.02734
3.88606
8.65087
11.4726
11.4046
1
1
1
1
1
1
1
1.00001
1.00001
1.00004
1.00009
1.00023
1.00052
1.00139
1.00315
1.00848
1.01927
1.05171
1.12297
1.32794
1.87858
3.52298
8.13083
11.9926
11.7734
1
1
1
1
1
1
1
1.00001
1.00001
1.00003
1.00007
1.0002
1.00046
1.00118
1.00286
1.00712
1.01786
1.04391
1.11178
1.2877
1.7823
3.25701
7.63553
12.3908
11.935
1
1
1
1
1
1
1
1
1.00001
1.00003
1.00007
1.00016
1.00044
1.00101
1.00273
1.00622
1.01675
1.03933
1.1035
1.26123
1.71668
3.06809
7.21556
12.6099
11.8905
1
1
1
1
1
1
1
1
1.00001
1.00003
1.00007
1.00016
1.00039
1.001
1.00236
1.00625
1.01456
1.0386
1.09321
1.24632
1.65889
2.90806
6.7637
12.6999
11.8035
1
1
1
1
1
1
1
1
1.00001
1.00002
1.00006
1.00015
1.00039
1.00089
1.00242
1.00547
1.01486
1.0343
1.09146
1.22624
1.61817
2.75604
6.28308
12.6932
11.7507
1
1
1
1
1
1
1
1
1.00001
1.00002
1.00006
1.00014
1.00038
1.00086
1.00232
1.00526
1.01427
1.03284
1.08765
1.21574
1.58683
2.65181
5.91281
12.5977
11.7179
1
1
1
1
1
1
1
1
1.00001
1.00002
1.00006
1.00015
1.00033
1.00091
1.00205
1.00558
1.01263
1.03423
1.08041
1.21332
1.55779
2.58039
5.67044
12.3628
11.6607
1
1
1
1
1
1
1
1
1.00001
1.00002
1.00006
1.00013
1.00035
1.00084
1.00208
1.00527
1.01256
1.03261
1.07899
1.20492
1.54001
2.51839
5.47346
12.1225
11.5939
1
1
1
1
1
1
1
1
1.00001
1.00002
1.00005
1.00014
1.00033
1.00083
1.00207
1.00496
1.0128
1.03055
1.07883
1.19693
1.52479
2.46518
5.30463
11.8916
11.5103
1
1
1
1
1
1
1
1
1.00001
1.00002
1.00006
1.00013
1.00034
1.0008
1.00201
1.005
1.01209
1.03087
1.07538
1.1937
1.50903
2.42082
5.15756
11.6704
11.4056
1
1
1
1
1
1
1
1
1.00001
1.00002
1.00005
1.00013
1.00032
1.00079
1.002
1.00474
1.01235
1.02907
1.07583
1.18698
1.49853
2.38135
5.03413
11.4674
11.3035
1
1
1
1
1
1
1
1
1.00001
1.00002
1.00005
1.00012
1.00033
1.00075
1.00201
1.00457
1.01231
1.02821
1.07508
1.18216
1.48887
2.34821
4.93171
11.2906
11.2109
1
1
1
1
1
1
1
1
1.00001
1.00002
1.00005
1.00013
1.0003
1.0008
1.00182
1.00491
1.01108
1.03006
1.06968
1.18454
1.4739
2.32414
4.84885
11.1474
11.1321
1
1
1
1
1
1
1
1
1.00001
1.00002
1.00005
1.00013
1.00029
1.0008
1.00179
1.00486
1.01101
1.02934
1.06924
1.18091
1.46643
2.30086
4.78242
11.0259
11.0966
1
1
1
1
1
1
1
1
1.00001
1.00002
1.00005
1.00013
1.00029
1.00079
1.00177
1.0048
1.01092
1.02895
1.06859
1.17857
1.46074
2.28311
4.72975
10.9274
11.0822
1
1
1
1
1
1
1
1
1.00001
1.00002
1.00005
1.00012
1.0003
1.00077
1.00179
1.00475
1.01078
1.02901
1.06758
1.17794
1.45656
2.27263
4.69262
10.8549
11.0792
1
1
1
1
1
1
1
1
1.00001
1.00002
1.00005
1.00012
1.00031
1.00075
1.00181
1.00465
1.01092
1.02853
1.06798
1.17636
1.45578
2.26649
4.67441
10.8179
11.0784
3.78873
3.27547
4.26731
4.29237
4.05492
3.96216
3.91367
3.82976
3.73004
3.64261
3.57261
3.50791
3.46408
3.4458
3.44182
3.46096
3.5097
3.58076
3.66641
3.75807
3.85116
3.94319
4.03329
4.12097
4.20603
4.28854
4.36808
4.4447
4.51855
4.5891
4.65501
4.71499
4.76931
4.81811
4.86169
4.89989
4.93327
4.96399
4.98926
5.00729
5.01972
5.02736
5.03033
5.02955
5.02576
5.01689
5.00314
4.98638
4.96699
4.94467
4.91972
4.89207
4.86219
4.82996
4.79574
4.75949
4.72144
4.68162
4.64024
4.5973
4.55305
4.50745
4.46076
4.41293
4.36422
4.31458
4.26425
4.21323
4.16168
4.1097
4.0574
4.0049
3.95232
3.89978
3.84739
3.79527
3.74349
3.69216
3.64132
3.59106
3.54141
3.49243
3.44414
3.39659
3.34978
3.30378
3.25861
3.2143
3.17088
3.12843
3.08702
3.04672
3.00763
2.97007
2.93425
2.90058
2.86964
2.84236
2.81985
2.80527
4.69814
4.22547
4.37176
4.2519
4.0269
3.99019
3.96664
3.84633
3.72231
3.62018
3.55141
3.50579
3.46436
3.44317
3.43764
3.45479
3.50209
3.57335
3.66052
3.753
3.84635
3.93822
4.02791
4.11515
4.19973
4.28168
4.36064
4.43625
4.50981
4.5809
4.6474
4.70769
4.76249
4.81158
4.85541
4.89395
4.92789
4.95798
4.98304
5.00157
5.01443
5.02219
5.02528
5.02469
5.02165
5.01377
4.99914
4.98207
4.96279
4.94076
4.91592
4.88844
4.85855
4.82642
4.79221
4.75602
4.71801
4.67826
4.63692
4.59406
4.54986
4.50436
4.45773
4.41002
4.36137
4.31186
4.2616
4.2107
4.15926
4.10738
4.05519
4.0028
3.95034
3.89791
3.84564
3.79362
3.74195
3.69071
3.63996
3.58979
3.54021
3.49129
3.44305
3.39555
3.34876
3.30282
3.2577
3.2134
3.16995
3.12754
3.08618
3.04592
3.00697
2.9694
2.93356
2.89983
2.86879
2.84133
2.8185
2.80371
5.51718
4.79684
4.53605
4.28973
4.06978
3.99247
3.91669
3.81819
3.71148
3.61929
3.55583
3.50986
3.46554
3.43148
3.41862
3.44166
3.4923
3.56161
3.64983
3.74156
3.8356
3.92801
4.01803
4.10581
4.19109
4.27376
4.3536
4.43039
4.5045
4.57532
4.64168
4.70219
4.75711
4.8064
4.85038
4.88915
4.9231
4.95262
4.97722
4.99593
5.00894
5.01672
5.01961
5.01909
5.01653
5.00972
4.99561
4.97741
4.95751
4.9355
4.91083
4.88343
4.85356
4.8214
4.78716
4.75094
4.71291
4.67315
4.63182
4.58899
4.54482
4.49939
4.45282
4.40521
4.35666
4.30726
4.25712
4.20635
4.15504
4.10332
4.05128
3.99906
3.94677
3.89452
3.84242
3.79059
3.73907
3.68801
3.6374
3.58737
3.5379
3.4891
3.44098
3.39358
3.34678
3.30098
3.25602
3.21188
3.16871
3.12635
3.08505
3.04485
3.00593
2.96841
2.9326
2.89884
2.86771
2.84006
2.8168
2.80174
5.8796
5.10103
4.65983
4.37144
4.1532
4.01815
3.92511
3.8258
3.72269
3.62966
3.56124
3.50663
3.46687
3.44293
3.43792
3.45043
3.49099
3.56238
3.64651
3.73597
3.82831
3.92031
4.01052
4.09861
4.18414
4.26697
4.34677
4.42339
4.49687
4.56688
4.63265
4.693
4.74781
4.797
4.84082
4.87943
4.91312
4.94213
4.96623
4.98491
4.99806
5.00593
5.00873
5.00826
5.0061
5.00027
4.98773
4.96862
4.9479
4.92564
4.90112
4.87394
4.84423
4.81217
4.77799
4.74183
4.70387
4.6642
4.62297
4.58027
4.53624
4.49097
4.44457
4.39714
4.34879
4.2996
4.24968
4.19913
4.14807
4.09657
4.0448
3.99283
3.94081
3.88883
3.83703
3.78546
3.73425
3.68345
3.63312
3.58333
3.53411
3.48546
3.43759
3.3904
3.34417
3.29841
3.25354
3.20948
3.16641
3.1242
3.08307
3.04301
3.00426
2.96688
2.93122
2.89755
2.86645
2.83874
2.81515
2.79988
6.06315
5.32145
4.81972
4.48776
4.25279
4.08309
3.96679
3.86632
3.76987
3.68564
3.62277
3.57365
3.53618
3.50866
3.49577
3.49967
3.51998
3.56894
3.64629
3.7307
3.81998
3.91148
4.0026
4.09167
4.17797
4.26121
4.34102
4.41735
4.49004
4.55906
4.62372
4.68337
4.73754
4.78627
4.82956
4.8677
4.90084
4.92923
4.95277
4.97124
4.98441
4.99239
4.99511
4.99468
4.99278
4.9877
4.97668
4.95764
4.93629
4.91353
4.88888
4.86183
4.83231
4.8004
4.76633
4.73028
4.6924
4.65284
4.61173
4.56918
4.52532
4.48023
4.43405
4.38684
4.33874
4.2898
4.24016
4.18989
4.13911
4.08793
4.03647
3.98485
3.93317
3.88157
3.83012
3.77893
3.72809
3.67765
3.6276
3.57812
3.52925
3.48108
3.43351
3.38661
3.34048
3.29503
3.25038
3.20656
3.16368
3.12173
3.08083
3.04105
3.00255
2.96548
2.9301
2.89674
2.86587
2.83837
2.8147
2.79946
6.17778
5.50552
4.99417
4.62988
4.37206
4.18647
4.05515
3.95617
3.87442
3.8086
3.75738
3.71605
3.67882
3.64433
3.61762
3.603
3.60418
3.61614
3.65073
3.72175
3.80407
3.89841
3.99406
4.08639
4.17482
4.25843
4.33738
4.41188
4.48246
4.54928
4.612
4.67029
4.72355
4.77153
4.81418
4.8517
4.88423
4.91198
4.93498
4.95311
4.96623
4.9743
4.97709
4.9767
4.975
4.97053
4.96081
4.94262
4.9212
4.898
4.87304
4.84598
4.81662
4.78494
4.75108
4.71521
4.6775
4.63812
4.5972
4.55486
4.51122
4.46639
4.42048
4.37357
4.32576
4.27715
4.22782
4.1779
4.12746
4.07666
4.02556
3.97436
3.92309
3.87195
3.82092
3.77015
3.71976
3.6699
3.62048
3.57159
3.52319
3.47538
3.42814
3.38155
3.33567
3.29053
3.2462
3.20268
3.16011
3.11848
3.07795
3.03855
3.00049
2.9639
2.92906
2.8963
2.866
2.83911
2.81581
2.8013
6.25606
5.65652
5.1618
4.78539
4.50922
4.31286
4.177
4.08857
4.02969
3.98869
3.95693
3.92633
3.89108
3.84882
3.80002
3.75032
3.70851
3.69208
3.69869
3.72431
3.78297
3.8713
3.97379
4.07378
4.16716
4.25285
4.33176
4.40451
4.47297
4.53747
4.59815
4.65471
4.70675
4.75375
4.79565
4.83252
4.86441
4.89152
4.91396
4.93168
4.94463
4.95273
4.95561
4.95525
4.95371
4.94968
4.94094
4.92398
4.90307
4.87976
4.85451
4.82729
4.79798
4.7665
4.73289
4.69728
4.65984
4.6207
4.58004
4.53797
4.49463
4.45011
4.40454
4.35797
4.31054
4.2623
4.21338
4.16385
4.11384
4.06347
4.01284
3.96214
3.91134
3.86075
3.8104
3.7605
3.71079
3.6615
3.61258
3.56413
3.51613
3.46868
3.42182
3.37559
3.33008
3.2853
3.24137
3.19825
3.15612
3.11495
3.07493
3.03611
2.99871
2.96286
2.92889
2.89701
2.86765
2.84196
2.8197
2.80698
6.31343
5.78032
5.31612
4.94469
4.6644
4.46583
4.33622
4.26743
4.23827
4.2255
4.21528
4.19744
4.16514
4.11188
4.02926
3.93243
3.84298
3.78166
3.76379
3.77062
3.79538
3.85243
3.94429
4.04813
4.14862
4.23987
4.32143
4.39452
4.46144
4.52366
4.58195
4.63635
4.68671
4.73253
4.77354
4.80973
4.84096
4.86747
4.88939
4.90683
4.91966
4.92786
4.93078
4.93043
4.92895
4.92514
4.91699
4.90131
4.88132
4.85829
4.83292
4.8055
4.77612
4.74472
4.71135
4.67602
4.63889
4.60006
4.55974
4.51799
4.47501
4.43085
4.38566
4.33949
4.29247
4.24465
4.19616
4.14708
4.09754
4.04769
3.99758
3.94748
3.89753
3.84779
3.79823
3.74898
3.69993
3.6512
3.6028
3.55484
3.50735
3.46039
3.41403
3.36828
3.32328
3.27898
3.23556
3.19297
3.15143
3.11087
3.07159
3.03355
2.9971
2.96235
2.92957
2.89906
2.87135
2.84775
2.82742
2.81788
6.3609
5.88661
5.46057
5.10868
4.84012
4.65392
4.54702
4.51196
4.51372
4.5211
4.52064
4.51253
4.48457
4.41865
4.28457
4.1299
3.99493
3.8974
3.84418
3.83965
3.84749
3.87282
3.92958
4.01773
4.11411
4.20951
4.29646
4.37333
4.44184
4.50383
4.56073
4.61332
4.66192
4.70643
4.74654
4.78217
4.81275
4.83891
4.86048
4.87767
4.89028
4.8986
4.90165
4.90133
4.89995
4.89642
4.88888
4.8745
4.85573
4.83347
4.8084
4.78102
4.75162
4.7203
4.68712
4.6521
4.61534
4.57692
4.537
4.49567
4.45311
4.40938
4.36463
4.31892
4.27235
4.225
4.17696
4.12838
4.07933
4.03008
3.9808
3.93164
3.88255
3.83365
3.78481
3.7362
3.68777
3.63966
3.59186
3.54449
3.49758
3.45118
3.40538
3.3602
3.31576
3.27204
3.22925
3.18732
3.1465
3.10677
3.06842
3.03148
2.99634
2.96301
2.93184
2.90343
2.87823
2.8577
2.84046
2.83529
6.40718
5.98597
5.60328
5.28422
5.04502
4.88978
4.82628
4.82874
4.84196
4.87158
4.87059
4.85805
4.81572
4.71575
4.52219
4.32858
4.16538
4.0435
3.96461
3.92695
3.92732
3.93429
3.95611
4.00517
4.08222
4.16616
4.25316
4.33471
4.40846
4.47403
4.53235
4.58479
4.6324
4.67577
4.71493
4.74981
4.78015
4.80599
4.82746
4.84457
4.8573
4.86583
4.86924
4.86895
4.86767
4.86439
4.85739
4.84414
4.82661
4.80537
4.78095
4.75386
4.72458
4.69333
4.66031
4.62554
4.58914
4.55113
4.51166
4.47081
4.42874
4.3855
4.34124
4.29602
4.24992
4.20306
4.15551
4.10748
4.0592
4.0109
3.96255
3.91428
3.86599
3.81782
3.76969
3.72177
3.67403
3.6266
3.57949
3.53279
3.48654
3.4408
3.39568
3.35116
3.30742
3.26443
3.22241
3.18133
3.14146
3.1028
3.06569
3.03023
2.99676
2.96524
2.93643
2.9109
2.88919
2.87281
2.86038
2.8598
6.45805
6.08866
5.75694
5.48613
5.29487
5.19015
5.18354
5.19425
5.22325
5.25015
5.24247
5.20967
5.12601
4.95305
4.73327
4.52682
4.35405
4.21876
4.12002
4.05557
4.02266
4.0159
4.01988
4.03499
4.07071
4.13499
4.2007
4.27821
4.3559
4.42741
4.49072
4.54628
4.59527
4.63878
4.67751
4.71182
4.74183
4.76755
4.78915
4.80644
4.81959
4.82862
4.83268
4.83245
4.8313
4.82833
4.82198
4.80978
4.79349
4.77345
4.75001
4.72361
4.69474
4.66375
4.63095
4.59646
4.56042
4.52285
4.48389
4.44358
4.40206
4.35937
4.31565
4.27093
4.22535
4.17896
4.13207
4.08492
4.03762
3.99026
3.94279
3.89532
3.8478
3.80038
3.75302
3.70586
3.65888
3.6122
3.56584
3.51986
3.47437
3.42936
3.385
3.34125
3.29834
3.25622
3.21515
3.17513
3.13646
3.0992
3.06374
3.03027
2.99878
2.96993
2.94442
2.92289
2.90611
2.89534
2.89054
2.89145
6.52019
6.20895
5.93869
5.73268
5.60658
5.57219
5.58041
5.60493
5.63863
5.63395
5.60645
5.53003
5.3682
5.14715
4.92679
4.72673
4.55651
4.41485
4.30094
4.21392
4.15214
4.11441
4.09525
4.09628
4.10403
4.12617
4.17294
4.22414
4.29124
4.36324
4.43167
4.49302
4.54658
4.59287
4.63289
4.66758
4.69762
4.72343
4.74527
4.76317
4.77696
4.78679
4.79192
4.79181
4.79093
4.78843
4.78293
4.77186
4.75675
4.73797
4.71574
4.69033
4.66218
4.63169
4.59927
4.56512
4.52946
4.49235
4.45392
4.41417
4.37323
4.33113
4.28797
4.24378
4.19871
4.1531
4.10713
4.06096
4.01458
3.96808
3.92145
3.87479
3.8281
3.7815
3.73497
3.68863
3.64248
3.59661
3.55108
3.50592
3.46127
3.41711
3.37363
3.33081
3.28888
3.24784
3.20795
3.16928
3.13215
3.09673
3.06347
3.03212
3.00348
2.97828
2.95714
2.94093
2.93078
2.92743
2.92817
2.93146
6.60742
6.36436
6.17044
6.04448
5.99467
5.99924
6.01575
6.0449
6.04005
6.01109
5.93177
5.76613
5.54762
5.32603
5.11969
4.93432
4.76769
4.62184
4.4962
4.39048
4.30493
4.23947
4.19325
4.16482
4.15544
4.15832
4.17037
4.19923
4.2399
4.29385
4.35886
4.42351
4.48237
4.53378
4.5777
4.61487
4.64633
4.673
4.69554
4.71415
4.72898
4.73946
4.74605
4.74668
4.74606
4.74402
4.73938
4.72994
4.7161
4.69864
4.67773
4.65354
4.62643
4.59674
4.56495
4.53132
4.49616
4.45955
4.42167
4.38251
4.34219
4.30068
4.25807
4.21448
4.17023
4.12559
4.0806
4.03537
3.98989
3.94427
3.89851
3.85272
3.80691
3.76117
3.71554
3.67006
3.6248
3.57981
3.53518
3.49093
3.4472
3.40402
3.36154
3.31983
3.27905
3.23935
3.20092
3.16399
3.12884
3.0959
3.06503
3.03675
3.01205
2.99168
2.97634
2.96718
2.96608
2.96757
2.97226
2.98465
6.73974
6.57886
6.47475
6.4329
6.43746
6.45364
6.47268
6.4652
6.42976
6.33812
6.15312
5.93504
5.71496
5.50806
5.31769
5.14265
4.98077
4.83222
4.6974
4.57682
4.47196
4.38364
4.31263
4.25845
4.22198
4.19994
4.19941
4.20376
4.21816
4.24789
4.28877
4.34594
4.40424
4.45938
4.50835
4.55023
4.58542
4.6148
4.63918
4.65911
4.67509
4.68665
4.69452
4.69693
4.6965
4.69494
4.69127
4.68369
4.67133
4.6553
4.63584
4.61308
4.58728
4.55872
4.52786
4.49499
4.46049
4.42448
4.38721
4.34867
4.30896
4.26802
4.22605
4.18333
4.1401
4.09645
4.05243
4.00814
3.96359
3.91889
3.87405
3.82918
3.7843
3.73948
3.69477
3.65024
3.60593
3.56191
3.51827
3.47505
3.43239
3.39033
3.34906
3.30865
3.26933
3.23127
3.19473
3.16001
3.12757
3.09735
3.06964
3.04576
3.02626
3.0124
3.00442
3.00472
3.007
3.01368
3.02864
3.06029
6.94305
6.87288
6.86583
6.87716
6.90667
6.92224
6.91116
6.86576
6.75467
6.54454
6.31684
6.09481
5.888
5.69692
5.51907
5.35124
5.19153
5.04011
4.89768
4.76548
4.64558
4.53922
4.44776
4.37155
4.31122
4.2661
4.23754
4.22352
4.2247
4.23164
4.24792
4.27966
4.32406
4.37551
4.42569
4.47177
4.51222
4.54639
4.57447
4.59703
4.6148
4.62802
4.63719
4.64189
4.64175
4.64082
4.63826
4.63272
4.62207
4.60759
4.58971
4.56855
4.5443
4.51716
4.48754
4.45572
4.42211
4.38689
4.35033
4.31245
4.27334
4.23307
4.192
4.15032
4.10813
4.0655
4.0225
3.97918
3.93563
3.8919
3.84805
3.80415
3.76026
3.71643
3.67271
3.62919
3.58592
3.54298
3.50042
3.45838
3.41692
3.3762
3.33635
3.29754
3.26002
3.22404
3.18992
3.15818
3.12882
3.10197
3.07897
3.06077
3.04831
3.04268
3.04338
3.04664
3.05544
3.07466
3.10389
3.15864
7.24318
7.25556
7.2968
7.37265
7.39053
7.37585
7.31956
7.1853
6.95186
6.7043
6.47248
6.26165
6.06933
5.89053
5.7208
5.55689
5.39761
5.24234
5.0934
4.9523
4.82096
4.70074
4.59303
4.49861
4.41819
4.35188
4.30031
4.26332
4.24033
4.23254
4.23456
4.2422
4.26027
4.29646
4.33752
4.38291
4.42672
4.46593
4.49913
4.52598
4.54697
4.56288
4.57393
4.58083
4.5824
4.58187
4.58013
4.57611
4.56791
4.55519
4.53904
4.51966
4.49716
4.47172
4.44362
4.41315
4.3807
4.34649
4.3108
4.27367
4.23528
4.19595
4.15594
4.11534
4.07423
4.03268
3.99073
3.94848
3.90597
3.86328
3.82048
3.77762
3.73478
3.692
3.64937
3.60695
3.56482
3.52306
3.48176
3.44105
3.40103
3.36188
3.32377
3.28696
3.25172
3.2184
3.18756
3.1593
3.13347
3.11174
3.09491
3.08426
3.08118
3.08237
3.08684
3.09807
3.12141
3.16129
3.20043
3.2631
7.62821
7.70177
7.825
7.87206
7.85616
7.79238
7.63888
7.37531
7.10406
6.85561
6.63495
6.4377
6.25681
6.08575
5.92003
5.75721
5.59652
5.43803
5.28389
5.13585
4.99553
4.8645
4.74389
4.6348
4.53782
4.45354
4.38213
4.32425
4.27978
4.24913
4.2314
4.2277
4.22932
4.23729
4.25626
4.29307
4.33279
4.37367
4.41121
4.44332
4.46938
4.48947
4.5041
4.51343
4.51811
4.51791
4.51687
4.51416
4.50839
4.49763
4.48341
4.46599
4.44547
4.42195
4.39566
4.36684
4.33583
4.3029
4.26827
4.23208
4.19472
4.15654
4.11768
4.07824
4.03826
3.99785
3.95704
3.91592
3.87453
3.83297
3.79128
3.74956
3.70785
3.66623
3.62479
3.58359
3.54275
3.50233
3.46249
3.42332
3.38502
3.34778
3.31184
3.27754
3.24522
3.2155
3.18856
3.16406
3.14366
3.12902
3.11964
3.11974
3.12159
3.12765
3.14197
3.17132
3.21216
3.26262
3.30535
3.3652
8.13993
8.28844
8.36362
8.34941
8.28268
8.1163
7.81967
7.51945
7.24988
7.0146
6.80811
6.62183
6.44782
6.28004
6.11498
5.95106
5.78808
5.62646
5.4681
5.31452
5.16715
5.02762
4.89685
4.77603
4.66561
4.56637
4.47859
4.40268
4.33893
4.28781
4.24926
4.22452
4.21222
4.20568
4.20831
4.21828
4.24054
4.27537
4.31185
4.34755
4.37922
4.40519
4.42503
4.43874
4.44704
4.44915
4.44863
4.4469
4.44295
4.43489
4.42266
4.40728
4.38888
4.36749
4.34325
4.31636
4.2871
4.25572
4.2224
4.1875
4.15152
4.11466
4.07707
4.03887
4.00013
3.96093
3.92134
3.88143
3.84125
3.8009
3.76042
3.71993
3.67946
3.63914
3.59901
3.55921
3.51983
3.48098
3.44283
3.40552
3.36931
3.33443
3.30126
3.27017
3.24179
3.21645
3.19351
3.17484
3.16225
3.15603
3.15669
3.15992
3.16873
3.18768
3.2229
3.26757
3.31661
3.36824
3.40732
3.45718
8.77987
8.8803
8.8668
8.79487
8.61187
8.28374
7.95261
7.65868
7.40581
7.18655
6.99159
6.81164
6.63978
6.47154
6.30454
6.138
5.97207
5.80712
5.6452
5.48719
5.33437
5.1882
5.04948
4.91928
4.79806
4.68658
4.58506
4.49409
4.4139
4.34498
4.28755
4.24226
4.20976
4.1903
4.17418
4.1726
4.17623
4.18736
4.21104
4.24333
4.27698
4.30782
4.33368
4.35349
4.36698
4.37421
4.37491
4.37416
4.37187
4.3668
4.35683
4.34349
4.32719
4.30801
4.286
4.26129
4.23407
4.20453
4.17291
4.13976
4.1054
4.07005
4.0339
3.99707
3.95968
3.92179
3.88353
3.84491
3.80605
3.76701
3.72788
3.68873
3.64966
3.61078
3.57216
3.53396
3.49627
3.45929
3.42316
3.38815
3.35454
3.32269
3.29305
3.26629
3.24273
3.22175
3.20507
3.19465
3.19216
3.19351
3.19845
3.21071
3.23603
3.27518
3.32264
3.37398
3.42285
3.46769
3.49742
3.53443
9.44141
9.42721
9.34417
9.13245
8.76555
8.40087
8.08177
7.81025
7.57707
7.37115
7.18253
7.00391
6.83021
6.65867
6.48791
6.31778
6.14852
5.98112
5.81542
5.65356
5.49638
5.3449
5.19992
5.0622
4.93239
4.81087
4.69822
4.59471
4.50077
4.41669
4.34288
4.27978
4.22801
4.18846
4.16135
4.13904
4.1254
4.12646
4.13174
4.14468
4.17089
4.19997
4.22926
4.25483
4.27476
4.28845
4.29529
4.29548
4.29461
4.29195
4.28606
4.27494
4.26056
4.24345
4.2237
4.20134
4.17644
4.14913
4.11966
4.08856
4.05609
4.02251
3.98799
3.95271
3.91679
3.88036
3.84351
3.80632
3.7689
3.73131
3.69367
3.65604
3.61855
3.58131
3.54445
3.5081
3.47245
3.43769
3.40407
3.37192
3.34162
3.31366
3.28882
3.26735
3.2484
3.2345
3.22649
3.22686
3.2294
3.23698
3.25364
3.28649
3.32927
3.37902
3.4306
3.47958
3.5205
3.55365
3.57199
3.59675
10.0638
9.95566
9.6895
9.26809
8.86273
8.51602
8.22615
7.97959
7.76257
7.56421
7.37668
7.19519
7.01682
6.84017
6.66469
6.49045
6.31772
6.14714
5.97869
5.81386
5.65317
5.49743
5.34738
5.20363
5.06676
4.93715
4.81534
4.70145
4.59609
4.49928
4.41158
4.33322
4.2649
4.20718
4.16055
4.1271
4.09683
4.07504
4.06934
4.07107
4.07764
4.09253
4.11789
4.14404
4.16887
4.18918
4.20347
4.21067
4.21132
4.21042
4.20758
4.20128
4.18935
4.17422
4.15657
4.13653
4.11405
4.08918
4.06231
4.03364
4.00339
3.97184
3.93918
3.90566
3.87139
3.83657
3.80129
3.76568
3.72984
3.69387
3.65788
3.62198
3.58631
3.55097
3.51616
3.48204
3.44884
3.41684
3.38636
3.35786
3.33187
3.30915
3.29016
3.27363
3.2622
3.25859
3.25979
3.26437
3.27587
3.29975
3.33756
3.38431
3.43585
3.48754
3.53495
3.57411
3.60299
3.62327
3.63158
3.64651
10.6772
10.3392
9.81019
9.33897
8.95771
8.64955
8.39162
8.16517
7.95724
7.76014
7.56924
7.38204
7.19741
7.01488
6.83442
6.65611
6.48009
6.30664
6.13578
5.96824
5.80459
5.64541
5.49124
5.34261
5.19999
5.06376
4.93433
4.81194
4.69685
4.58936
4.4899
4.39879
4.31636
4.24325
4.18005
4.12715
4.08654
4.04963
4.02169
4.00557
4.00481
4.00703
4.01433
4.03038
4.05377
4.07712
4.09761
4.11256
4.12131
4.12253
4.12171
4.11897
4.11283
4.10057
4.08527
4.0674
4.04728
4.025
4.00082
3.97478
3.94707
3.91784
3.88735
3.85582
3.82344
3.79042
3.75691
3.72306
3.68899
3.65485
3.62075
3.58683
3.55325
3.52017
3.48782
3.45639
3.42624
3.39769
3.37123
3.34747
3.32728
3.31075
3.2976
3.28868
3.28902
3.29151
3.29903
3.31549
3.34765
3.39005
3.44008
3.49299
3.54433
3.58991
3.62651
3.65285
3.66923
3.6782
3.68082
3.68678
11.0852
10.4297
9.84441
9.40335
9.07197
8.80574
8.57393
8.35938
8.15346
7.95242
7.75502
7.56084
7.36986
7.18198
6.99708
6.81513
6.63613
6.46006
6.2871
6.11701
5.95088
5.78886
5.63129
5.47859
5.33117
5.18936
5.05352
4.9239
4.8008
4.68446
4.57516
4.47318
4.37891
4.29268
4.21495
4.14648
4.08801
4.04083
3.99854
3.96338
3.94151
3.93084
3.93123
3.93427
3.94268
3.9601
3.98113
4.00141
4.01722
4.02706
4.0296
4.02896
4.02677
4.02113
4.00991
3.99468
3.97684
3.957
3.93541
3.91209
3.88709
3.86049
3.83246
3.80322
3.77301
3.74205
3.71054
3.67867
3.64661
3.61454
3.5826
3.55099
3.51987
3.48949
3.4601
3.43203
3.40567
3.38157
3.36026
3.34305
3.32933
3.31908
3.3153
3.31667
3.32146
3.33366
3.35854
3.39638
3.44346
3.49592
3.54964
3.60012
3.64375
3.67785
3.70144
3.71525
3.72148
3.72252
3.7222
3.72302
11.1341
10.3988
9.86229
9.49183
9.21477
8.98025
8.76207
8.54966
8.34002
8.13299
7.92913
7.729
7.53299
7.34096
7.15268
6.96792
6.78643
6.60811
6.43289
6.26064
6.09218
5.92759
5.76705
5.61081
5.45924
5.31263
5.17129
5.03549
4.9055
4.78153
4.66388
4.55276
4.44852
4.35144
4.26202
4.1806
4.10783
4.0441
3.99101
3.94301
3.90219
3.87316
3.85616
3.84985
3.85079
3.85496
3.86488
3.88349
3.90195
3.91807
3.92912
3.93406
3.93374
3.93201
3.92746
3.91792
3.90331
3.886
3.8668
3.84604
3.82374
3.79991
3.7746
3.74799
3.72028
3.69171
3.66251
3.63292
3.60318
3.57348
3.54406
3.51513
3.48695
3.45982
3.43409
3.41021
3.38867
3.37031
3.35598
3.34597
3.33863
3.33911
3.34201
3.35072
3.36912
3.40296
3.4463
3.49713
3.55161
3.60548
3.65466
3.69589
3.7275
3.74849
3.76018
3.76398
3.76355
3.76185
3.75761
3.75769
11.0077
10.3273
9.89951
9.60833
9.37164
9.15188
8.93587
8.72068
8.50689
8.29593
8.08853
7.8853
7.6864
7.49186
7.30133
7.11451
6.93103
6.75073
6.57346
6.39927
6.22805
6.06084
5.8975
5.73809
5.58282
5.43199
5.28583
5.14466
5.00873
4.87827
4.75352
4.63473
4.52211
4.41595
4.31654
4.22424
4.13949
4.06281
3.99473
3.93647
3.8838
3.83793
3.80342
3.78072
3.76706
3.76475
3.76633
3.77176
3.78367
3.80106
3.81741
3.82975
3.83705
3.83736
3.83641
3.83325
3.82615
3.81235
3.79598
3.77768
3.75787
3.73665
3.71411
3.69032
3.66541
3.63957
3.61305
3.58612
3.55907
3.53217
3.50571
3.47999
3.45537
3.43226
3.4111
3.39254
3.37714
3.36668
3.35936
3.35766
3.35942
3.36525
3.37968
3.40823
3.44746
3.4959
3.55
3.60593
3.65956
3.70718
3.74605
3.77501
3.79374
3.80364
3.80556
3.8049
3.80272
3.79775
3.78764
3.78727
10.8435
10.2773
9.9604
9.72737
9.51105
9.2949
9.07811
8.8622
8.64838
8.43752
8.23047
8.02753
7.8286
7.63351
7.44212
7.25403
7.06904
6.88693
6.70765
6.53108
6.35735
6.1873
6.02109
5.85865
5.69999
5.54539
5.395
5.24919
5.10814
4.97214
4.8414
4.71612
4.5965
4.48277
4.37513
4.27388
4.17934
4.09193
4.01216
3.94045
3.87799
3.82104
3.77084
3.73185
3.70343
3.68591
3.6768
3.67721
3.67991
3.68694
3.70132
3.71697
3.7305
3.73937
3.74225
3.74171
3.73963
3.73427
3.72332
3.70837
3.69098
3.67212
3.65216
3.63117
3.60919
3.58636
3.56288
3.53904
3.51513
3.49152
3.46858
3.44676
3.42647
3.40838
3.39292
3.38109
3.37399
3.37119
3.3722
3.37666
3.38772
3.41079
3.44661
3.49199
3.54464
3.60131
3.65814
3.71112
3.75694
3.79353
3.82007
3.8371
3.84554
3.84594
3.84512
3.84269
3.8371
3.82798
3.81445
3.81332
10.7629
10.2732
10.0198
9.81675
9.60967
9.39716
9.18441
8.97356
8.76501
8.55895
8.35575
8.15561
7.95851
7.76433
7.57302
7.38432
7.19825
7.0146
6.83349
6.65484
6.47864
6.30546