/*--------------------------------*- C++ -*----------------------------------*\
  =========                 |
  \\      /  F ield         | OpenFOAM: The Open Source CFD Toolbox
   \\    /   O peration     | Website:  https://openfoam.org
    \\  /    A nd           | Version:  10
     \\/     M anipulation  |
\*---------------------------------------------------------------------------*/
FoamFile
{
    format      ascii;
    class       volScalarField;
    location    "9";
    object      T;
}
// * * * * * * * * * * * * * * * * * * * * * * * * * * * * * * * * * * * * * //

dimensions      [0 0 0 1 0 0 0];

internalField   nonuniform List<scalar> 
5250
(
1.00001
1.00002
1.00006
1.00013
1.00038
1.0008
1.00228
1.00502
1.01362
1.03212
1.0855
1.22297
1.60209
2.36665
2.71785
2.74072
2.73599
2.73856
2.75019
2.76622
2.77854
2.7869
2.79366
2.79839
2.80167
1.00001
1.00002
1.00006
1.00013
1.00038
1.00078
1.00232
1.00478
1.01387
1.03111
1.08531
1.21968
1.59589
2.35746
2.7146
2.74022
2.7354
2.73779
2.74933
2.76524
2.77746
2.78578
2.79249
2.79714
2.80028
1.00001
1.00002
1.00006
1.00012
1.00037
1.00076
1.00225
1.00477
1.01332
1.0308
1.0828
1.21474
1.58132
2.33722
2.70706
2.73885
2.73368
2.73551
2.74665
2.76248
2.77427
2.78272
2.78913
2.79394
2.79706
1.00001
1.00002
1.00005
1.00013
1.00033
1.0008
1.00204
1.00477
1.01268
1.02984
1.07952
1.20688
1.5591
2.3052
2.69494
2.73694
2.73099
2.73176
2.74254
2.75765
2.76947
2.77702
2.78349
2.78741
2.79052
1.00001
1.00002
1.00005
1.00013
1.00031
1.00078
1.00185
1.00486
1.01121
1.03
1.07318
1.19827
1.52848
2.25985
2.67789
2.73458
2.7273
2.72657
2.73681
2.75107
2.76273
2.7702
2.77605
2.78011
2.7828
1.00001
1.00002
1.00004
1.00013
1.00027
1.00076
1.0017
1.00453
1.01065
1.0276
1.06882
1.1841
1.49202
2.19818
2.65458
2.73167
2.72258
2.71968
2.72918
2.74261
2.75321
2.76019
2.76522
2.76833
2.77063
1.00001
1.00002
1.00004
1.00011
1.00027
1.00065
1.00168
1.00388
1.0104
1.02419
1.0645
1.1658
1.44991
2.11637
2.62372
2.7276
2.71619
2.71091
2.71957
2.73253
2.74201
2.74766
2.75175
2.7535
2.75411
1
1.00001
1.00004
1.0001
1.00024
1.0006
1.00143
1.00374
1.00864
1.02305
1.05557
1.14934
1.39775
2.014
2.58385
2.72081
2.70682
2.69883
2.70675
2.71866
2.72762
2.7313
2.7329
2.73171
2.72816
1
1.00001
1.00003
1.00008
1.00021
1.00053
1.00127
1.00327
1.00759
1.02016
1.04834
1.12921
1.34256
1.89075
2.5322
2.70846
2.69298
2.68341
2.69104
2.7015
2.709
2.7111
2.70902
2.70178
2.68629
1
1.00001
1.00003
1.00007
1.00019
1.00043
1.00119
1.00253
1.00725
1.01573
1.04361
1.10613
1.28885
1.751
2.46845
2.68714
2.67109
2.6628
2.66976
2.67986
2.6856
2.6851
2.67632
2.65394
2.59734
1
1.00001
1.00002
1.00007
1.00015
1.00043
1.00087
1.00262
1.00541
1.01543
1.03517
1.09538
1.2468
1.65999
2.40574
2.66622
2.65445
2.64596
2.64785
2.65528
2.6589
2.65415
2.6348
2.58803
2.48262
1
1.00001
1.00002
1.00005
1.00015
1.00031
1.00093
1.00189
1.00547
1.01203
1.03269
1.07962
1.21591
1.57063
2.30568
2.62746
2.64254
2.63335
2.62942
2.63136
2.63029
2.61945
2.58998
2.52736
2.41789
1
1.00001
1.00002
1.00005
1.00012
1.00028
1.00076
1.00167
1.00469
1.01021
1.02836
1.06732
1.18374
1.48577
2.17435
2.57573
2.63337
2.62341
2.614
2.60994
2.60293
2.58555
2.5505
2.48853
2.39413
1
1.00001
1.00001
1.00004
1.00009
1.00027
1.00055
1.00164
1.00335
1.00973
1.02162
1.05893
1.14841
1.40393
2.01194
2.50791
2.62001
2.61072
2.59858
2.58859
2.5772
2.55554
2.51795
2.46205
2.38451
1
1
1.00001
1.00003
1.00009
1.0002
1.0005
1.00122
1.00295
1.00752
1.01798
1.04662
1.1185
1.31742
1.82251
2.41929
2.59402
2.59049
2.57947
2.56617
2.55155
2.53018
2.49428
2.44093
2.37511
1
1
1.00001
1.00003
1.00007
1.00015
1.00042
1.00089
1.00257
1.00539
1.0153
1.03451
1.09359
1.23973
1.63436
2.31009
2.55475
2.56354
2.55444
2.54134
2.52615
2.5037
2.47293
2.42573
2.36574
1
1
1.00001
1.00002
1.00005
1.00014
1.0003
1.00081
1.00185
1.00473
1.01149
1.02875
1.07285
1.19152
1.50743
2.1784
2.50457
2.54125
2.5319
2.51907
2.50392
2.48093
2.45119
2.41052
2.35848
1
1
1.00001
1.00002
1.00004
1.0001
1.00025
1.00063
1.00144
1.00387
1.00862
1.0236
1.05554
1.15027
1.39466
1.98693
2.4239
2.51901
2.51307
2.50001
2.48316
2.46113
2.43285
2.39635
2.35098
1
1
1
1.00001
1.00003
1.00008
1.00017
1.00051
1.00104
1.00305
1.00649
1.01791
1.04175
1.11185
1.28996
1.75659
2.31509
2.48498
2.49099
2.48014
2.46372
2.44117
2.41524
2.38272
2.34405
1
1
1
1.00001
1.00002
1.00006
1.00014
1.00036
1.00082
1.00223
1.00483
1.01342
1.03029
1.0816
1.20702
1.54782
2.17679
2.43494
2.46414
2.45703
2.44113
2.42197
2.39803
2.36991
2.3356
1
1
1
1.00001
1.00002
1.00004
1.00011
1.00026
1.00065
1.00159
1.00379
1.00976
1.02304
1.06029
1.15313
1.4082
1.98921
2.36164
2.43824
2.43504
2.42188
2.40233
2.38253
2.35771
2.32946
1
1
1
1.00001
1.00001
1.00003
1.00007
1.00021
1.00043
1.00127
1.00257
1.00749
1.01617
1.04435
1.10791
1.29071
1.74331
2.25037
2.40224
2.41203
2.40334
2.3863
2.36635
2.34532
2.32143
1
1
1
1
1.00001
1.00002
1.00006
1.00013
1.00037
1.00074
1.0022
1.00452
1.0128
1.02873
1.07704
1.1938
1.51273
2.09702
2.34632
2.3852
2.38144
2.3687
2.35214
2.33339
2.31424
1
1
1
1
1.00001
1.00002
1.00004
1.0001
1.00023
1.0006
1.00143
1.00346
1.00875
1.02084
1.05381
1.13605
1.35992
1.88441
2.2611
2.3559
2.36043
2.3529
2.33832
2.32318
2.31039
1
1
1
1
1.00001
1.00001
1.00003
1.00007
1.00017
1.0004
1.00098
1.00246
1.00571
1.01494
1.03499
1.09178
1.23404
1.60865
2.1314
2.31371
2.3381
2.33572
2.32682
2.31552
2.31051
1
1
1
1
1
1.00001
1.00002
1.00005
1.00011
1.00029
1.00066
1.00176
1.00383
1.01058
1.02356
1.06342
1.15688
1.41729
1.9579
2.25417
2.31636
2.32123
2.31742
2.31447
2.31658
1
1
1
1
1
1
1.00001
1.00003
1.00008
1.00019
1.00047
1.00115
1.00276
1.00697
1.01643
1.04247
1.10535
1.27731
1.70418
2.14871
2.28709
2.30868
2.31379
2.3187
2.33038
1
1
1
1
1
1
1.00001
1.00002
1.00006
1.00012
1.00034
1.00071
1.00199
1.00434
1.01157
1.02688
1.07002
1.17582
1.46307
1.99017
2.23799
2.29472
2.31479
2.3315
2.35061
1
1
1
1
1
1
1.00001
1.00001
1.00004
1.00009
1.00021
1.00055
1.00119
1.00329
1.00705
1.01957
1.04439
1.11939
1.30338
1.75895
2.15427
2.28636
2.32766
2.35832
2.38674
1
1
1
1
1
1
1
1.00001
1.00002
1.00006
1.00015
1.00033
1.0009
1.00191
1.00537
1.01148
1.03148
1.0738
1.1956
1.50262
2.02298
2.27041
2.35307
2.39439
2.42427
1
1
1
1
1
1
1
1.00001
1.00002
1.00004
1.00009
1.00026
1.00054
1.00151
1.00331
1.00876
1.02045
1.05288
1.1324
1.34927
1.84241
2.24392
2.39856
2.45315
2.46582
1
1
1
1
1
1
1
1
1.00001
1.00003
1.00007
1.00018
1.00038
1.0011
1.00224
1.00653
1.01388
1.03817
1.09105
1.24285
1.61739
2.19535
2.45517
2.51794
2.51327
1
1
1
1
1
1
1
1
1.00001
1.00002
1.00006
1.00013
1.00032
1.00079
1.00189
1.00487
1.01134
1.02991
1.07282
1.1949
1.51
2.15232
2.53819
2.59957
2.57303
1
1
1
1
1
1
1
1
1.00001
1.00002
1.00004
1.00011
1.00026
1.00066
1.00157
1.0041
1.00946
1.02539
1.06145
1.16619
1.44272
2.06705
2.61175
2.68485
2.63651
1
1
1
1
1
1
1
1
1.00001
1.00002
1.00003
1.0001
1.00021
1.00062
1.00129
1.0037
1.00824
1.02241
1.05438
1.14741
1.39582
1.98139
2.6624
2.75472
2.69238
1
1
1
1
1
1
1
1
1.00001
1.00001
1.00004
1.00008
1.00022
1.00048
1.00138
1.0029
1.00852
1.01871
1.05229
1.1317
1.3664
1.92278
2.68288
2.792
2.72509
1
1
1
1
1
1
1
1
1.00001
1.00001
1.00003
1.00007
1.00021
1.00046
1.00123
1.00291
1.00742
1.01845
1.04722
1.12378
1.33872
1.87583
2.66938
2.80691
2.74501
1
1
1
1
1
1
1
1
1
1.00001
1.00003
1.00007
1.00019
1.00043
1.0012
1.00261
1.00747
1.01655
1.046
1.11458
1.31725
1.83563
2.6228
2.80801
2.75655
1
1
1
1
1
1
1
1
1
1.00001
1.00003
1.00007
1.00018
1.00043
1.00112
1.00259
1.00702
1.01615
1.04366
1.10983
1.30131
1.80303
2.58082
2.80819
2.76385
1
1
1
1
1
1
1
1
1
1.00001
1.00003
1.00007
1.00017
1.00043
1.00102
1.00273
1.00617
1.01697
1.03997
1.10828
1.28758
1.77665
2.55044
2.80182
2.76538
1
1
1
1
1
1
1
1
1
1.00001
1.00003
1.00006
1.00018
1.00038
1.0011
1.0024
1.00655
1.01534
1.04057
1.10256
1.27976
1.75185
2.52528
2.79245
2.7635
1
1
1
1
1
1
1
1
1
1.00001
1.00002
1.00007
1.00015
1.00043
1.00094
1.00259
1.00594
1.01573
1.0382
1.1015
1.26903
1.7327
2.50198
2.78211
2.7592
1
1
1
1
1
1
1
1
1
1.00001
1.00003
1.00006
1.00018
1.00036
1.00106
1.00227
1.00632
1.01453
1.03871
1.09698
1.26395
1.71264
2.48165
2.77104
2.7527
1
1
1
1
1
1
1
1
1
1.00001
1.00002
1.00007
1.00015
1.00041
1.00092
1.00246
1.0058
1.0149
1.03687
1.09639
1.25572
1.69776
2.46309
2.76051
2.74641
1
1
1
1
1
1
1
1
1
1.00001
1.00002
1.00006
1.00015
1.00038
1.00096
1.0023
1.00598
1.01408
1.03717
1.09316
1.25156
1.68018
2.44954
2.75098
2.74038
1
1
1
1
1
1
1
1
1
1.00001
1.00003
1.00006
1.00016
1.00038
1.00093
1.00234
1.00559
1.01464
1.03519
1.09302
1.246
1.66208
2.4413
2.7422
2.73493
1
1
1
1
1
1
1
1
1
1.00001
1.00002
1.00006
1.00015
1.0004
1.00086
1.00245
1.00526
1.01488
1.03398
1.09249
1.24101
1.64629
2.43409
2.73495
2.73168
1
1
1
1
1
1
1
1
1
1.00001
1.00002
1.00006
1.00014
1.00039
1.00085
1.00243
1.0052
1.01473
1.03359
1.09144
1.23793
1.63575
2.42551
2.7291
2.73081
1
1
1
1
1
1
1
1
1
1.00001
1.00003
1.00006
1.00016
1.00036
1.00092
1.00225
1.00549
1.01401
1.03436
1.08941
1.23754
1.63048
2.41958
2.72389
2.72982
1
1
1
1
1
1
1
1
1
1.00001
1.00003
1.00005
1.00016
1.00034
1.00096
1.00214
1.00569
1.01352
1.03493
1.08821
1.23744
1.62796
2.41702
2.72124
2.72885
2.35303
2.4884
2.77371
3.02037
3.02626
2.98469
2.97012
2.95677
2.93664
2.91604
2.89847
2.88399
2.87105
2.86395
2.86295
2.86305
2.87045
2.87895
2.89153
2.90331
2.91617
2.92686
2.93778
2.94801
2.95636
2.96516
2.97043
2.9778
2.98161
2.98554
2.9877
2.9886
2.98888
2.98737
2.98504
2.98297
2.98206
2.97997
2.97618
2.97272
2.96673
2.96128
2.95541
2.94898
2.94309
2.9347
2.92797
2.91917
2.9114
2.9018
2.89441
2.88409
2.87599
2.86557
2.8568
2.84664
2.83723
2.82663
2.8174
2.80611
2.79664
2.78499
2.77571
2.76352
2.75414
2.74184
2.73176
2.71994
2.70917
2.69769
2.6867
2.67512
2.66431
2.65261
2.64201
2.63032
2.61998
2.60822
2.59829
2.5864
2.57688
2.56498
2.5557
2.5441
2.53474
2.52378
2.51416
2.50392
2.4942
2.48451
2.47504
2.46573
2.45683
2.44796
2.43986
2.43177
2.42495
2.4185
2.41417
2.41023
2.36705
2.46216
2.60542
2.82929
2.98297
3.02797
3.10076
3.11318
3.10705
3.09662
3.08583
3.07893
3.07386
3.07017
3.07342
3.07491
3.07669
3.07849
3.07929
3.07939
3.07785
3.07467
3.07006
3.06464
3.05734
3.05169
3.04873
3.04191
3.03705
3.02833
3.0223
3.01189
3.00359
2.99314
2.98463
2.97366
2.96473
2.95251
2.9435
2.93119
2.92048
2.90857
2.89785
2.88597
2.87554
2.86335
2.85205
2.84036
2.82906
2.81793
2.80589
2.79474
2.78331
2.77211
2.76087
2.74951
2.73816
2.72653
2.71535
2.70345
2.69236
2.68064
2.66922
2.65798
2.64607
2.6352
2.62305
2.61224
2.60014
2.58924
2.57732
2.56635
2.55466
2.54365
2.53226
2.52119
2.51022
2.49905
2.48859
2.4774
2.46735
2.4564
2.44654
2.43612
2.42623
2.4165
2.40659
2.39745
2.38767
2.37891
2.36944
2.36093
2.35198
2.34384
2.33573
2.32837
2.32158
2.3158
2.31155
2.30831
2.3557
2.38444
2.4647
2.52276
2.65371
2.76583
2.93531
3.0359
3.09245
3.11285
3.12041
3.1513
3.1661
3.1687
3.17106
3.17073
3.16661
3.15898
3.14948
3.13766
3.12346
3.10886
3.09293
3.07711
3.06143
3.04567
3.0291
3.01068
2.99307
2.97346
2.95556
2.93551
2.91713
2.89873
2.88062
2.86292
2.84602
2.82936
2.81341
2.79794
2.78266
2.76819
2.7533
2.74043
2.72672
2.71425
2.70001
2.6872
2.67444
2.66243
2.65047
2.63885
2.62759
2.61606
2.60545
2.59398
2.58381
2.57267
2.56265
2.55204
2.54194
2.53174
2.52153
2.51147
2.50139
2.49133
2.48151
2.47146
2.4619
2.45185
2.44251
2.43242
2.42335
2.41318
2.40443
2.3942
2.38581
2.3756
2.36746
2.35747
2.34939
2.33983
2.33162
2.32262
2.31421
2.30575
2.29712
2.28907
2.28041
2.27268
2.26428
2.2569
2.24897
2.24206
2.23481
2.22873
2.22257
2.21801
2.21412
2.21205
2.33189
2.3245
2.35665
2.38855
2.44596
2.52569
2.6006
2.72462
2.83152
2.95376
3.01126
3.05299
3.08472
3.10366
3.1093
3.1025
3.08843
3.07035
3.05333
3.03464
3.01329
2.99225
2.96864
2.94659
2.92318
2.90025
2.8769
2.85385
2.83226
2.81015
2.79054
2.76979
2.75158
2.73266
2.71577
2.69896
2.68335
2.66834
2.65444
2.64074
2.62836
2.61535
2.60438
2.59226
2.58242
2.571
2.56073
2.54883
2.53912
2.52785
2.51884
2.50798
2.49926
2.48886
2.48015
2.47032
2.46142
2.45214
2.44295
2.43399
2.42449
2.41564
2.40592
2.39708
2.38724
2.37839
2.36846
2.35958
2.3496
2.34074
2.33082
2.322
2.31227
2.30354
2.29409
2.28546
2.27631
2.26782
2.25887
2.25068
2.24178
2.23402
2.22503
2.21767
2.20858
2.20163
2.19261
2.18605
2.17729
2.17102
2.16261
2.15661
2.14871
2.14307
2.13588
2.1309
2.12485
2.12113
2.11732
2.11589
2.31827
2.28753
2.28817
2.30829
2.33239
2.38086
2.42727
2.48769
2.55826
2.62867
2.71434
2.78428
2.83652
2.86846
2.87829
2.87048
2.85423
2.83152
2.81279
2.79118
2.77204
2.75145
2.73227
2.71308
2.69404
2.67525
2.65596
2.63909
2.62152
2.60749
2.59275
2.58143
2.5689
2.55946
2.54897
2.54086
2.5319
2.52479
2.51653
2.50996
2.50168
2.49507
2.48685
2.4804
2.47293
2.46647
2.45867
2.4512
2.44343
2.43613
2.42857
2.42129
2.41355
2.4063
2.39833
2.3912
2.38307
2.37603
2.36784
2.36082
2.35258
2.34549
2.33717
2.32993
2.32151
2.31407
2.30557
2.29789
2.28936
2.28137
2.27287
2.26453
2.25612
2.24748
2.23922
2.23041
2.22229
2.21343
2.20532
2.19646
2.18819
2.17943
2.17106
2.16258
2.15428
2.14609
2.138
2.13009
2.1224
2.11475
2.10755
2.10023
2.09358
2.08673
2.08072
2.07462
2.06952
2.06467
2.06144
2.05881
2.31091
2.27047
2.25182
2.25227
2.26466
2.28996
2.32284
2.35843
2.40592
2.44821
2.49778
2.54126
2.57049
2.59426
2.59252
2.58448
2.56823
2.54862
2.53074
2.51768
2.50803
2.50042
2.49389
2.48654
2.48018
2.47449
2.46922
2.46443
2.46
2.45617
2.45233
2.44887
2.44546
2.4423
2.439
2.43575
2.43239
2.42874
2.42533
2.42101
2.41752
2.41246
2.40881
2.40356
2.40041
2.39501
2.39101
2.38435
2.37956
2.37268
2.3674
2.36032
2.35437
2.34709
2.34051
2.33309
2.32601
2.31849
2.3111
2.30351
2.29597
2.28827
2.28062
2.27277
2.26508
2.25707
2.24945
2.24132
2.23388
2.22567
2.21846
2.21017
2.20319
2.19481
2.18799
2.17957
2.1727
2.16424
2.15718
2.14887
2.14164
2.1336
2.12617
2.11844
2.11084
2.10341
2.09573
2.08857
2.08094
2.07405
2.06661
2.06006
2.05299
2.04694
2.0405
2.0352
2.02981
2.02577
2.02244
2.02054
2.3059
2.26387
2.23458
2.22192
2.22212
2.23336
2.25689
2.28217
2.31617
2.35156
2.38155
2.41166
2.42682
2.43561
2.42893
2.41633
2.39943
2.3857
2.37255
2.36476
2.36262
2.36577
2.3696
2.37359
2.37684
2.37876
2.38083
2.38117
2.38189
2.38203
2.38193
2.3816
2.38081
2.37982
2.3782
2.3765
2.37419
2.37175
2.36883
2.36554
2.36198
2.35761
2.35321
2.34839
2.34397
2.33895
2.33361
2.32761
2.32148
2.31534
2.30895
2.30295
2.29641
2.29048
2.28367
2.27763
2.27053
2.26432
2.25699
2.25058
2.24312
2.23653
2.22902
2.22222
2.2147
2.20771
2.20025
2.19303
2.1857
2.17825
2.17105
2.16338
2.15631
2.14844
2.14138
2.1334
2.12632
2.11846
2.11136
2.10374
2.09659
2.08929
2.08211
2.07514
2.06799
2.06134
2.0543
2.04793
2.04112
2.03502
2.02853
2.02273
2.01668
2.01129
2.00583
2.00106
1.9965
1.99282
1.9901
1.98832
2.30315
2.26082
2.2291
2.20773
2.2002
2.20307
2.21772
2.24022
2.26567
2.29601
2.31896
2.33872
2.34991
2.34747
2.33561
2.3176
2.2994
2.28406
2.27467
2.2673
2.26442
2.26646
2.27313
2.27987
2.28631
2.29034
2.29367
2.29547
2.29702
2.29782
2.29849
2.2987
2.29865
2.29825
2.29746
2.29615
2.29474
2.29263
2.29072
2.288
2.28576
2.28243
2.27981
2.27633
2.2737
2.27011
2.26649
2.26191
2.25725
2.25232
2.24712
2.24216
2.23661
2.23153
2.22549
2.22005
2.2135
2.2077
2.20081
2.19474
2.18767
2.18138
2.17422
2.16765
2.16041
2.15355
2.1463
2.1392
2.13202
2.12477
2.11775
2.11036
2.10343
2.09598
2.08913
2.08172
2.07486
2.06758
2.06062
2.05354
2.04646
2.03968
2.03248
2.02603
2.01878
2.01265
2.00545
1.99961
1.99254
1.98701
1.98019
1.97503
1.96862
1.96399
1.95824
1.95433
1.94971
1.94702
1.94451
1.94356
2.30121
2.26107
2.22858
2.20569
2.19349
2.19373
2.2045
2.2262
2.24762
2.27171
2.29075
2.30261
2.30928
2.3015
2.28257
2.25935
2.23675
2.22033
2.2084
2.20332
2.1978
2.19795
2.2018
2.20951
2.21817
2.22499
2.23136
2.23537
2.23951
2.24205
2.24487
2.24677
2.24857
2.24997
2.25071
2.25158
2.25158
2.25137
2.25093
2.24997
2.24908
2.2472
2.24589
2.24345
2.24184
2.23907
2.23636
2.23248
2.22858
2.22413
2.21951
2.21488
2.20982
2.20501
2.19944
2.19421
2.18811
2.18245
2.176
2.17
2.1634
2.1571
2.1504
2.14374
2.13692
2.12985
2.12292
2.11548
2.10853
2.10081
2.09387
2.08605
2.07924
2.07147
2.06472
2.05705
2.05026
2.04274
2.03581
2.02848
2.02137
2.01427
2.007
2.00016
1.99284
1.98632
1.97907
1.97289
1.96585
1.96003
1.95335
1.94795
1.94183
1.93696
1.93161
1.92755
1.9235
1.92074
1.91893
1.91766
2.29941
2.26298
2.23263
2.21071
2.1987
2.19923
2.21064
2.22957
2.24831
2.26715
2.28103
2.28906
2.28764
2.2741
2.24933
2.2228
2.20026
2.18144
2.16922
2.16135
2.15729
2.15425
2.15459
2.15888
2.16553
2.17342
2.18042
2.18709
2.19224
2.19684
2.20011
2.20322
2.20533
2.2075
2.2086
2.20975
2.21003
2.21011
2.2099
2.20926
2.20853
2.20698
2.20565
2.20343
2.20169
2.19926
2.19655
2.19317
2.18946
2.18558
2.18123
2.17704
2.17222
2.16772
2.16243
2.15754
2.15186
2.1466
2.1407
2.13517
2.12918
2.12336
2.11732
2.11115
2.10502
2.09843
2.09221
2.08527
2.07899
2.07184
2.06565
2.05851
2.05242
2.04535
2.03925
2.03227
2.02607
2.01923
2.0129
2.0063
1.99987
1.99358
1.98705
1.98106
1.97448
1.96876
1.9622
1.95673
1.95032
1.94513
1.93906
1.93427
1.92873
1.92444
1.91977
1.91643
1.91319
1.91132
1.91043
1.90954
2.29644
2.26714
2.2397
2.22252
2.21527
2.2189
2.23058
2.24635
2.26289
2.27535
2.28279
2.28479
2.27513
2.25417
2.2276
2.20214
2.17982
2.16119
2.14663
2.1358
2.12918
2.12536
2.12252
2.1227
2.12585
2.13119
2.13745
2.1448
2.15164
2.15784
2.16273
2.16694
2.17013
2.17283
2.17486
2.17666
2.17785
2.17895
2.17947
2.17984
2.17957
2.17899
2.17783
2.17637
2.17486
2.17318
2.17074
2.1681
2.16473
2.16154
2.15748
2.15382
2.14917
2.14504
2.1398
2.13515
2.12939
2.12428
2.11816
2.11272
2.10644
2.10071
2.09431
2.08822
2.08171
2.07521
2.06857
2.06168
2.05502
2.04797
2.04135
2.03425
2.02764
2.02057
2.01393
2.00697
2.00026
1.99348
1.98666
1.98008
1.97314
1.9668
1.9598
1.95376
1.94678
1.94109
1.93426
1.92892
1.92242
1.91746
1.91152
1.907
1.90186
1.89803
1.89417
1.89154
1.88947
1.88883
1.88899
1.88821
2.29625
2.27153
2.25398
2.24079
2.24105
2.24752
2.26002
2.27272
2.28387
2.29027
2.29178
2.28398
2.26595
2.24127
2.2167
2.19345
2.17262
2.15399
2.13829
2.12498
2.11598
2.10839
2.10528
2.10195
2.10157
2.10293
2.10694
2.11206
2.11938
2.12628
2.13296
2.1381
2.14277
2.14598
2.14905
2.1509
2.15262
2.15367
2.15429
2.15472
2.15461
2.15402
2.15319
2.15164
2.15039
2.14861
2.14657
2.14405
2.14106
2.13792
2.13411
2.13039
2.12585
2.12166
2.11659
2.11202
2.10658
2.10168
2.09603
2.09082
2.08508
2.07956
2.07372
2.06782
2.06181
2.05547
2.04929
2.04268
2.03643
2.02965
2.02339
2.01659
2.01036
2.00365
1.99743
1.99081
1.98452
1.97802
1.97158
1.96522
1.95863
1.95249
1.94584
1.93999
1.93343
1.92791
1.9216
1.91643
1.91052
1.90578
1.9005
1.89623
1.89193
1.88849
1.88576
1.88383
1.88331
1.88353
1.88473
1.88379
2.29635
2.28104
2.27048
2.26894
2.27297
2.28188
2.29161
2.30084
2.30617
2.30708
2.29937
2.28234
2.26011
2.23714
2.21526
2.19432
2.17426
2.15577
2.13893
2.12441
2.11209
2.1024
2.0948
2.08994
2.08649
2.08493
2.08515
2.08728
2.09123
2.09784
2.10383
2.11072
2.11533
2.12001
2.12297
2.12549
2.12738
2.12853
2.1298
2.13015
2.13079
2.13058
2.12999
2.12898
2.12774
2.12645
2.1246
2.12257
2.11968
2.11695
2.11328
2.10997
2.1056
2.10173
2.09677
2.09236
2.08692
2.08207
2.07636
2.07118
2.06534
2.05988
2.05396
2.04816
2.04213
2.03595
2.02987
2.0234
2.01726
2.01064
2.00445
1.9979
1.99163
1.9853
1.97889
1.97275
1.9662
1.96015
1.95354
1.94747
1.94098
1.93485
1.92867
1.92255
1.91678
1.91084
1.90548
1.9
1.89504
1.89029
1.88583
1.88199
1.87845
1.87612
1.87418
1.87407
1.87438
1.87536
1.87771
1.87734
2.30052
2.29417
2.29453
2.2995
2.30729
2.31693
2.32297
2.32749
2.32581
2.31682
2.29949
2.27886
2.2575
2.238
2.21808
2.19988
2.18029
2.16274
2.14471
2.12941
2.11466
2.10303
2.09216
2.08443
2.07722
2.07397
2.07076
2.07076
2.07127
2.07389
2.07875
2.0846
2.08998
2.09518
2.09877
2.10229
2.10431
2.10637
2.10756
2.1084
2.10914
2.10908
2.10865
2.10785
2.10663
2.10558
2.10393
2.10206
2.09933
2.09676
2.09327
2.09011
2.08585
2.08215
2.07727
2.0731
2.06776
2.06317
2.05758
2.05261
2.04691
2.04154
2.03576
2.02998
2.02417
2.01812
2.01225
2.006
2.00004
1.99369
1.98764
1.98128
1.97523
1.96892
1.96289
1.95671
1.95065
1.94462
1.93844
1.93257
1.92629
1.92056
1.91437
1.90877
1.90292
1.89752
1.89226
1.88724
1.8828
1.87833
1.87481
1.87139
1.86934
1.86772
1.8678
1.86842
1.8695
1.87197
1.87561
1.87767
2.31093
2.31448
2.32295
2.33037
2.34268
2.34751
2.35181
2.349
2.33878
2.32075
2.30032
2.28007
2.26037
2.24293
2.22469
2.20761
2.18863
2.17122
2.15273
2.1367
2.1207
2.10728
2.09404
2.0836
2.07361
2.06694
2.0611
2.05856
2.05637
2.05647
2.05737
2.06045
2.06512
2.06973
2.07433
2.07822
2.08127
2.08385
2.08529
2.08663
2.08701
2.08729
2.08694
2.08622
2.08493
2.08402
2.08233
2.08097
2.07837
2.07634
2.0729
2.07029
2.06608
2.06283
2.05795
2.05409
2.04876
2.04438
2.03881
2.03399
2.02831
2.02308
2.01733
2.01182
2.00607
2.00037
1.99452
1.98867
1.98268
1.97673
1.97068
1.96468
1.95869
1.95266
1.94682
1.94075
1.93505
1.92894
1.92331
1.91727
1.91161
1.90585
1.90017
1.89486
1.88937
1.88461
1.87961
1.87556
1.87131
1.86802
1.86496
1.86311
1.86202
1.86213
1.86294
1.86446
1.8668
1.87183
1.87852
1.88201
2.3254
2.33906
2.35021
2.36412
2.37093
2.37497
2.37126
2.35927
2.34077
2.32056
2.30094
2.28273
2.26514
2.24913
2.23241
2.21598
2.19767
2.18005
2.16165
2.14495
2.12828
2.11318
2.09857
2.08566
2.07365
2.06394
2.05523
2.04957
2.04477
2.0427
2.04075
2.04083
2.04212
2.04509
2.0493
2.05296
2.0569
2.05975
2.06202
2.0637
2.06444
2.06516
2.06501
2.0645
2.06346
2.06253
2.06134
2.06001
2.05806
2.05577
2.05292
2.04998
2.04635
2.04282
2.03853
2.03449
2.02973
2.02525
2.02021
2.01532
2.01006
2.00477
1.9994
1.99389
1.98842
1.98278
1.97712
1.97143
1.96554
1.95986
1.95378
1.94815
1.94201
1.9364
1.93038
1.92475
1.91897
1.91327
1.90776
1.90202
1.89676
1.89111
1.88615
1.8808
1.87624
1.87154
1.86758
1.86383
1.86054
1.85816
1.85632
1.85603
1.85632
1.85741
1.85913
1.86294
1.86773
1.87531
1.88339
1.88753
2.34688
2.36674
2.38481
2.39126
2.39582
2.39215
2.37975
2.3602
2.33995
2.32069
2.30253
2.28598
2.27044
2.25529
2.23989
2.22346
2.20604
2.18793
2.17001
2.15232
2.13563
2.11912
2.1039
2.08907
2.07555
2.06335
2.05241
2.04347
2.03598
2.03075
2.02677
2.02483
2.02296
2.02303
2.02449
2.02766
2.0312
2.03441
2.03752
2.03942
2.04123
2.04184
2.04243
2.04209
2.04123
2.04049
2.03923
2.03812
2.03637
2.03426
2.03192
2.0291
2.02616
2.02269
2.01907
2.01503
2.01079
2.00627
2.00154
1.99657
1.99148
1.9862
1.98103
1.97556
1.97038
1.96472
1.9595
1.95372
1.94841
1.94262
1.93715
1.93151
1.92585
1.92043
1.91466
1.90942
1.90369
1.89855
1.89297
1.88789
1.88256
1.87759
1.87271
1.86803
1.86386
1.85984
1.85659
1.85342
1.85149
1.8501
1.85018
1.85096
1.85216
1.85487
1.85827
1.86518
1.87234
1.88088
1.88891
1.89239
2.37585
2.39757
2.40827
2.41423
2.41125
2.39827
2.37793
2.35717
2.33775
2.32075
2.3043
2.28926
2.27439
2.26009
2.24493
2.229
2.21192
2.19423
2.17667
2.15882
2.142
2.12455
2.10879
2.09223
2.07791
2.06334
2.05114
2.0395
2.03007
2.02162
2.01541
2.01059
2.00728
2.0047
2.00348
2.00361
2.00521
2.00843
2.01116
2.01427
2.01616
2.01808
2.01866
2.0192
2.0187
2.01805
2.01683
2.01604
2.01445
2.01295
2.01063
2.00829
2.00541
2.00235
1.99885
1.99515
1.99102
1.98682
1.98217
1.97754
1.97251
1.96765
1.96246
1.95739
1.95212
1.94685
1.94157
1.93608
1.93089
1.92521
1.92012
1.91437
1.90932
1.9037
1.89859
1.89325
1.88807
1.88305
1.87791
1.87321
1.86828
1.86396
1.85949
1.85573
1.85213
1.8491
1.84654
1.84469
1.84411
1.84429
1.84534
1.84722
1.84983
1.85527
1.86154
1.87016
1.87815
1.88602
1.89292
1.89519
2.4118
2.42391
2.43029
2.42773
2.41443
2.39369
2.37226
2.35323
2.33617
2.32094
2.30618
2.29195
2.27792
2.26377
2.249
2.23312
2.21646
2.19887
2.18144
2.16362
2.14657
2.12923
2.11272
2.09597
2.08036
2.0649
2.05108
2.03763
2.02623
2.01523
2.00682
1.99863
1.99361
1.9883
1.9854
1.98275
1.98215
1.98238
1.98461
1.98694
1.99002
1.9921
1.99412
1.9949
1.99554
1.99496
1.9942
1.99328
1.99222
1.99082
1.98893
1.98677
1.98431
1.98149
1.97838
1.97487
1.97113
1.96711
1.96278
1.9584
1.95367
1.9491
1.94403
1.93935
1.93399
1.92919
1.92363
1.91872
1.91318
1.90813
1.90279
1.8976
1.89252
1.8873
1.88247
1.87732
1.87273
1.86779
1.86339
1.85887
1.85467
1.8508
1.84705
1.84415
1.84118
1.83928
1.83765
1.83767
1.83823
1.83966
1.84159
1.84556
1.85092
1.85888
1.86684
1.87554
1.88295
1.88909
1.89415
1.89521
2.43965
2.44661
2.4435
2.4291
2.40602
2.38445
2.36461
2.34821
2.33359
2.32016
2.30703
2.29337
2.28
2.26564
2.25105
2.23514
2.21895
2.20183
2.1848
2.16739
2.15017
2.13275
2.11546
2.09847
2.08175
2.06593
2.05048
2.03631
2.02282
2.01049
1.99942
1.98938
1.98125
1.97422
1.96901
1.96414
1.96173
1.95988
1.95989
1.96073
1.96273
1.96593
1.96782
1.97024
1.97108
1.97193
1.97155
1.97081
1.97015
1.96921
1.9679
1.96601
1.96394
1.96134
1.95868
1.95537
1.95211
1.94815
1.94435
1.93987
1.93567
1.93089
1.92635
1.92143
1.91657
1.91161
1.90647
1.90153
1.89627
1.89139
1.88616
1.88137
1.87627
1.87156
1.86671
1.86208
1.85759
1.85308
1.84908
1.84491
1.8415
1.83806
1.83544
1.83314
1.8313
1.8306
1.83078
1.83199
1.83342
1.83639
1.84075
1.84778
1.85541
1.8642
1.87232
1.87975
1.88563
1.88951
1.89274
1.89259
2.46971
2.4637
2.44583
2.42102
2.39739
2.3775
2.36086
2.34607
2.33265
2.31928
2.30629
2.29277
2.27923
2.26509
2.2505
2.23502
2.21905
2.20235
2.18556
2.16832
2.15115
2.13376
2.11643
2.0994
2.0824
2.06622
2.05004
2.03513
2.02014
2.00698
1.99382
1.9826
1.97184
1.96312
1.95549
1.94958
1.94412
1.94082
1.93875
1.93812
1.93833
1.93991
1.94237
1.94488
1.94728
1.94856
1.94994
1.9498
1.94939
1.94896
1.94806
1.94691
1.94486
1.94278
1.94006
1.93724
1.93397
1.93038
1.9267
1.92252
1.91857
1.91392
1.90971
1.90476
1.90027
1.89518
1.89042
1.88534
1.88039
1.87541
1.87043
1.86561
1.86072
1.85615
1.85148
1.84721
1.84297
1.83902
1.83548
1.83196
1.82937
1.82673
1.82522
1.82359
1.82363
1.82415
1.82547
1.82777
1.83129
1.83686
1.8445
1.85246
1.86135
1.86919
1.87639
1.88154
1.88535
1.88731
1.88883
1.888
2.50004
2.47521
2.44269
2.41521
2.39297
2.37495
2.35976
2.34617
2.33318
2.31992
2.3066
2.29301
2.27914
2.26491
2.25001
2.23461
2.21863
2.20218
2.1855
2.16842
2.1514
2.1341
2.11697
2.09986
2.08291
2.06632
2.04991
2.03421
2.01884
2.00425
1.99028
1.97741
1.96546
1.95484
1.94556
1.93798
1.93139
1.92573
1.92154
1.91934
1.91834
1.91847
1.9192
1.92121
1.92432
1.92652
1.92899
1.92988
1.9308
1.93044
1.9301
1.92946
1.9281
1.92648
1.92387
1.92161
1.91816
1.91523
1.91116
1.90768
1.90329
1.89924
1.89467
1.89011
1.88544
1.88054
1.87579
1.87078
1.86598
1.86106
1.85626
1.8516
1.84691
1.84263
1.83819
1.83441
1.83038
1.82721
1.82391
1.82148
1.81943
1.81791
1.81709
1.81728
1.81835
1.81974
1.8227
1.82704
1.8338
1.84136
1.85014
1.85849
1.86646
1.87285
1.87788
1.88111
1.88294
1.88362
1.88384
1.88233
2.53213
2.48592
2.44768
2.4193
2.3977
2.38003
2.36464
2.35024
2.33649
2.3226
2.30843
2.29411
2.27955
2.26485
2.24964
2.23414
2.21818
2.202
2.18546
2.16871
2.15181
2.13481
2.11776
2.10072
2.08373
2.06698
2.05038
2.03434
2.01857
2.00363
1.98913
1.9756
1.96269
1.95108
1.94012
1.93057
1.92229
1.91556
1.9096
1.90518
1.90264
1.90189
1.90205
1.90247
1.90414
1.90684
1.9092
1.91204
1.9132
1.91464
1.91456
1.91431
1.91382
1.91255
1.911
1.9083
1.90568
1.90247
1.89906
1.89549
1.89143
1.88743
1.88294
1.87853
1.87377
1.86904
1.86414
1.85926
1.85442
1.8495
1.84489
1.84008
1.83575
1.83132
1.82734
1.8236
1.82011
1.8174
1.81473
1.81334
1.81185
1.81178
1.81207
1.81322
1.81569
1.81873
1.82469
1.83154
1.83994
1.84856
1.85705
1.86452
1.87069
1.87519
1.878
1.87949
1.87983
1.87967
1.87937
1.87739
2.5743
2.51323
2.46908
2.43879
2.41604
2.39681
2.37945
2.36282
2.34703
2.33145
2.31563
2.29983
2.28403
2.26827
2.25242
2.23644
2.22034
2.20392
2.18743
2.17061
2.15375
2.13693
2.11991
2.10309
2.08622
2.06959
2.05317
2.03706
2.02127
2.00596
1.99109
1.97695
1.96343
1.95092
1.9392
1.92897
1.91958
1.9119
1.90493
1.8993
1.89438
1.8912
1.88935
1.88932
1.88967
1.8908
1.89316
1.89612
1.89861
1.90096
1.90201
1.90273
1.90249
1.90199
1.901
1.89899
1.89661
1.89354
1.89048
1.88686
1.88325
1.87916
1.87504
1.87056
1.866
1.86129
1.85642
1.85165
1.84667
1.84196
1.83715
1.83254
1.82822
1.8239
1.82034
1.81666
1.81405
1.81152
1.81024
1.80908
1.80921
1.80972
1.81089
1.8135
1.81836
1.82436
1.83211
1.8405
1.84918
1.85722
1.86444
1.86996
1.8741
1.87645
1.87768
1.87766
1.8773
1.87657
1.87598
1.87382
2.61461
2.55441
2.5109
2.47822
2.45163
2.42741
2.40487
2.38371
2.36386
2.34553
2.32816
2.31123
2.29445
2.27771
2.26135
2.24489
2.22869
2.212
2.19533
2.17828
2.16119
2.14416
2.12714
2.11029
2.09354
2.07697
2.06064
2.04455
2.02874
2.01335
1.99841
1.98406
1.9704
1.95746
1.9454
1.93414
1.92388
1.91456
1.90657
1.89935
1.89325
1.88821
1.88506
1.88307
1.88288
1.88314
1.88409
1.88599
1.88885
1.89162
1.89435
1.8958
1.89683
1.89651
1.89592
1.89485
1.89273
1.89001
1.88661
1.88316
1.87922
1.87524
1.87091
1.8664
1.86177
1.85687
1.85207
1.84701
1.84216
1.83726
1.8325
1.82808
1.82366
1.81998
1.81628
1.81362
1.81119
1.80989
1.80912
1.8093
1.80994
1.81149
1.81501
1.82045
1.8273
1.83537
1.8437
1.85222
1.8598
1.86644
1.87153
1.87514
1.87731
1.87822
1.87816
1.87772
1.87697
1.87555
1.8745
1.87224
2.65099
2.59805
2.55857
2.52548
2.49578
2.4683
2.44263
2.41893
2.39656
2.37521
2.35456
2.33471
2.31554
2.29703
2.27909
2.26156
2.24416
2.22688
2.20959
2.19231
2.17493
2.15777
2.14078
2.12394
2.10749
2.09082
2.07471
2.05833
2.04255
2.02683
2.01186
1.99714
1.98339
1.96993
1.95736
1.9454
1.93411
1.92398
1.91442
1.90659
1.89907
1.89321
1.88756
1.88448
1.88182
1.88179
1.8822
1.88353
1.88543
1.88794
1.8909
1.89378
1.89542
1.89659
1.8963
1.8956
1.89424
1.89225
1.8891
1.88555
1.88135
1.87711
1.87251
1.86787
1.86309
1.85813
1.85327
1.84818
1.84336
1.83846
1.83384
1.82949
1.82539
1.82189
1.81879
1.81654
1.81503
1.81424
1.81437
1.81488
1.81687
1.8213
1.82708
1.83428
1.84227
1.85064
1.85858
1.86587
1.8718
1.87626
1.87946
1.88104
1.8818
1.88159
1.88122
1.88035
1.87934
1.87726
1.87612
1.87369
2.68252
2.63997
2.60532
2.5735
2.54388
2.51639
2.49019
2.46499
2.44053
2.41678
2.39364
2.37147
2.34996
2.32986
2.30966
2.29083
2.2713
2.25303
2.23432
2.21654
2.19873
2.18131
2.16412
2.147
2.13008
2.11295
2.0961
2.07943
2.06296
2.04741
2.03174
2.01736
2.00274
1.98929
1.97593
1.96348
1.95188
1.94075
1.93124
1.92183
1.91444
1.90688
1.90112
1.89538
1.89225
1.88946
1.88916
1.88962
1.89072
1.89294