/*--------------------------------*- C++ -*----------------------------------*\
  =========                 |
  \\      /  F ield         | OpenFOAM: The Open Source CFD Toolbox
   \\    /   O peration     | Website:  https://openfoam.org
    \\  /    A nd           | Version:  10
     \\/     M anipulation  |
\*---------------------------------------------------------------------------*/
FoamFile
{
    format      ascii;
    class       volVectorField;
    location    "9";
    object      U;
}
// * * * * * * * * * * * * * * * * * * * * * * * * * * * * * * * * * * * * * //

dimensions      [0 1 -1 0 0 0 0];

internalField   nonuniform List<vector> 
5250
(
(2.99999 -1.96242e-09 0)
(2.99998 1.22316e-07 0)
(2.99995 9.94007e-08 0)
(2.99988 1.14601e-06 0)
(2.9997 8.41299e-07 0)
(2.99928 7.25976e-06 0)
(2.9982 5.5236e-06 0)
(2.9956 4.29124e-05 0)
(2.98898 4.41822e-05 0)
(2.97249 0.000218807 0)
(2.92885 0.000375689 0)
(2.80682 0.00122492 0)
(2.44895 0.00313455 0)
(1.47032 0.00939547 0)
(0.646308 0.0219918 0)
(0.54988 0.0228702 0)
(0.570772 0.0237521 0)
(0.559441 0.0253381 0)
(0.504749 0.027126 0)
(0.418397 0.0292156 0)
(0.337362 0.0317556 0)
(0.268702 0.0346785 0)
(0.198782 0.0377692 0)
(0.119407 0.0414097 0)
(0.0525494 0.0466515 0)
(2.99999 3.04376e-08 0)
(2.99998 2.17301e-07 0)
(2.99995 6.77202e-07 0)
(2.99988 2.22598e-06 0)
(2.99971 4.99594e-06 0)
(2.99928 1.54757e-05 0)
(2.99823 3.08548e-05 0)
(2.99563 9.42277e-05 0)
(2.98913 0.000198884 0)
(2.97276 0.000544663 0)
(2.9297 0.00131627 0)
(2.80907 0.00356888 0)
(2.45575 0.00984404 0)
(1.48534 0.0289393 0)
(0.655772 0.0666187 0)
(0.548676 0.066061 0)
(0.570066 0.0658525 0)
(0.559282 0.0683169 0)
(0.504698 0.0712913 0)
(0.418557 0.0751063 0)
(0.337475 0.0795684 0)
(0.26819 0.0843126 0)
(0.197241 0.0887349 0)
(0.116521 0.0930817 0)
(0.0491657 0.0974865 0)
(2.99999 4.74175e-08 0)
(2.99998 3.71852e-07 0)
(2.99995 1.1285e-06 0)
(2.99989 3.79962e-06 0)
(2.99972 8.31076e-06 0)
(2.9993 2.64706e-05 0)
(2.99826 5.05529e-05 0)
(2.99574 0.000166424 0)
(2.98936 0.000313084 0)
(2.97342 0.000975715 0)
(2.93137 0.00215695 0)
(2.81391 0.00614312 0)
(2.47016 0.0166881 0)
(1.51857 0.0493087 0)
(0.677625 0.114915 0)
(0.547492 0.11178 0)
(0.570721 0.110315 0)
(0.561832 0.114895 0)
(0.508037 0.120541 0)
(0.422815 0.127987 0)
(0.342037 0.136255 0)
(0.272249 0.144877 0)
(0.20029 0.15313 0)
(0.118103 0.160719 0)
(0.048814 0.166525 0)
(3 8.3843e-08 0)
(2.99998 4.64507e-07 0)
(2.99996 1.90183e-06 0)
(2.99989 4.45339e-06 0)
(2.99973 1.41378e-05 0)
(2.99932 3.0795e-05 0)
(2.99834 8.57627e-05 0)
(2.99585 0.000200206 0)
(2.9898 0.000507935 0)
(2.9743 0.00125694 0)
(2.93399 0.00320198 0)
(2.82126 0.00841809 0)
(2.49175 0.0235964 0)
(1.57047 0.0688852 0)
(0.711181 0.164067 0)
(0.545238 0.15683 0)
(0.572527 0.153633 0)
(0.567302 0.160652 0)
(0.514929 0.169243 0)
(0.431289 0.180636 0)
(0.351074 0.19306 0)
(0.281001 0.206096 0)
(0.207965 0.218923 0)
(0.123552 0.230539 0)
(0.0506871 0.238247 0)
(3 1.03366e-07 0)
(2.99998 6.48077e-07 0)
(2.99996 2.28342e-06 0)
(2.9999 6.2029e-06 0)
(2.99974 1.70279e-05 0)
(2.99936 4.16299e-05 0)
(2.9984 0.00010577 0)
(2.99609 0.000262316 0)
(2.99023 0.000643522 0)
(2.97567 0.00163116 0)
(2.93729 0.0040852 0)
(2.83109 0.0108423 0)
(2.52049 0.0302222 0)
(1.64096 0.0879655 0)
(0.756425 0.214946 0)
(0.541201 0.201716 0)
(0.57537 0.196093 0)
(0.575637 0.205525 0)
(0.525165 0.217016 0)
(0.443677 0.23238 0)
(0.364317 0.249219 0)
(0.294133 0.267175 0)
(0.219921 0.285329 0)
(0.132385 0.301992 0)
(0.0544241 0.312562 0)
(3 1.05571e-07 0)
(2.99999 8.92455e-07 0)
(2.99996 2.4181e-06 0)
(2.9999 8.77368e-06 0)
(2.99976 1.8081e-05 0)
(2.99939 5.69022e-05 0)
(2.99853 0.000116594 0)
(2.9963 0.000344709 0)
(2.99094 0.000738743 0)
(2.97717 0.0020702 0)
(2.94164 0.00485686 0)
(2.84317 0.0133378 0)
(2.55615 0.0365278 0)
(1.73186 0.106416 0)
(0.814219 0.26789 0)
(0.535941 0.247144 0)
(0.580161 0.238254 0)
(0.587736 0.249974 0)
(0.539499 0.264313 0)
(0.460747 0.283823 0)
(0.382637 0.305644 0)
(0.312651 0.329523 0)
(0.237295 0.354503 0)
(0.145786 0.378397 0)
(0.0606536 0.394196 0)
(3 1.69703e-07 0)
(2.99999 8.34667e-07 0)
(2.99996 3.49501e-06 0)
(2.99991 8.23394e-06 0)
(2.99978 2.58065e-05 0)
(2.99944 5.50681e-05 0)
(2.99864 0.000162591 0)
(2.99661 0.000343011 0)
(2.99167 0.000988652 0)
(2.97909 0.00218969 0)
(2.94672 0.00600988 0)
(2.8574 0.0151062 0)
(2.59877 0.0427087 0)
(1.84363 0.123084 0)
(0.886896 0.3212 0)
(0.532241 0.292551 0)
(0.588847 0.280128 0)
(0.605107 0.2939 0)
(0.559183 0.310966 0)
(0.483743 0.334861 0)
(0.407414 0.36238 0)
(0.338187 0.393483 0)
(0.262159 0.427425 0)
(0.166225 0.462129 0)
(0.0711185 0.48811 0)
(3 1.80246e-07 0)
(2.99999 9.23383e-07 0)
(2.99997 3.78552e-06 0)
(2.99992 9.04527e-06 0)
(2.9998 2.80477e-05 0)
(2.99951 6.13998e-05 0)
(2.99877 0.000176017 0)
(2.99699 0.000388145 0)
(2.99248 0.0010712 0)
(2.98136 0.00246655 0)
(2.9524 0.00659104 0)
(2.87381 0.0167278 0)
(2.64687 0.0469697 0)
(1.97722 0.135483 0)
(0.977054 0.367979 0)
(0.536443 0.338363 0)
(0.605487 0.32353 0)
(0.630355 0.3377 0)
(0.586363 0.356787 0)
(0.514671 0.385228 0)
(0.440682 0.419256 0)
(0.373061 0.459114 0)
(0.297733 0.504662 0)
(0.198361 0.555621 0)
(0.0895566 0.602419 0)
(3 1.474e-07 0)
(2.99999 1.10439e-06 0)
(2.99997 3.31071e-06 0)
(2.99993 1.07582e-05 0)
(2.99982 2.49939e-05 0)
(2.99957 7.07998e-05 0)
(2.99892 0.000162166 0)
(2.99736 0.00043751 0)
(2.99341 0.00102811 0)
(2.9837 0.00268997 0)
(2.95859 0.00659659 0)
(2.89121 0.0175711 0)
(2.69844 0.0480629 0)
(2.12714 0.140017 0)
(1.09017 0.398563 0)
(0.563045 0.385629 0)
(0.6352 0.373556 0)
(0.665829 0.383449 0)
(0.623788 0.403551 0)
(0.556232 0.435232 0)
(0.485143 0.476395 0)
(0.420256 0.525443 0)
(0.348709 0.585037 0)
(0.251392 0.661555 0)
(0.124302 0.751534 0)
(3 1.42033e-07 0)
(2.99999 9.82063e-07 0)
(2.99998 3.16421e-06 0)
(2.99994 9.55511e-06 0)
(2.99985 2.34819e-05 0)
(2.99962 6.3537e-05 0)
(2.99907 0.000148425 0)
(2.99771 0.00039489 0)
(2.99436 0.000917601 0)
(2.98599 0.00242755 0)
(2.96484 0.00581116 0)
(2.90837 0.0154459 0)
(2.75017 0.0414386 0)
(2.28596 0.119391 0)
(1.23992 0.353416 0)
(0.632899 0.41254 0)
(0.685157 0.426458 0)
(0.713326 0.42912 0)
(0.673792 0.451681 0)
(0.610544 0.485082 0)
(0.543001 0.532743 0)
(0.482421 0.590315 0)
(0.422511 0.668438 0)
(0.342534 0.787184 0)
(0.191733 0.994027 0)
(3 1.39346e-07 0)
(2.99999 7.85263e-07 0)
(2.99998 2.92623e-06 0)
(2.99995 7.71852e-06 0)
(2.99987 2.15141e-05 0)
(2.99967 5.14543e-05 0)
(2.99919 0.000134401 0)
(2.998 0.000315281 0)
(2.9951 0.000813933 0)
(2.98778 0.00192501 0)
(2.96944 0.00494914 0)
(2.92094 0.0122604 0)
(2.7849 0.0330286 0)
(2.38751 0.0917572 0)
(1.37694 0.273096 0)
(0.688264 0.448897 0)
(0.709349 0.481792 0)
(0.739612 0.480165 0)
(0.718856 0.501251 0)
(0.667371 0.534363 0)
(0.609704 0.584627 0)
(0.561322 0.649918 0)
(0.53068 0.743523 0)
(0.529039 0.888888 0)
(0.564103 1.13074 0)
(3 1.13428e-07 0)
(2.99999 7.78586e-07 0)
(2.99998 2.47373e-06 0)
(2.99995 7.60217e-06 0)
(2.99988 1.84918e-05 0)
(2.99972 4.92158e-05 0)
(2.99929 0.000117874 0)
(2.99828 0.000296674 0)
(2.9957 0.000727707 0)
(2.98944 0.00178034 0)
(2.97344 0.00446928 0)
(2.93172 0.0112338 0)
(2.81566 0.0296382 0)
(2.47646 0.0825979 0)
(1.5546 0.242344 0)
(0.784883 0.502679 0)
(0.718721 0.52773 0)
(0.749786 0.527737 0)
(0.750509 0.545268 0)
(0.717478 0.579147 0)
(0.677775 0.629338 0)
(0.648848 0.699085 0)
(0.649081 0.79747 0)
(0.701679 0.935145 0)
(0.827566 1.11323 0)
(3 1.10676e-07 0)
(2.99999 7.12458e-07 0)
(2.99998 2.4664e-06 0)
(2.99996 6.91941e-06 0)
(2.9999 1.81773e-05 0)
(2.99975 4.61372e-05 0)
(2.9994 0.00011231 0)
(2.99851 0.000288307 0)
(2.99634 0.000675158 0)
(2.9909 0.00177331 0)
(2.97733 0.00417257 0)
(2.94183 0.0109329 0)
(2.84432 0.028161 0)
(2.56084 0.0787514 0)
(1.75479 0.228362 0)
(0.911943 0.543899 0)
(0.728502 0.556569 0)
(0.759578 0.560594 0)
(0.777324 0.577326 0)
(0.762918 0.614417 0)
(0.7423 0.665535 0)
(0.735328 0.734447 0)
(0.758045 0.825464 0)
(0.830097 0.936827 0)
(0.96923 1.0461 0)
(3 1.16076e-07 0)
(3 6.46497e-07 0)
(2.99999 2.45194e-06 0)
(2.99997 6.32106e-06 0)
(2.99992 1.81919e-05 0)
(2.99979 4.24152e-05 0)
(2.99949 0.000114192 0)
(2.99875 0.000265034 0)
(2.99694 0.000694718 0)
(2.99236 0.00164278 0)
(2.98106 0.00424817 0)
(2.95176 0.0104131 0)
(2.87193 0.02774 0)
(2.64278 0.0759291 0)
(1.97097 0.220578 0)
(1.0658 0.576476 0)
(0.750434 0.585721 0)
(0.777604 0.58988 0)
(0.806641 0.602204 0)
(0.808561 0.640196 0)
(0.80301 0.692098 0)
(0.812124 0.756353 0)
(0.848623 0.832995 0)
(0.924409 0.917991 0)
(1.05473 0.988962 0)
(3 9.77177e-08 0)
(3 6.42184e-07 0)
(2.99999 2.11547e-06 0)
(2.99997 6.30911e-06 0)
(2.99993 1.58914e-05 0)
(2.99983 4.16382e-05 0)
(2.99958 0.000102155 0)
(2.99899 0.000255108 0)
(2.99748 0.000637271 0)
(2.99386 0.0015533 0)
(2.98463 0.00396472 0)
(2.96144 0.00980515 0)
(2.8989 0.0257334 0)
(2.72206 0.070279 0)
(2.20109 0.203193 0)
(1.2585 0.571525 0)
(0.810637 0.61696 0)
(0.815143 0.625145 0)
(0.844628 0.629762 0)
(0.858736 0.662001 0)
(0.862056 0.710446 0)
(0.87945 0.767821 0)
(0.922309 0.831065 0)
(0.996624 0.895889 0)
(1.11359 0.946972 0)
(3 7.95752e-08 0)
(3 5.55314e-07 0)
(2.99999 1.78745e-06 0)
(2.99998 5.42088e-06 0)
(2.99995 1.33083e-05 0)
(2.99987 3.60545e-05 0)
(2.99967 8.3749e-05 0)
(2.99919 0.000222834 0)
(2.99802 0.000512223 0)
(2.99513 0.00135517 0)
(2.98795 0.00316123 0)
(2.96988 0.00828567 0)
(2.92251 0.0205361 0)
(2.79094 0.0560504 0)
(2.41022 0.158307 0)
(1.49313 0.470569 0)
(0.912056 0.633417 0)
(0.869285 0.658736 0)
(0.889385 0.666394 0)
(0.911582 0.686232 0)
(0.920315 0.725642 0)
(0.940493 0.774369 0)
(0.984273 0.826284 0)
(1.05461 0.876565 0)
(1.15783 0.915264 0)
(3 7.34409e-08 0)
(3 4.28109e-07 0)
(2.99999 1.57848e-06 0)
(2.99998 4.15494e-06 0)
(2.99996 1.16458e-05 0)
(2.99989 2.75181e-05 0)
(2.99974 7.24159e-05 0)
(2.99935 0.000170159 0)
(2.99843 0.000433373 0)
(2.99607 0.00103924 0)
(2.99041 0.00259634 0)
(2.97591 0.00635424 0)
(2.93862 0.0161101 0)
(2.83578 0.0419271 0)
(2.53932 0.116154 0)
(1.72973 0.344489 0)
(1.02302 0.660813 0)
(0.906908 0.692254 0)
(0.922362 0.705184 0)
(0.95166 0.712833 0)
(0.971312 0.740907 0)
(0.994838 0.780177 0)
(1.03748 0.822125 0)
(1.10266 0.861242 0)
(1.19325 0.890703 0)
(3 6.16779e-08 0)
(3 3.65956e-07 0)
(2.99999 1.31853e-06 0)
(2.99999 3.57594e-06 0)
(2.99997 9.7541e-06 0)
(2.99992 2.36735e-05 0)
(2.99979 6.12692e-05 0)
(2.99949 0.000145332 0)
(2.99874 0.000373018 0)
(2.99693 0.000884949 0)
(2.99237 0.00225584 0)
(2.98114 0.0054701 0)
(2.952 0.0139257 0)
(2.87333 0.0359762 0)
(2.6478 0.0990849 0)
(1.99585 0.288108 0)
(1.18772 0.691273 0)
(0.941721 0.724535 0)
(0.948474 0.736056 0)
(0.98123 0.736938 0)
(1.01326 0.753927 0)
(1.04192 0.784931 0)
(1.08334 0.81888 0)
(1.14316 0.849401 0)
(1.22282 0.871533 0)
(3 4.92103e-08 0)
(3 3.18799e-07 0)
(3 1.07449e-06 0)
(2.99999 3.11913e-06 0)
(2.99997 8.00461e-06 0)
(2.99994 2.0621e-05 0)
(2.99984 5.04251e-05 0)
(2.99961 0.000126959 0)
(2.99904 0.000309229 0)
(2.99764 0.000772453 0)
(2.99423 0.00189168 0)
(2.98563 0.0047405 0)
(2.96402 0.0118082 0)
(2.90652 0.0305873 0)
(2.74502 0.0830879 0)
(2.2726 0.2391 0)
(1.41497 0.654147 0)
(1.01593 0.743381 0)
(0.990173 0.757031 0)
(1.01336 0.759129 0)
(1.05169 0.766733 0)
(1.08541 0.789558 0)
(1.12476 0.816437 0)
(1.1786 0.84008 0)
(1.24854 0.856191 0)
(3 4.06936e-08 0)
(3 2.53999e-07 0)
(3 8.72168e-07 0)
(2.99999 2.47807e-06 0)
(2.99998 6.48145e-06 0)
(2.99995 1.62515e-05 0)
(2.99988 4.09423e-05 0)
(2.99971 9.89888e-05 0)
(2.99928 0.000249574 0)
(2.99825 0.000596796 0)
(2.99568 0.00151591 0)
(2.9894 0.00362532 0)
(2.97355 0.00925486 0)
(2.9326 0.0230614 0)
(2.82015 0.0618341 0)
(2.49707 0.1734 0)
(1.69014 0.511209 0)
(1.12796 0.748074 0)
(1.04278 0.774834 0)
(1.05239 0.784437 0)
(1.08882 0.784646 0)
(1.12585 0.797496 0)
(1.16299 0.816374 0)
(1.21064 0.833452 0)
(1.27173 0.844135 0)
(3 3.03955e-08 0)
(3 1.98945e-07 0)
(3 6.65326e-07 0)
(2.99999 1.93545e-06 0)
(2.99998 4.92149e-06 0)
(2.99996 1.27608e-05 0)
(2.99991 3.08089e-05 0)
(2.99978 7.80274e-05 0)
(2.99946 0.000186162 0)
(2.99869 0.000469907 0)
(2.99675 0.00112221 0)
(2.99208 0.00283093 0)
(2.98021 0.00684713 0)
(2.95011 0.0174001 0)
(2.86828 0.0447441 0)
(2.63595 0.12278 0)
(1.98025 0.362307 0)
(1.27603 0.75598 0)
(1.08544 0.799044 0)
(1.08379 0.811153 0)
(1.11669 0.807176 0)
(1.15896 0.807494 0)
(1.19645 0.817838 0)
(1.23932 0.828684 0)
(1.29271 0.834899 0)
(3 2.35134e-08 0)
(3 1.57215e-07 0)
(3 5.18092e-07 0)
(3 1.53323e-06 0)
(2.99999 3.84354e-06 0)
(2.99997 1.01196e-05 0)
(2.99993 2.41383e-05 0)
(2.99984 6.19657e-05 0)
(2.99961 0.000146999 0)
(2.99903 0.000373122 0)
(2.99765 0.00089352 0)
(2.99417 0.00225014 0)
(2.98569 0.00549118 0)
(2.96405 0.0138352 0)
(2.90679 0.0354099 0)
(2.74743 0.0958269 0)
(2.28001 0.276695 0)
(1.49917 0.713258 0)
(1.15565 0.815165 0)
(1.1236 0.829144 0)
(1.14328 0.828296 0)
(1.18539 0.820079 0)
(1.22602 0.821046 0)
(1.26586 0.825445 0)
(1.31225 0.827328 0)
(3 1.83543e-08 0)
(3 1.19897e-07 0)
(3 4.0042e-07 0)
(3 1.16993e-06 0)
(2.99999 2.96879e-06 0)
(2.99998 7.68143e-06 0)
(2.99995 1.8604e-05 0)
(2.99988 4.67629e-05 0)
(2.99972 0.000113103 0)
(2.99931 0.000279815 0)
(2.99832 0.000683839 0)
(2.99591 0.00167654 0)
(2.98987 0.00415104 0)
(2.97498 0.010272 0)
(2.9364 0.0259544 0)
(2.83152 0.0688729 0)
(2.53104 0.193147 0)
(1.79043 0.55708 0)
(1.27111 0.812526 0)
(1.1744 0.839787 0)
(1.17713 0.847384 0)
(1.21084 0.837142 0)
(1.25184 0.828609 0)
(1.29009 0.82563 0)
(1.32991 0.821037 0)
(3 1.43035e-08 0)
(3 8.6255e-08 0)
(3 3.07725e-07 0)
(3 8.39363e-07 0)
(2.99999 2.26933e-06 0)
(2.99999 5.53615e-06 0)
(2.99997 1.41044e-05 0)
(2.99992 3.38832e-05 0)
(2.9998 8.45698e-05 0)
(2.99951 0.000203897 0)
(2.99881 0.000504224 0)
(2.99706 0.00122788 0)
(2.99285 0.00301676 0)
(2.98219 0.00744594 0)
(2.95542 0.0185794 0)
(2.88333 0.0478659 0)
(2.68071 0.130398 0)
(2.10519 0.3829 0)
(1.43256 0.80666 0)
(1.2206 0.860575 0)
(1.20794 0.865867 0)
(1.23062 0.855485 0)
(1.27106 0.839095 0)
(1.30912 0.827842 0)
(1.34283 0.814091 0)
(3 1.04575e-08 0)
(3 6.31715e-08 0)
(3 2.22922e-07 0)
(3 6.14708e-07 0)
(3 1.64725e-06 0)
(2.99999 4.02828e-06 0)
(2.99998 1.03472e-05 0)
(2.99994 2.44607e-05 0)
(2.99986 6.25371e-05 0)
(2.99966 0.000146788 0)
(2.99917 0.000373987 0)
(2.998 0.000882425 0)
(2.99505 0.0022383 0)
(2.98795 0.00536366 0)
(2.96991 0.0136076 0)
(2.92336 0.0341496 0)
(2.79601 0.0918803 0)
(2.42631 0.263017 0)
(1.69557 0.690902 0)
(1.31012 0.852701 0)
(1.25182 0.869592 0)
(1.25796 0.867683 0)
(1.28994 0.847907 0)
(1.32443 0.826625 0)
(1.35057 0.802574 0)
(3 7.03316e-09 0)
(3 4.59879e-08 0)
(3 1.53843e-07 0)
(3 4.46242e-07 0)
(3 1.13598e-06 0)
(2.99999 2.91796e-06 0)
(2.99998 7.07596e-06 0)
(2.99996 1.77094e-05 0)
(2.9999 4.25406e-05 0)
(2.99977 0.000105676 0)
(2.99943 0.000253212 0)
(2.99861 0.000628875 0)
(2.99658 0.00151279 0)
(2.99166 0.0037517 0)
(2.97935 0.00916209 0)
(2.94808 0.0229645 0)
(2.86392 0.0595557 0)
(2.62629 0.163502 0)
(1.99639 0.473964 0)
(1.43308 0.827532 0)
(1.29261 0.872827 0)
(1.2827 0.874289 0)
(1.30185 0.855653 0)
(1.33125 0.823741 0)
(1.35089 0.785781 0)
(3 4.94948e-09 0)
(3 3.30026e-08 0)
(3 1.08706e-07 0)
(3 3.2077e-07 0)
(3 8.03583e-07 0)
(3 2.09801e-06 0)
(2.99999 5.00741e-06 0)
(2.99997 1.26783e-05 0)
(2.99993 3.0179e-05 0)
(2.99984 7.53508e-05 0)
(2.99961 0.000180967 0)
(2.99905 0.000445846 0)
(2.99765 0.00108514 0)
(2.99432 0.00265365 0)
(2.9859 0.00655471 0)
(2.96505 0.016168 0)
(2.90982 0.0413963 0)
(2.75773 0.110706 0)
(2.31811 0.320188 0)
(1.64047 0.759719 0)
(1.34734 0.873179 0)
(1.30657 0.877229 0)
(1.31103 0.857367 0)
(1.3278 0.818173 0)
(1.34065 0.766026 0)
(3 3.55255e-09 0)
(3 2.2353e-08 0)
(3 7.74211e-08 0)
(3 2.17084e-07 0)
(3 5.70656e-07 0)
(3 1.42868e-06 0)
(2.99999 3.52917e-06 0)
(2.99998 8.70431e-06 0)
(2.99996 2.10599e-05 0)
(2.99989 5.21347e-05 0)
(2.99973 0.000125267 0)
(2.99936 0.000310278 0)
(2.99842 0.000745983 0)
(2.99621 0.00185274 0)
(2.99061 0.00447953 0)
(2.97701 0.01121 0)
(2.94183 0.0278853 0)
(2.84763 0.073504 0)
(2.57902 0.205224 0)
(1.92912 0.573541 0)
(1.44915 0.852045 0)
(1.33293 0.876957 0)
(1.31618 0.847965 0)
(1.31843 0.79897 0)
(1.32013 0.733587 0)
(3 2.43873e-09 0)
(3 1.53161e-08 0)
(3 5.30273e-08 0)
(3 1.48607e-07 0)
(3 3.90065e-07 0)
(3 9.75261e-07 0)
(2.99999 2.40956e-06 0)
(2.99999 5.94253e-06 0)
(2.99997 1.43398e-05 0)
(2.99993 3.55048e-05 0)
(2.99982 8.47065e-05 0)
(2.99957 0.000211637 0)
(2.99894 0.000500209 0)
(2.99743 0.00125817 0)
(2.99369 0.00298345 0)
(2.98452 0.00751661 0)
(2.96132 0.0183326 0)
(2.9004 0.0472424 0)
(2.73099 0.126875 0)
(2.2525 0.368424 0)
(1.61726 0.793876 0)
(1.35443 0.871978 0)
(1.30399 0.832318 0)
(1.29432 0.763607 0)
(1.28816 0.68268 0)
(3 1.62388e-09 0)
(3 1.04519e-08 0)
(3 3.54439e-08 0)
(3 1.01426e-07 0)
(3 2.59886e-07 0)
(3 6.64041e-07 0)
(3 1.60418e-06 0)
(2.99999 4.01879e-06 0)
(2.99998 9.56021e-06 0)
(2.99995 2.38639e-05 0)
(2.99988 5.65578e-05 0)
(2.99971 0.000141175 0)
(2.9993 0.000333841 0)
(2.99828 0.000835086 0)
(2.99582 0.00198456 0)
(2.98978 0.0049643 0)
(2.97479 0.0120142 0)
(2.93624 0.0305863 0)
(2.83307 0.0797755 0)
(2.53732 0.226486 0)
(1.87671 0.60687 0)
(1.41057 0.830015 0)
(1.28064 0.799979 0)
(1.25422 0.711126 0)
(1.25003 0.621405 0)
(3 1.11189e-09 0)
(3 6.53349e-09 0)
(3 2.36509e-08 0)
(3 6.33362e-08 0)
(3 1.73065e-07 0)
(3 4.13669e-07 0)
(3 1.06791e-06 0)
(2.99999 2.49072e-06 0)
(2.99999 6.32419e-06 0)
(2.99997 1.47795e-05 0)
(2.99992 3.70788e-05 0)
(2.9998 8.74175e-05 0)
(2.99952 0.000216291 0)
(2.9988 0.00051799 0)
(2.99713 0.00126439 0)
(2.99287 0.00307781 0)
(2.98261 0.00749225 0)
(2.95623 0.0185932 0)
(2.88657 0.0474524 0)
(2.69243 0.128139 0)
(2.1587 0.371378 0)
(1.496 0.754168 0)
(1.22676 0.7604 0)
(1.1866 0.65295 0)
(1.20265 0.563116 0)
(3 6.59024e-10 0)
(3 4.31495e-09 0)
(3 1.42717e-08 0)
(3 4.17686e-08 0)
(3 1.05009e-07 0)
(3 2.69657e-07 0)
(3 6.5045e-07 0)
(3 1.60058e-06 0)
(2.99999 3.88382e-06 0)
(2.99998 9.30684e-06 0)
(2.99994 2.29744e-05 0)
(2.99986 5.38414e-05 0)
(2.99966 0.000135295 0)
(2.99916 0.000311902 0)
(2.99796 0.000793749 0)
(2.99496 0.0018203 0)
(2.98769 0.00465666 0)
(2.96933 0.0109769 0)
(2.92167 0.0282857 0)
(2.7921 0.0737025 0)
(2.42345 0.211579 0)
(1.6586 0.553389 0)
(1.17417 0.660205 0)
(1.09429 0.57395 0)
(1.13911 0.500809 0)
(3 3.98204e-10 0)
(3 2.62816e-09 0)
(3 8.64209e-09 0)
(3 2.54105e-08 0)
(3 6.31828e-08 0)
(3 1.63297e-07 0)
(3 3.87396e-07 0)
(3 9.61666e-07 0)
(2.99999 2.28993e-06 0)
(2.99998 5.54943e-06 0)
(2.99996 1.33505e-05 0)
(2.99989 3.17286e-05 0)
(2.99973 7.76183e-05 0)
(2.99935 0.000180693 0)
(2.99839 0.000447332 0)
(2.99608 0.00103031 0)
(2.99024 0.0025707 0)
(2.97581 0.00598956 0)
(2.938 0.0150117 0)
(2.83483 0.0376464 0)
(2.53998 0.101553 0)
(1.77855 0.291982 0)
(1.09346 0.51469 0)
(0.957666 0.470368 0)
(1.04176 0.426749 0)
(3 2.45636e-10 0)
(3 1.50392e-09 0)
(3 5.35404e-09 0)
(3 1.45019e-08 0)
(3 3.89555e-08 0)
(3 9.45501e-08 0)
(3 2.35551e-07 0)
(3 5.70895e-07 0)
(2.99999 1.3631e-06 0)
(2.99999 3.37717e-06 0)
(2.99996 7.79375e-06 0)
(2.99991 1.97894e-05 0)
(2.99978 4.47022e-05 0)
(2.99947 0.0001149 0)
(2.99866 0.000255569 0)
(2.99673 0.000665511 0)
(2.99182 0.001478 0)
(2.97965 0.00382372 0)
(2.94773 0.00891153 0)
(2.86045 0.0231354 0)
(2.60732 0.060852 0)
(1.89283 0.172306 0)
(1.02613 0.399157 0)
(0.785112 0.367798 0)
(0.920907 0.353376 0)
(3 1.32103e-10 0)
(3 9.30229e-10 0)
(3 2.99338e-09 0)
(3 8.96677e-09 0)
(3 2.19802e-08 0)
(3 5.86992e-08 0)
(3 1.3272e-07 0)
(3 3.56236e-07 0)
(2.99999 7.73049e-07 0)
(2.99999 2.10125e-06 0)
(2.99997 4.50659e-06 0)
(2.99992 1.22845e-05 0)
(2.99981 2.64359e-05 0)
(2.99953 7.1175e-05 0)
(2.99885 0.000156685 0)
(2.9971 0.000410154 0)
(2.99287 0.000934616 0)
(2.98198 0.00238077 0)
(2.95396 0.00568103 0)
(2.87702 0.0147064 0)
(2.65213 0.0391207 0)
(1.99055 0.110254 0)
(0.986294 0.292347 0)
(0.613198 0.270526 0)
(0.805021 0.289108 0)
(3 7.70687e-11 0)
(3 5.85612e-10 0)
(3 1.70289e-09 0)
(3 5.6463e-09 0)
(3 1.26833e-08 0)
(3 3.57179e-08 0)
(3 8.02574e-08 0)
(3 2.08417e-07 0)
(3 4.89225e-07 0)
(2.99999 1.19152e-06 0)
(2.99997 2.99257e-06 0)
(2.99993 6.78383e-06 0)
(2.99983 1.82466e-05 0)
(2.99957 3.90081e-05 0)
(2.99895 0.000111938 0)
(2.99738 0.000227612 0)
(2.99346 0.000675978 0)
(2.98358 0.00141964 0)
(2.95798 0.00398518 0)
(2.88776 0.00965291 0)
(2.68284 0.0269289 0)
(2.06391 0.0766572 0)
(0.973587 0.21782 0)
(0.483374 0.203813 0)
(0.718435 0.244113 0)
(3 5.78953e-11 0)
(3 3.26325e-10 0)
(3 1.23447e-09 0)
(3 3.17471e-09 0)
(3 8.87113e-09 0)
(3 2.09361e-08 0)
(3 5.41005e-08 0)
(3 1.28251e-07 0)
(3 3.18083e-07 0)
(2.99999 7.71516e-07 0)
(2.99997 1.86851e-06 0)
(2.99994 4.63331e-06 0)
(2.99984 1.10842e-05 0)
(2.99961 2.77993e-05 0)
(2.999 6.69752e-05 0)
(2.99757 0.000171346 0)
(2.99386 0.000413049 0)
(2.98474 0.00107305 0)
(2.96082 0.00265883 0)
(2.89598 0.00716183 0)
(2.70694 0.0197837 0)
(2.13257 0.0594838 0)
(0.995293 0.178057 0)
(0.418664 0.170405 0)
(0.666572 0.209657 0)
(3 3.69346e-11 0)
(3 2.25389e-10 0)
(3 8.4549e-10 0)
(3 2.209e-09 0)
(3 6.10316e-09 0)
(3 1.52742e-08 0)
(3 3.54429e-08 0)
(3 9.82362e-08 0)
(3 2.0098e-07 0)
(2.99999 6.16295e-07 0)
(2.99998 1.1313e-06 0)
(2.99994 3.82996e-06 0)
(2.99985 6.58105e-06 0)
(2.99962 2.33412e-05 0)
(2.99907 4.00499e-05 0)
(2.99767 0.000141436 0)
(2.99421 0.00025736 0)
(2.98546 0.000846785 0)
(2.96306 0.00179761 0)
(2.90213 0.00536563 0)
(2.72678 0.0143582 0)
(2.1964 0.0446358 0)
(1.03764 0.138293 0)
(0.406066 0.154427 0)
(0.644948 0.184251 0)
(3 3.45407e-11 0)
(3 1.55664e-10 0)
(3 6.43173e-10 0)
(3 1.51856e-09 0)
(3 4.82022e-09 0)
(3 9.25721e-09 0)
(3 3.20051e-08 0)
(3 5.13436e-08 0)
(3 2.00978e-07 0)
(2.99999 2.97545e-07 0)
(2.99998 1.22192e-06 0)
(2.99994 1.82215e-06 0)
(2.99985 7.32511e-06 0)
(2.99963 1.17948e-05 0)
(2.9991 4.2659e-05 0)
(2.99775 7.80444e-05 0)
(2.99445 0.000251201 0)
(2.98602 0.000527936 0)
(2.96461 0.00154369 0)
(2.90653 0.0037499 0)
(2.74029 0.0109123 0)
(2.24062 0.0323016 0)
(1.08354 0.100202 0)
(0.418466 0.146451 0)
(0.639038 0.168154 0)
(3 2.04938e-11 0)
(3 1.58173e-10 0)
(3 4.31337e-10 0)
(3 1.50555e-09 0)
(3 3.2434e-09 0)
(3 9.07105e-09 0)
(3 2.1912e-08 0)
(3 5.10083e-08 0)
(3 1.41258e-07 0)
(2.99999 2.78772e-07 0)
(2.99998 9.15392e-07 0)
(2.99994 1.58051e-06 0)
(2.99986 5.78923e-06 0)
(2.99965 9.06261e-06 0)
(2.99912 3.66497e-05 0)
(2.99784 5.50798e-05 0)
(2.99458 0.000228307 0)
(2.98654 0.000377874 0)
(2.96573 0.00134141 0)
(2.91007 0.0029457 0)
(2.75066 0.00891058 0)
(2.2738 0.02581 0)
(1.13282 0.0794923 0)
(0.444976 0.136485 0)
(0.639401 0.155195 0)
(3 1.78818e-11 0)
(3 1.01561e-10 0)
(3 4.27988e-10 0)
(3 9.60453e-10 0)
(3 3.01768e-09 0)
(3 6.95082e-09 0)
(3 1.69511e-08 0)
(3 4.67529e-08 0)
(3 9.13292e-08 0)
(2.99999 3.06492e-07 0)
(2.99998 5.00147e-07 0)
(2.99994 1.96568e-06 0)
(2.99986 2.7915e-06 0)
(2.99966 1.26225e-05 0)
(2.99914 1.6932e-05 0)
(2.99791 7.89562e-05 0)
(2.99472 0.000114222 0)
(2.98695 0.000473153 0)
(2.96675 0.00086421 0)
(2.91288 0.00282162 0)
(2.75962 0.00718796 0)
(2.30121 0.0219058 0)
(1.17897 0.0672352 0)
(0.476343 0.123276 0)
(0.64282 0.143622 0)
(3 1.29251e-11 0)
(3 8.52884e-11 0)
(3 2.86504e-10 0)
(3 8.30793e-10 0)
(3 2.12717e-09 0)
(3 5.43662e-09 0)
(3 1.32e-08 0)
(3 3.278e-08 0)
(3 7.92295e-08 0)
(2.99999 1.99409e-07 0)
(2.99998 4.78391e-07 0)
(2.99994 1.22467e-06 0)
(2.99987 2.94626e-06 0)
(2.99966 7.86326e-06 0)
(2.99918 1.86727e-05 0)
(2.99792 5.02924e-05 0)
(2.99491 0.000121587 0)
(2.98717 0.000328855 0)
(2.9677 0.000820817 0)
(2.91538 0.00223958 0)
(2.7668 0.0062299 0)
(2.32575 0.0185933 0)
(1.22134 0.057664 0)
(0.509795 0.110347 0)
(0.645745 0.131372 0)
(3 9.44999e-12 0)
(3 8.1056e-11 0)
(3 2.29789e-10 0)
(3 7.80142e-10 0)
(3 1.7951e-09 0)
(3 5.0361e-09 0)
(3 1.10401e-08 0)
(3 3.09e-08 0)
(3 6.51358e-08 0)
(2.99999 1.83541e-07 0)
(2.99998 4.02037e-07 0)
(2.99995 1.13035e-06 0)
(2.99987 2.51101e-06 0)
(2.99967 6.78816e-06 0)
(2.99918 1.71348e-05 0)
(2.998 4.1853e-05 0)
(2.99495 0.000110907 0)
(2.98753 0.000273979 0)
(2.96835 0.00071333 0)
(2.91743 0.00191226 0)
(2.7735 0.00531885 0)
(2.34587 0.0158752 0)
(1.26076 0.0491721 0)
(0.542157 0.097134 0)
(0.647809 0.116083 0)
(3 1.08784e-11 0)
(3 3.73382e-11 0)
(3 2.42922e-10 0)
(3 3.64937e-10 0)
(3 1.83382e-09 0)
(3 3.01538e-09 0)
(3 1.01904e-08 0)
(3 2.30958e-08 0)
(3 5.06526e-08 0)
(2.99999 1.6967e-07 0)
(2.99998 2.55263e-07 0)
(2.99995 1.19776e-06 0)
(2.99987 1.33161e-06 0)
(2.99967 8.13046e-06 0)
(2.9992 7.89838e-06 0)
(2.998 5.43845e-05 0)
(2.99511 5.34816e-05 0)
(2.98767 0.000327772 0)
(2.96907 0.000479329 0)
(2.91925 0.00185786 0)
(2.77871 0.00445887 0)
(2.36388 0.0137228 0)
(1.29503 0.0416042 0)
(0.571748 0.0839095 0)
(0.650002 0.0991314 0)
(3 4.97789e-12 0)
(3 4.59658e-11 0)
(3 7.3562e-11 0)
(3 4.73632e-10 0)
(3 6.03356e-10 0)
(3 2.82277e-09 0)
(3 5.89486e-09 0)
(3 1.42253e-08 0)
(3 5.32073e-08 0)
(2.99999 6.25751e-08 0)
(2.99998 4.12927e-07 0)
(2.99995 2.95509e-07 0)
(2.99987 2.97239e-06 0)
(2.99968 1.70662e-06 0)
(2.99922 1.96579e-05 0)
(2.99803 1.27594e-05 0)
(2.99518 0.000125889 0)
(2.98789 0.000118143 0)
(2.96963 0.000721204 0)
(2.92079 0.00124486 0)
(2.78352 0.00434315 0)
(2.37835 0.0117489 0)
(1.32494 0.035056 0)
(0.597263 0.0712833 0)
(0.652175 0.0811906 0)
(3 1.11e-11 0)
(3 2.70462e-12 0)
(3 1.49482e-10 0)
(3 4.65672e-11 0)
(3 1.03774e-09 0)
(3 1.84586e-10 0)
(3 7.88602e-09 0)
(3 -4.35388e-10 0)
(3 6.0097e-08 0)
(2.99999 2.44878e-09 0)
(2.99998 4.06749e-07 0)
(2.99995 9.6964e-08 0)
(2.99987 2.64984e-06 0)
(2.99969 1.42535e-06 0)
(2.99921 1.59864e-05 0)
(2.99809 1.51551e-05 0)
(2.99519 9.26661e-05 0)
(2.98817 0.000141231 0)
(2.97001 0.000556313 0)
(2.9223 0.00116627 0)
(2.78766 0.00373152 0)
(2.39047 0.010146 0)
(1.35043 0.0292057 0)
(0.618288 0.0595691 0)
(0.654257 0.0623815 0)
(3 6.11586e-12 0)
(3 -3.96406e-12 0)
(3 1.11592e-10 0)
(3 -2.15301e-11 0)
(3 8.20149e-10 0)
(3 1.21008e-10 0)
(3 4.96971e-09 0)
(3 3.77293e-09 0)
(3 2.89237e-08 0)
(2.99999 5.79369e-08 0)
(2.99998 1.6413e-07 0)
(2.99995 5.15581e-07 0)
(2.99987 1.05149e-06 0)
(2.99969 4.00241e-06 0)
(2.99923 6.486e-06 0)
(2.9981 2.87364e-05 0)
(2.99528 3.95851e-05 0)
(2.98828 0.000194493 0)
(2.97048 0.00031695 0)
(2.92352 0.00116132 0)
(2.79101 0.0028027 0)
(2.40083 0.00835151 0)
(1.37197 0.0233469 0)
(0.633777 0.047526 0)
(0.655097 0.0450487 0)
(3 -4.40996e-12 0)
(3 4.17129e-11 0)
(3 -4.34112e-11 0)
(3 4.06611e-10 0)
(3 -2.37729e-10 0)
(3 2.44284e-09 0)
(3 -2.82782e-10 0)
(3 1.41602e-08 0)
(3 6.85585e-09 0)
(2.99999 7.42221e-08 0)
(2.99998 1.06967e-07 0)
(2.99995 3.5869e-07 0)
(2.99987 1.03717e-06 0)
(2.99969 1.91565e-06 0)
(2.99923 7.83675e-06 0)
(2.99812 1.08757e-05 0)
(2.99533 5.87483e-05 0)
(2.9884 6.81654e-05 0)
(2.97081 0.000354448 0)
(2.92441 0.000640009 0)
(2.79365 0.00209977 0)
(2.40873 0.00576482 0)
(1.38945 0.0170271 0)
(0.64497 0.0345576 0)
(0.654445 0.0307202 0)
(3 -6.78129e-12 0)
(3 3.34023e-11 0)
(3 -8.79052e-11 0)
(3 3.45307e-10 0)
(3 -5.70808e-10 0)
(3 2.32999e-09 0)
(3 -2.74702e-09 0)
(3 1.32451e-08 0)
(3 -9.22564e-09 0)
(2.99999 6.5539e-08 0)
(2.99998 8.56137e-09 0)
(2.99995 3.16764e-07 0)
(2.99987 4.75015e-07 0)
(2.9997 1.15814e-06 0)
(2.99923 5.72751e-06 0)
(2.99814 3.67215e-06 0)
(2.99533 4.59317e-05 0)
(2.98853 1.64791e-05 0)
(2.97096 0.0002443 0)
(2.92496 0.000311299 0)
(2.79545 0.00124956 0)
(2.41368 0.00324331 0)
(1.40202 0.0103074 0)
(0.653191 0.0210453 0)
(0.654302 0.0179762 0)
(3 -1.54361e-12 0)
(3 -2.76089e-12 0)
(3 -2.21192e-11 0)
(3 -3.96933e-12 0)
(3 -1.42424e-10 0)
(3 3.83174e-10 0)
(3 -9.94846e-10 0)
(3 3.13487e-09 0)
(3 -4.84902e-09 0)
(2.99999 2.18113e-08 0)
(2.99998 -1.88204e-08 0)
(2.99995 1.79427e-07 0)
(2.99987 4.30988e-10 0)
(2.9997 8.18703e-07 0)
(2.99924 1.55189e-06 0)
(2.99815 3.66391e-06 0)
(2.99534 1.16715e-05 0)
(2.98856 2.00412e-05 0)
(2.97107 5.65244e-05 0)
(2.92521 0.000146812 0)
(2.7963 0.000375232 0)
(2.41621 0.00109914 0)
(1.40814 0.00342898 0)
(0.657145 0.0070767 0)
(0.653961 0.00594447 0)
(1.11718 0.999004 0)
(0.997889 0.709435 0)
(0.08298 0.425256 0)
(-0.42261 0.0212415 0)
(-0.549032 -0.00859931 0)
(-0.691602 -0.023247 0)
(-0.745588 -0.0112356 0)
(-0.793388 0.0112046 0)
(-0.85517 0.0178585 0)
(-0.913671 0.0147248 0)
(-0.959458 0.00624332 0)
(-0.996391 -0.00162302 0)
(-1.02441 -0.00259173 0)
(-1.03725 -0.00252825 0)
(-1.03691 -0.00355635 0)
(-1.02482 -0.00516814 0)
(-0.99967 -0.00745809 0)
(-0.961844 -0.00997552 0)
(-0.915121 -0.0120866 0)
(-0.863784 -0.0132641 0)
(-0.810793 -0.0137293 0)
(-0.757596 -0.013803 0)
(-0.704962 -0.0137324 0)
(-0.652965 -0.0136614 0)
(-0.601521 -0.0136567 0)
(-0.550436 -0.013782 0)
(-0.499553 -0.0141284 0)
(-0.448911 -0.0146847 0)
(-0.397744 -0.0158472 0)
(-0.346023 -0.0174106 0)
(-0.294788 -0.0185706 0)
(-0.244596 -0.0194187 0)
(-0.195447 -0.0203331 0)
(-0.14718 -0.0211264 0)
(-0.0995038 -0.0219179 0)
(-0.052673 -0.0228278 0)
(-0.00654295 -0.0252103 0)
(0.0446337 -0.0244787 0)
(0.0891892 -0.0225901 0)
(0.132827 -0.0213727 0)
(0.175104 -0.0207109 0)
(0.215656 -0.0199141 0)
(0.254706 -0.0190989 0)
(0.291387 -0.0182606 0)
(0.327532 -0.0179099 0)
(0.36525 -0.0181388 0)
(0.402729 -0.0176936 0)
(0.438691 -0.0169619 0)
(0.4734 -0.016267 0)
(0.507222 -0.0157112 0)
(0.540286 -0.0151898 0)
(0.572661 -0.0147259 0)
(0.60433 -0.0142363 0)
(0.63537 -0.0137802 0)
(0.665762 -0.0133225 0)
(0.695561 -0.0128891 0)
(0.72476 -0.0124633 0)
(0.753383 -0.0120525 0)
(0.78145 -0.0116452 0)
(0.808973 -0.0112543 0)
(0.835963 -0.0108635 0)
(0.862443 -0.0104877 0)
(0.888425 -0.0101113 0)
(0.913925 -0.00975067 0)
(0.938952 -0.00938646 0)
(0.963527 -0.00903579 0)
(0.98765 -0.00868225 0)
(1.01135 -0.00833618 0)
(1.03461 -0.00798907 0)
(1.05746 -0.0076438 0)
(1.07989 -0.0072978 0)
(1.10191 -0.00695158 0)
(1.12352 -0.00660475 0)
(1.14473 -0.00625863 0)
(1.16554 -0.00591321 0)
(1.18595 -0.00557069 0)
(1.20597 -0.00523079 0)
(1.2256 -0.00489684 0)
(1.24487 -0.00456766 0)
(1.26376 -0.00424705 0)
(1.28231 -0.00393297 0)
(1.3005 -0.00362744 0)
(1.31835 -0.00332884 0)
(1.33586 -0.00303816 0)
(1.35303 -0.00275309 0)
(1.36986 -0.00248173 0)
(1.38635 -0.00222271 0)
(1.4025 -0.00196532 0)
(1.41829 -0.0017051 0)
(1.43371 -0.00145304 0)
(1.44874 -0.00121546 0)
(1.46334 -0.0009938 0)