/*--------------------------------*- C++ -*----------------------------------*\
  =========                 |
  \\      /  F ield         | OpenFOAM: The Open Source CFD Toolbox
   \\    /   O peration     | Website:  https://openfoam.org
    \\  /    A nd           | Version:  10
     \\/     M anipulation  |
\*---------------------------------------------------------------------------*/
FoamFile
{
    format      ascii;
    class       volScalarField;
    location    "8.5";
    object      p;
}
// * * * * * * * * * * * * * * * * * * * * * * * * * * * * * * * * * * * * * //

dimensions      [1 -1 -2 0 0 0 0];

internalField   nonuniform List<scalar> 
5250
(
1.00001
1.00004
1.00011
1.00026
1.00072
1.00164
1.00442
1.00994
1.0269
1.06223
1.16424
1.41755
2.15983
4.33689
10.1694
11.2529
11.1178
11.0836
11.1725
11.395
11.6131
11.753
11.8624
11.9485
12.0152
1.00001
1.00004
1.0001
1.00029
1.00065
1.00177
1.004
1.01073
1.02472
1.06482
1.15769
1.41825
2.14046
4.29731
10.0796
11.2487
11.1133
11.0749
11.1639
11.3863
11.6039
11.7442
11.8552
11.9426
12.0108
1.00001
1.00003
1.00011
1.00026
1.00067
1.00166
1.00404
1.01024
1.02448
1.06274
1.1548
1.4063
2.11165
4.20523
9.88073
11.2393
11.0996
11.0472
11.1336
11.352
11.5666
11.7048
11.815
11.9014
11.9693
1.00001
1.00004
1.00009
1.00027
1.00061
1.00167
1.00377
1.0101
1.02329
1.06096
1.14817
1.3918
2.06465
4.06764
9.56777
11.2314
11.0801
11.0006
11.0818
11.292
11.5012
11.6347
11.7413
11.8252
11.8933
1.00001
1.00003
1.00009
1.00024
1.0006
1.00154
1.00364
1.00949
1.02212
1.05794
1.14034
1.37051
2.00391
3.88441
9.13493
11.2309
11.0575
10.9366
11.0107
11.2092
11.411
11.5375
11.6383
11.7184
11.7877
1.00001
1.00003
1.00009
1.00023
1.00057
1.00143
1.00341
1.00884
1.02071
1.05394
1.1309
1.34392
1.92845
3.65728
8.57076
11.2406
11.0343
10.8554
10.9199
11.1019
11.2927
11.4078
11.4982
11.5703
11.6398
1.00001
1.00003
1.00008
1.0002
1.00054
1.00126
1.00324
1.00785
1.0194
1.04853
1.12065
1.31123
1.84047
3.38876
7.86859
11.2678
11.0125
10.7568
10.8093
10.9695
11.1438
11.2409
11.3124
11.3673
11.4307
1
1.00003
1.00007
1.00019
1.00046
1.00117
1.00286
1.00699
1.01765
1.0427
1.10858
1.27546
1.7405
3.0882
7.03714
11.301
10.9909
10.643
10.6803
10.8107
10.9611
11.0301
11.0694
11.0876
11.1248
1
1.00002
1.00007
1.00016
1.00043
1.00097
1.00263
1.00592
1.01586
1.03665
1.09588
1.23672
1.63699
2.77035
6.10878
11.2798
10.9498
10.5205
10.5364
10.6255
10.7409
10.7678
10.7547
10.6986
10.6466
1
1.00002
1.00006
1.00014
1.00037
1.00085
1.00227
1.00518
1.01365
1.0319
1.08223
1.20321
1.53909
2.48179
5.23989
11.0808
10.8338
10.3987
10.369
10.4149
10.476
10.4537
10.3595
10.142
9.82287
1
1.00002
1.00005
1.00013
1.00031
1.00078
1.00191
1.00465
1.01172
1.02815
1.07147
1.17772
1.46596
2.27998
4.66991
10.4744
10.531
10.31
10.1746
10.1821
10.1738
10.0919
9.84872
9.28487
7.85019
1
1.00001
1.00004
1.00011
1.00026
1.00071
1.00157
1.00428
1.0096
1.02577
1.05993
1.15706
1.39826
2.09914
4.12462
9.43963
10.301
10.1715
9.98132
9.93951
9.87047
9.70127
9.32307
8.56533
7.10638
1
1.00001
1.00004
1.00009
1.00023
1.00058
1.00139
1.00359
1.00833
1.02193
1.05141
1.13393
1.33787
1.92331
3.60734
8.2532
10.1594
10.0533
9.8167
9.69842
9.5774
9.33205
8.86442
8.1065
6.97532
1
1.00001
1.00003
1.00008
1.0002
1.00047
1.00123
1.00281
1.0075
1.01704
1.0454
1.10753
1.28312
1.74835
3.10641
6.93966
10.0713
9.95897
9.67766
9.47028
9.29422
9.00704
8.53233
7.84509
6.95912
1
1.00001
1.00002
1.00007
1.00016
1.0004
1.00097
1.00233
1.00596
1.01395
1.03626
1.08659
1.22415
1.58436
2.61418
5.52526
9.89171
9.83377
9.57619
9.26767
9.03892
8.73702
8.28688
7.6753
6.93454
1
1.00001
1.00002
1.00005
1.00013
1.00032
1.00075
1.00196
1.00445
1.01186
1.02705
1.07127
1.17165
1.45376
2.2222
4.40388
9.36056
9.6331
9.45298
9.09062
8.81868
8.51218
8.09164
7.54389
6.89952
1
1.00001
1.00002
1.00004
1.0001
1.00024
1.00064
1.00145
1.00387
1.00871
1.0234
1.05382
1.14146
1.3537
1.96528
3.68754
8.16155
9.36644
9.24935
8.95434
8.63504
8.32058
7.92754
7.43372
6.86351
1
1
1.00001
1.00003
1.00008
1.0002
1.00048
1.00118
1.00296
1.00702
1.01808
1.04271
1.11014
1.27497
1.73833
3.04095
6.61344
9.14716
9.08415
8.85358
8.4893
8.15814
7.78657
7.33908
6.82984
1
1
1.00001
1.00002
1.00006
1.00014
1.00039
1.00087
1.00232
1.00522
1.01396
1.03179
1.08374
1.2023
1.53836
2.44827
4.95953
8.84119
8.94691
8.77742
8.40211
8.02941
7.66679
7.25788
6.79976
1
1
1.00001
1.00002
1.00004
1.00012
1.00027
1.00071
1.0016
1.00427
1.00959
1.02562
1.05896
1.15413
1.38587
2.04024
3.83296
8.0668
8.77504
8.6461
8.32474
7.92446
7.56639
7.18915
6.77404
1
1
1.00001
1.00001
1.00003
1.00009
1.00021
1.00052
1.00121
1.00318
1.0072
1.01915
1.04397
1.11516
1.28364
1.76194
3.07508
6.52861
8.51621
8.46623
8.2593
7.84866
7.48677
7.13237
6.75327
1
1
1
1.00001
1.00003
1.00006
1.00016
1.00036
1.00095
1.00215
1.00563
1.01305
1.03339
1.0804
1.20493
1.52741
2.41988
4.8012
8.13979
8.32578
8.18347
7.83967
7.44243
7.09113
6.73926
1
1
1
1.00001
1.00002
1.00005
1.0001
1.00028
1.00063
1.00164
1.0038
1.00967
1.0231
1.05756
1.14192
1.36312
1.95605
3.55617
7.2742
8.16667
8.0755
7.81951
7.42992
7.06988
6.73503
1
1
1
1.00001
1.00001
1.00003
1.00008
1.00019
1.00046
1.00115
1.00269
1.00699
1.01594
1.04197
1.09838
1.25631
1.66029
2.78471
5.69009
7.91753
7.91368
7.77648
7.44582
7.07161
6.73868
1
1
1
1
1.00001
1.00002
1.00005
1.00014
1.00031
1.00079
1.0019
1.00457
1.01142
1.02704
1.06834
1.16627
1.42722
2.11062
3.86592
7.39579
7.83359
7.73219
7.47144
7.0866
6.75431
1
1
1
1
1.00001
1.00002
1.00004
1.00009
1.00022
1.00055
1.00131
1.00317
1.00794
1.01871
1.04762
1.11436
1.29328
1.76088
3.03146
6.17974
7.64468
7.62289
7.46884
7.1311
6.79444
1
1
1
1
1
1.00001
1.00002
1.00006
1.00014
1.00038
1.00086
1.00225
1.00516
1.01322
1.03126
1.07852
1.19322
1.49964
2.31038
4.40242
7.21752
7.52927
7.44059
7.20934
6.87922
1
1
1
1
1
1.00001
1.00002
1.00004
1.0001
1.00026
1.00057
1.00152
1.00338
1.00901
1.02014
1.05331
1.12423
1.32325
1.82745
3.16133
6.24629
7.36664
7.35867
7.25968
7.03372
1
1
1
1
1
1
1.00001
1.00003
1.00007
1.00017
1.00039
1.001
1.00226
1.00596
1.01334
1.0354
1.08132
1.21165
1.53067
2.39801
4.57345
6.9954
7.32794
7.30193
7.21605
1
1
1
1
1
1
1.00001
1.00002
1.00005
1.0001
1.00027
1.0006
1.0016
1.00355
1.0094
1.02115
1.05511
1.12975
1.33408
1.85069
3.18234
6.16338
7.23385
7.40736
7.4593
1
1
1
1
1
1
1
1.00001
1.00003
1.00007
1.00016
1.00042
1.00099
1.0024
1.00595
1.01395
1.03549
1.08391
1.21346
1.53906
2.40207
4.54433
6.946
7.61238
7.87781
1
1
1
1
1
1
1
1.00001
1.00002
1.00005
1.00011
1.00026
1.00066
1.00152
1.00391
1.00883
1.02311
1.05285
1.13621
1.33325
1.86317
3.20022
6.21938
7.83185
8.58859
1
1
1
1
1
1
1
1.00001
1.00001
1.00003
1.00007
1.00018
1.00041
1.00108
1.00238
1.00634
1.01412
1.03729
1.08605
1.22263
1.55814
2.46273
4.71503
7.86372
9.66074
1
1
1
1
1
1
1
1
1.00001
1.00002
1.00005
1.00013
1.00028
1.00074
1.00168
1.00437
1.01
1.02571
1.06072
1.15408
1.38636
2.01956
3.69848
7.67678
10.9392
1
1
1
1
1
1
1
1
1.00001
1.00002
1.00004
1.00009
1.00022
1.00056
1.00127
1.00337
1.00761
1.02026
1.04649
1.12212
1.30124
1.81457
3.24578
7.15784
12.0495
1
1
1
1
1
1
1
1
1.00001
1.00001
1.00003
1.00007
1.00018
1.00046
1.00106
1.0028
1.00636
1.01701
1.03914
1.1034
1.25486
1.69101
2.93502
6.58087
12.7602
1
1
1
1
1
1
1
1
1
1.00001
1.00003
1.00007
1.00016
1.00041
1.00096
1.00254
1.00579
1.01556
1.03591
1.09483
1.23497
1.63631
2.79316
6.30232
12.9611
1
1
1
1
1
1
1
1
1
1.00001
1.00003
1.00006
1.00016
1.00036
1.00098
1.0022
1.006
1.01355
1.03671
1.08634
1.22948
1.60271
2.7165
6.09315
12.8796
1
1
1
1
1
1
1
1
1
1.00001
1.00002
1.00006
1.00014
1.00038
1.00086
1.00233
1.00529
1.01424
1.03315
1.08735
1.2167
1.58717
2.653
5.91726
12.6962
1
1
1
1
1
1
1
1
1
1.00001
1.00002
1.00006
1.00015
1.00034
1.0009
1.0021
1.00547
1.01321
1.03328
1.0832
1.21296
1.56644
2.60063
5.74726
12.5046
1
1
1
1
1
1
1
1
1
1.00001
1.00002
1.00006
1.00014
1.00036
1.00082
1.0022
1.00502
1.01356
1.03125
1.0832
1.20442
1.55343
2.54915
5.58716
12.309
1
1
1
1
1
1
1
1
1
1.00001
1.00002
1.00005
1.00014
1.00034
1.00082
1.00213
1.00496
1.01318
1.03073
1.08093
1.20007
1.53813
2.50415
5.43902
12.1144
1
1
1
1
1
1
1
1
1
1.00001
1.00002
1.00005
1.00014
1.00032
1.00085
1.00195
1.00527
1.01189
1.03244
1.07543
1.20075
1.52055
2.46622
5.30353
11.9172
1
1
1
1
1
1
1
1
1
1.00001
1.00002
1.00005
1.00014
1.00032
1.00084
1.00196
1.00504
1.01227
1.03058
1.07642
1.1941
1.51183
2.42926
5.18685
11.7295
1
1
1
1
1
1
1
1
1
1.00001
1.00002
1.00005
1.00014
1.00031
1.00084
1.0019
1.0051
1.01177
1.03085
1.07402
1.19242
1.50067
2.40007
5.08841
11.5623
1
1
1
1
1
1
1
1
1
1.00001
1.00002
1.00005
1.00014
1.00031
1.00083
1.00188
1.00505
1.01159
1.03054
1.07287
1.18973
1.49222
2.37501
5.00936
11.4217
1
1
1
1
1
1
1
1
1
1.00001
1.00002
1.00005
1.00013
1.00032
1.00079
1.00197
1.00471
1.01214
1.0288
1.07437
1.18421
1.48833
2.35308
4.94924
11.3106
1
1
1
1
1
1
1
1
1
1.00001
1.00002
1.00005
1.00013
1.00032
1.00079
1.00191
1.00487
1.01147
1.02984
1.07152
1.18494
1.48094
2.33898
4.90435
11.2298
1
1
1
1
1
1
1
1
1
1.00001
1.00002
1.00005
1.00013
1.00031
1.0008
1.00186
1.00492
1.01124
1.02999
1.07045
1.18459
1.47628
2.32935
4.87511
11.1775
1
1
1
1
1
1
1
1
1
1.00001
1.00002
1.00005
1.00013
1.0003
1.00081
1.00183
1.00494
1.01113
1.0301
1.06993
1.18453
1.4741
2.32483
4.86057
11.1518
3.78421
3.25279
4.23928
4.27918
4.03278
3.93619
3.88443
3.79429
3.68622
3.59034
3.5106
3.42998
3.33929
3.2741
3.2457
3.23795
3.24116
3.27991
3.35077
3.44696
3.55906
3.67779
3.79695
3.91238
4.02177
4.12436
4.22039
4.31061
4.39552
4.47558
4.55115
4.62249
4.68865
4.74814
4.80106
4.84801
4.88947
4.92517
4.9575
4.98609
5.00824
5.02375
5.03366
5.03878
5.03902
5.03659
5.0297
5.01733
5.00153
4.98263
4.96059
4.93558
4.90779
4.87732
4.84452
4.80942
4.77229
4.73321
4.6924
4.64996
4.60611
4.5609
4.51456
4.46713
4.41883
4.36966
4.31987
4.26943
4.21858
4.16732
4.11582
4.06415
4.01243
3.96074
3.90918
3.85784
3.80679
3.75609
3.70582
3.65601
3.60671
3.55793
3.5097
3.46206
3.41501
3.36858
3.32278
3.27767
3.23323
3.18954
3.14665
3.10463
3.06356
3.02371
2.98532
2.94877
2.91472
2.88419
2.85862
2.8413
4.69011
4.20312
4.35235
4.23521
4.0041
3.96394
3.93877
3.81082
3.67786
3.56995
3.49231
3.42102
3.34654
3.27733
3.24205
3.23063
3.23306
3.27115
3.34186
3.43881
3.5522
3.67154
3.79113
3.90663
4.01606
4.11842
4.21418
4.30389
4.38829
4.46745
4.54204
4.61397
4.68074
4.74041
4.79378
4.84103
4.88273
4.91917
4.95117
4.97899
5.0012
5.01715
5.02742
5.0326
5.03291
5.03105
5.02496
5.0122
4.99591
4.9771
4.95542
4.93063
4.90301
4.87275
4.84012
4.80521
4.76828
4.72939
4.68879
4.64655
4.6029
4.55789
4.51175
4.46452
4.4164
4.36743
4.3178
4.26755
4.21683
4.16571
4.11433
4.06276
4.01112
3.9595
3.908
3.85669
3.80568
3.75501
3.70476
3.65497
3.60568
3.55691
3.50869
3.46105
3.41399
3.36756
3.32178
3.27668
3.23221
3.1885
3.14561
3.10362
3.06266
3.02279
2.98433
2.94766
2.91343
2.88259
2.85655
2.8387
5.50584
4.77824
4.51847
4.2694
4.04636
3.96295
3.88518
3.78005
3.66448
3.56859
3.49794
3.42067
3.34079
3.27188
3.22771
3.21011
3.21954
3.26119
3.32871
3.42321
3.53667
3.65623
3.7777
3.8943
4.00465
4.10769
4.20429
4.295
4.38042
4.46065
4.53641
4.6079
4.67417
4.73382
4.78734
4.83467
4.87658
4.91305
4.94489
4.97197
4.99385
5.00978
5.02014
5.02523
5.02527
5.02377
5.01855
5.00675
4.98901
4.96967
4.9481
4.92362
4.89624
4.8662
4.83375
4.79907
4.76234
4.7237
4.68334
4.64136
4.59796
4.55323
4.50734
4.46039
4.41252
4.36382
4.31442
4.2644
4.21388
4.16295
4.11172
4.06029
4.00876
3.95723
3.90581
3.85456
3.80359
3.75296
3.70273
3.65297
3.60368
3.55492
3.5067
3.4591
3.41206
3.36557
3.31983
3.2748
3.23046
3.18686
3.144
3.102
3.06098
3.02107
2.98252
2.94568
2.91114
2.87983
2.85304
2.83422
5.86638
5.08289
4.63916
4.34607
4.1234
3.98301
3.88511
3.7764
3.664
3.56403
3.48561
3.40799
3.33314
3.2728
3.23418
3.21646
3.22182
3.25386
3.32338
3.41767
3.52784
3.6459
3.76547
3.8818
3.99215
4.09567
4.19281
4.28402
4.36977
4.45019
4.52576
4.59668
4.66247
4.72216
4.77568
4.82312
4.86491
4.90129
4.93269
4.9592
4.9806
4.99649
5.00689
5.01199
5.01196
5.01072
5.00641
4.99626
4.97777
4.95757
4.93586
4.91168
4.88476
4.85514
4.8231
4.7888
4.75246
4.71422
4.67426
4.63271
4.58972
4.54542
4.49994
4.45341
4.40592
4.35762
4.30856
4.25889
4.20867
4.15803
4.10704
4.05582
4.00447
3.9531
3.9018
3.85068
3.79981
3.7493
3.69916
3.64949
3.60026
3.55159
3.50336
3.45588
3.40897
3.36281
3.31709
3.27208
3.22776
3.18419
3.14139
3.09943
3.05844
3.01852
2.97992
2.94292
2.90809
2.87627
2.84869
2.82878
6.04722
5.30093
4.79418
4.45727
4.21442
4.03583
3.90906
3.79439
3.68172
3.58316
3.50344
3.42929
3.36143
3.30683
3.27027
3.25507
3.25948
3.28233
3.33828
3.42656
3.52468
3.6309
3.745
3.8604
3.97178
4.07707
4.17595
4.26862
4.35546
4.43662
4.5125
4.58319
4.64852
4.70792
4.76123
4.8085
4.85004
4.8861
4.91701
4.94295
4.96387
4.97956
4.98996
4.99508
4.99501
4.99392
4.99028
4.98163
4.9641
4.94312
4.92081
4.89669
4.87021
4.84114
4.80963
4.77584
4.74
4.70226
4.6628
4.62175
4.57927
4.53548
4.4905
4.44445
4.39745
4.34958
4.30096
4.25167
4.20182
4.15148
4.10078
4.0498
3.99868
3.94749
3.89638
3.84541
3.79471
3.74435
3.69438
3.64475
3.59565
3.54712
3.49921
3.45181
3.40499
3.35881
3.31322
3.26829
3.22406
3.18057
3.13787
3.096
3.05508
3.0152
2.9766
2.9395
2.90444
2.87217
2.84387
2.82288
6.15752
5.47989
4.96185
4.59015
4.32025
4.11859
3.96575
3.84095
3.72915
3.63329
3.55528
3.4921
3.44091
3.40145
3.37678
3.36844
3.37052
3.38057
3.40711
3.46138
3.52885
3.60904
3.71299
3.82652
3.94163
4.05202
4.15479
4.24992
4.3377
4.41917
4.49473
4.56488
4.6295
4.68845
4.74147
4.78858
4.82989
4.86566
4.89616
4.92163
4.94213
4.95761
4.968
4.97325
4.97318
4.97222
4.96912
4.96173
4.94646
4.92537
4.90251
4.87823
4.85204
4.82354
4.79267
4.75953
4.72431
4.68719
4.64833
4.60788
4.56599
4.52278
4.47838
4.43289
4.38643
4.33908
4.29094
4.24209
4.19265
4.14267
4.0923
4.04162
3.99077
3.93985
3.88893
3.83822
3.78774
3.73757
3.68779
3.63861
3.5898
3.54155
3.49375
3.44652
3.39979
3.35373
3.30825
3.26348
3.21937
3.17603
3.13347
3.09176
3.05099
3.01124
2.97272
2.93566
2.90051
2.86799
2.8392
2.81728
6.22882
5.62225
5.11829
4.72961
4.43624
4.21385
4.04539
3.9133
3.80458
3.71801
3.65556
3.6138
3.58573
3.56671
3.55634
3.54942
3.54463
3.53877
3.532
3.53478
3.54991
3.58964
3.66763
3.76646
3.88647
4.00767
4.12045
4.22214
4.31295
4.39534
4.47068
4.5402
4.6042
4.66275
4.71571
4.76292
4.80433
4.8401
4.87048
4.89574
4.91603
4.93143
4.94192
4.94752
4.94747
4.94666
4.94404
4.93777
4.92472
4.90469
4.88195
4.85756
4.83148
4.80339
4.77313
4.74069
4.70619
4.66976
4.63159
4.5918
4.55057
4.508
4.46424
4.41935
4.37347
4.32666
4.27903
4.23064
4.18161
4.13201
4.08198
4.03163
3.98106
3.93045
3.87974
3.82941
3.77937
3.7297
3.6803
3.63137
3.58277
3.53468
3.48701
3.43993
3.39335
3.34744
3.30214
3.25755
3.21365
3.17051
3.12818
3.08669
3.04617
3.00665
2.96838
2.93151
2.89649
2.86397
2.835
2.81271
6.27564
5.73247
5.25492
4.86464
4.55752
4.32004
4.13853
4.00173
3.89983
3.83194
3.79654
3.78539
3.78772
3.79669
3.80371
3.80052
3.7884
3.7579
3.6947
3.63202
3.60929
3.61733
3.64761
3.71498
3.81184
3.93754
4.06314
4.1773
4.27701
4.36385
4.44071
4.51011
4.57354
4.63137
4.68408
4.73138
4.773
4.80902
4.83962
4.86501
4.88534
4.90085
4.91158
4.9176
4.91785
4.91717
4.91488
4.90948
4.89828
4.88018
4.8584
4.83429
4.80832
4.78051
4.75076
4.71898
4.68522
4.64955
4.61212
4.57305
4.53253
4.49063
4.44753
4.40327
4.358
4.31176
4.26466
4.21675
4.16817
4.11898
4.06934
4.01938
3.96918
3.91897
3.86905
3.81921
3.76955
3.72021
3.6711
3.62237
3.57399
3.52611
3.47868
3.43182
3.3855
3.33982
3.29479
3.25045
3.20685
3.16399
3.12199
3.08082
3.04067
3.00153
2.96366
2.92719
2.89257
2.86042
2.83165
2.80959
6.30772
5.81858
5.37213
4.9911
4.68047
4.43539
4.2489
4.1139
4.02914
3.99453
3.99716
4.01164
4.04938
4.10867
4.11631
4.10785
4.07788
4.00715
3.87503
3.75877
3.68512
3.66725
3.67546
3.70452
3.77035
3.86237
3.98084
4.10401
4.21647
4.31394
4.39775
4.47074
4.53538
4.59337
4.64574
4.69285
4.73473
4.77122
4.80239
4.82837
4.84915
4.86525
4.87655
4.88325
4.88425
4.88367
4.8817
4.87711
4.86761
4.85171
4.83152
4.80825
4.78268
4.75522
4.72593
4.69478
4.66176
4.62688
4.59025
4.55196
4.51219
4.47103
4.42861
4.38501
4.34036
4.29468
4.24811
4.20068
4.15253
4.10376
4.05452
4.00498
3.95543
3.90591
3.85651
3.80719
3.75796
3.70897
3.66018
3.61177
3.56368
3.51611
3.46896
3.42241
3.37639
3.33103
3.28631
3.2423
3.19905
3.15658
3.11498
3.07427
3.03461
2.99601
2.95874
2.92295
2.88904
2.85769
2.82959
2.80844
6.33178
5.88848
5.47399
5.10944
4.80468
4.56174
4.38105
4.26094
4.2148
4.21966
4.2426
4.29906
4.4107
4.4742
4.46953
4.44493
4.37922
4.24075
4.06062
3.90826
3.80128
3.74305
3.73544
3.74304
3.76868
3.82721
3.91006
4.01363
4.128
4.23596
4.33208
4.41504
4.48604
4.54728
4.60084
4.64825
4.69027
4.72716
4.75908
4.78573
4.8074
4.82455
4.83689
4.8447
4.84703
4.84658
4.84499
4.84122
4.83341
4.81969
4.80141
4.7795
4.7548
4.7279
4.69913
4.66856
4.6362
4.60207
4.56623
4.52874
4.48975
4.44933
4.40762
4.36468
4.32063
4.27552
4.22945
4.18249
4.13478
4.08645
4.0378
3.98902
3.94018
3.8913
3.84237
3.79352
3.7447
3.69613
3.64772
3.5997
3.55199
3.50478
3.458
3.41182
3.36618
3.32121
3.2769
3.23332
3.19052
3.14854
3.10748
3.06736
3.02835
2.9905
2.95407
2.91926
2.88645
2.85643
2.8295
2.80977
6.35222
5.94846
5.56545
5.22293
4.93306
4.70516
4.54395
4.46441
4.46843
4.49262
4.5576
4.69273
4.82713
4.85137
4.83484
4.77882
4.65154
4.44308
4.24239
4.07584
3.95047
3.86605
3.82073
3.81145
3.81653
3.83546
3.88028
3.9488
4.03309
4.13443
4.23756
4.33311
4.41633
4.48671
4.54603
4.59643
4.63986
4.67747
4.70994
4.73749
4.7603
4.77859
4.79222
4.80167
4.80592
4.80569
4.80458
4.80172
4.79559
4.78392
4.76767
4.74749
4.72414
4.69819
4.67011
4.64013
4.60838
4.57492
4.5398
4.50307
4.46483
4.42513
4.38412
4.34182
4.29836
4.25378
4.2082
4.16169
4.11449
4.06691
4.01905
3.97101
3.92277
3.87445
3.82602
3.77766
3.72933
3.68122
3.6333
3.58573
3.53849
3.49172
3.44541
3.39967
3.35451
3.31001
3.26621
3.22316
3.18094
3.13956
3.09919
3.05983
3.0217
2.98487
2.94965
2.91627
2.88512
2.857
2.83146
2.81438
6.37242
6.00373
5.6526
5.33836
5.0748
4.878
4.75803
4.75153
4.7719
4.83597
4.97638
5.15684
5.23397
5.22371
5.1798
5.07231
4.85745
4.62877
4.42592
4.25781
4.12382
4.02181
3.94925
3.90542
3.88499
3.88667
3.89681
3.92428
3.97951
4.0428
4.12751
4.22519
4.31907
4.40234
4.47306
4.53181
4.5805
4.62104
4.65508
4.68373
4.70767
4.72731
4.74244
4.75351
4.76016
4.76093
4.76029
4.75824
4.75365
4.74437
4.7302
4.71201
4.69032
4.66566
4.63854
4.60933
4.57828
4.5455
4.5111
4.47511
4.43763
4.39868
4.35837
4.31673
4.27386
4.22981
4.18468
4.13879
4.09241
4.04566
3.99856
3.95119
3.90357
3.85583
3.80798
3.76018
3.71242
3.66486
3.61749
3.57046
3.52376
3.47753
3.43176
3.38657
3.34197
3.29806
3.25488
3.21248
3.17096
3.13036
3.09085
3.05248
3.01549
2.98
2.94637
2.91497
2.88588
2.86004
2.83691
2.82417
6.39471
6.05911
5.74336
5.4656
5.24504
5.1003
5.06491
5.08317
5.14404
5.2815
5.48344
5.60142
5.5975
5.56431
5.4706
5.27481
5.03398
4.81094
4.61782
4.45371
4.31536
4.19989
4.10635
4.03421
3.98332
3.95185
3.9435
3.94752
3.96339
3.99926
4.04586
4.11628
4.20386
4.29318
4.37523
4.4463
4.50546
4.55355
4.5924
4.624
4.64992
4.67115
4.68804
4.70064
4.70922
4.71256
4.71221
4.71087
4.70763
4.70088
4.68886
4.6728
4.65303
4.62997
4.60412
4.57591
4.54568
4.51363
4.47994
4.44465
4.40788
4.36963
4.33001
4.28899
4.24668
4.20313
4.15873
4.11368
4.06813
4.02214
3.97575
3.92906
3.8821
3.83502
3.78781
3.74065
3.69351
3.64658
3.59982
3.55341
3.50733
3.46171
3.41658
3.37203
3.32811
3.28489
3.24245
3.20085
3.16021
3.12058
3.08218
3.04509
3.00961
2.97593
2.94455
2.91566
2.88908
2.86691
2.84776
2.84079
6.42156
6.12188
5.84934
5.624
5.4671
5.4123
5.42763
5.48444
5.61622
5.82221
5.9601
5.96336
5.93594
5.84988
5.66623
5.42843
5.20134
4.9985
4.8192
4.65958
4.51713
4.39034
4.27958
4.18519
4.10849
4.0493
4.00926
3.9853
3.98574
3.99217
4.01104
4.04669
4.09907
4.17566
4.25712
4.33653
4.40752
4.46724
4.51569
4.55433
4.58499
4.60936
4.62848
4.64306
4.65323
4.6593
4.65989
4.65924
4.65719
4.65257
4.64324
4.62939
4.61168
4.59045
4.56615
4.5392
4.51001
4.47884
4.44593
4.41139
4.37534
4.3378
4.29885
4.25843
4.21669
4.17392
4.13042
4.08627
4.04155
3.99635
3.95072
3.90478
3.85857
3.81222
3.76575
3.71931
3.6729
3.62668
3.58065
3.53494
3.48959
3.4447
3.40032
3.35653
3.31341
3.27103
3.22949
3.18886
3.14931
3.11092
3.07394
3.03852
3.00505
2.97388
2.94529
2.91919
2.89661
2.87972
2.8665
2.86551
6.46407
6.20671
5.99166
5.83847
5.78008
5.79482
5.85212
5.98524
6.18759
6.32317
6.3306
6.3029
6.21602
6.03229
5.80035
5.57756
5.37601
5.19269
5.0242
4.8671
4.72045
4.58433
4.46003
4.34849
4.25135
4.16923
4.10338
4.05357
4.0218
4.00728
4.0092
4.01857
4.03985
4.07913
4.13935
4.21315
4.28783
4.35728
4.41783
4.46784
4.50768
4.53858
4.56209
4.57979
4.59215
4.60041
4.60376
4.60346
4.60222
4.59917
4.59279
4.5813
4.56584
4.54668
4.52419
4.49879
4.4709
4.44081
4.40884
4.37514
4.33987
4.30306
4.26474
4.22495
4.18404
4.14222
4.09967
4.05642
4.01258
3.96823
3.92343
3.87833
3.83293
3.7874
3.74173
3.6961
3.65049
3.60507
3.55984
3.51494
3.47042
3.42635
3.38284
3.33993
3.29776
3.25637
3.21593
3.1765
3.13831
3.10149
3.06637
3.03318
3.00246
2.97451
2.94895
2.92735
2.9107
2.90065
2.89657
2.89766
6.53473
6.33273
6.19589
6.15101
6.16916
6.23545
6.38476
6.58353
6.71009
6.70749
6.67401
6.57764
6.38006
6.15253
5.93587
5.73917
5.55904
5.38921
5.22709
5.07054
4.91992
4.77642
4.64172
4.51715
4.4043
4.30414
4.21772
4.14572
4.08856
4.04766
4.0216
4.01545
4.01825
4.02876
4.05328
4.10092
4.16167
4.23043
4.29805
4.35933
4.41125
4.45268
4.48438
4.50785
4.52456
4.53563
4.54216
4.54318
4.54259
4.5407
4.53648
4.52793
4.51489
4.498
4.4776
4.45405
4.42773
4.39899
4.36817
4.33546
4.30108
4.26502
4.2274
4.18846
4.14855
4.10775
4.06618
4.02391
3.98102
3.93761
3.89376
3.84958
3.80511
3.76049
3.71574
3.67101
3.62633
3.58181
3.53752
3.49354
3.44997
3.40687
3.36437
3.32251
3.28146
3.24127
3.20216
3.16424
3.12778
3.09302
3.06033
3.03021
3.00307
2.97839
2.95766
2.94292
2.93364
2.93352
2.93507
2.94066
6.65278
6.52562
6.50898
6.53513
6.62121
6.80572
7.00968
7.11907
7.11198
7.06495
6.94479
6.71814
6.48975
6.27814
6.08742
5.91245
5.74662
5.58498
5.42479
5.26697
5.11269
4.96343
4.82088
4.6865
4.56173
4.44764
4.34511
4.25499
4.17773
4.11422
4.0647
4.03066
4.01202
4.00992
4.0126
4.02444
4.05204
4.10544
4.166
4.23081
4.29207
4.34539
4.38882
4.42221
4.44648
4.4632
4.4734
4.47816
4.47799
4.47696
4.4743
4.46872
4.45828
4.44385
4.42583
4.40444
4.38005
4.35297
4.32357
4.29207
4.25873
4.22353
4.18685
4.14899
4.11018
4.07046
4.02997
3.98876
3.94692
3.90457
3.86176
3.81861
3.77517
3.73157
3.68785
3.64414
3.60048
3.55699
3.51374
3.47082
3.42833
3.38636
3.34502
3.3044
3.26469
3.22597
3.18853
3.15252
3.11832
3.08627
3.05695
3.03086
3.00721
2.98777
2.97465
2.96853
2.96925
2.97282
2.98258
3.00529
6.84922
6.84428
6.88285
6.99878
7.23828
7.4615
7.55826
7.54354
7.47612
7.31745
7.07152
6.82746
6.61241
6.42382
6.25305
6.09155
5.93324
5.77484
5.61514
5.45571
5.29823
5.14433
4.99575
4.85386
4.72
4.59515
4.48008
4.37562
4.2821
4.20038
4.1308
4.07444
4.03165
4.00515
3.99284
3.98857
3.99273
4.00791
4.04154
4.09578
4.15515
4.21524
4.27018
4.31623
4.35204
4.37802
4.39533
4.40508
4.40844
4.40802
4.40648
4.40292
4.39562
4.38385
4.36836
4.3494
4.32726
4.30219
4.27454
4.24456
4.21242
4.17837
4.14296
4.10634
4.06873
4.0302
3.99088
3.95085
3.91019
3.869
3.82735
3.78535
3.74306
3.7006
3.65803
3.61547
3.57297
3.53066
3.48859
3.4469
3.40565
3.365
3.32501
3.28591
3.24781
3.21095
3.1756
3.1421
3.11089
3.0826
3.05768
3.03544
3.01745
3.00618
3.00345
3.00487
3.01014
3.02307
3.04928
3.10262
7.18175
7.22993
7.37486
7.67213
7.93342
8.02751
8.00484
7.91512
7.7141
7.43743
7.17522
6.94915
6.75612
6.58542
6.4263
6.27112
6.11544
5.95757
5.79722
5.6362
5.47602
5.3185
5.16523
5.0176
4.87672
4.7435
4.61864
4.50282
4.3964
4.30004
4.21413
4.13945
4.07658
4.02679
3.99067
3.9723
3.95603
3.95651
3.96296
3.98125
4.01982
4.0731
4.1312
4.1866
4.23486
4.27354
4.30179
4.32044
4.33061
4.3333
4.33276
4.33087
4.32658
4.31789
4.30501
4.28857
4.2689
4.24618
4.22067
4.19252
4.16201
4.12955
4.09563
4.06043
4.02419
3.98699
3.94899
3.91025
3.87089
3.83097
3.79061
3.74988
3.70888
3.66768
3.62641
3.58512
3.54395
3.50294
3.46224
3.42193
3.38214
3.34302
3.30469
3.26739
3.23132
3.19681
3.16422
3.13406
3.10704
3.08354
3.06276
3.04701
3.0376
3.03787
3.04041
3.04829
3.06623
3.10301
3.14572
3.22355
7.57291
7.81013
8.15117
8.43223
8.52617
8.49548
8.38199
8.13545
7.82584
7.53965
7.29759
7.09437
6.91817
6.75722
6.60243
6.44821
6.29179
6.13255
5.97055
5.80794
5.64563
5.48537
5.32858
5.17655
5.03025
4.89051
4.75793
4.63305
4.51631
4.40834
4.30935
4.21984
4.14051
4.07201
4.01543
3.97171
3.94351
3.92214
3.90924
3.91142
3.92108
3.94388
3.98933
4.0409
4.09507
4.14489
4.18627
4.21748
4.23857
4.25
4.25323
4.25263
4.25051
4.24565
4.23585
4.22199
4.20483
4.18461
4.16153
4.13561
4.10717
4.07674
4.04466
4.01118
3.97652
3.94084
3.90429
3.86698
3.82902
3.79052
3.75156
3.71223
3.67264
3.63287
3.59303
3.55319
3.51349
3.47398
3.43484
3.39614
3.35807
3.32076
3.28446
3.24941
3.21595
3.18451
3.15563
3.13015
3.10832
3.08934
3.07569
3.07009
3.07107
3.0753
3.08675
3.11111
3.15438
3.21392
3.26878
3.35405
8.24036
8.67085
8.98687
9.06974
9.02747
8.88197
8.57713
8.23377
7.92368
7.66327
7.44644
7.26042
7.0929
6.93429
6.7783
6.62134
6.462
6.30019
6.13676
5.97188
5.80765
5.64524
5.4858
5.33036
5.17976
5.03481
4.89601
4.764
4.6391
4.52163
4.41201
4.31058
4.21794
4.13447
4.06105
3.9985
3.94767
3.91171
3.88279
3.86095
3.85609
3.85992
3.8726
3.90061
3.9467
3.99712
4.04702
4.09106
4.12586
4.14995
4.16371
4.16828
4.16773
4.16553
4.16039
4.14996
4.13553
4.11777
4.09709
4.07363
4.04772
4.01973
3.9899
3.95848
3.92568
3.89172
3.85679
3.82106
3.78465
3.7477
3.71026
3.67251
3.63446
3.59629
3.55804
3.51984
3.48179
3.44402
3.40666
3.36985
3.33381
3.29874
3.26496
3.23279
3.20276
3.17545
3.15182
3.13188
3.11528
3.10364
3.1023
3.10416
3.11075
3.12661
3.15922
3.20997
3.27094
3.34227
3.40131
3.47945
9.21742
9.61198
9.68558
9.62496
9.43238
9.04425
8.66013
8.32556
8.04724
7.81584
7.61782
7.44057
7.27442
7.11285
6.95192
6.78988
6.6262
6.46105
6.29505
6.12843
5.96264
5.79845
5.63681
5.47861
5.32461
5.17551
5.0318
4.89397
4.7623
4.63717
4.51894
4.40791
4.3045
4.20903
4.12208
4.04422
3.97636
3.91938
3.87545
3.84005
3.812
3.79287
3.79388
3.8
3.81618
3.84978
3.89487
3.94379
3.98933
4.02712
4.05472
4.07161
4.07846
4.0781
4.07624
4.07141
4.06142
4.04648
4.02799
4.0069
3.98367
3.95839
3.93118
3.90215
3.87155
3.83959
3.80654
3.77257
3.73789
3.70262
3.66689
3.63084
3.59453
3.55811
3.52164
3.48528
3.44911
3.41333
3.37805
3.34351
3.30994
3.27767
3.2471
3.21875
3.19333
3.17196
3.15412
3.14024
3.1322
3.13287
3.1365
3.1467
3.16869
3.21153
3.26716
3.33378
3.40307
3.47351
3.52545
3.58675
10.3578
10.4096
10.3143
10.0378
9.55294
9.10973
8.74408
8.44749
8.2025
7.99245
7.80405
7.62772
7.45723
7.28902
7.12119
6.95313
6.78461
6.61589
6.4472
6.27879
6.1113
5.94547
5.78196
5.62149
5.4647
5.31218
5.16442
5.02183
4.88464
4.75323
4.62792
4.50899
4.39679
4.2915
4.19364
4.10352
4.02188
3.94931
3.88675
3.83548
3.79487
3.75869
3.7326
3.72367
3.72576
3.73413
3.75367
3.7926
3.83642
3.88178
3.9221
3.9534
3.97382
3.98439
3.98481
3.98354
3.97957
3.97083
3.95526
3.93659
3.91571
3.89297
3.86839
3.84198
3.8139
3.7843
3.75346
3.72154
3.68882
3.65543
3.62161
3.58742
3.55305
3.51857
3.48412
3.44983
3.41585
3.38237
3.34959
3.3178
3.28734
3.25865
3.23234
3.20911
3.19044
3.17517
3.16377
3.16095
3.16272
3.1688
3.18423
3.21585
3.26493
3.3272
3.39678
3.46844
3.53391
3.59197
3.6283
3.67026
11.3078
11.1524
10.7279
10.1077
9.58476
9.17748
8.86013
8.60291
8.38264
8.18362
7.99617
7.81475
7.63643
7.45998
7.28478
7.1107
6.93752
6.76529
6.59393
6.42375
6.25436
6.08696
5.92178
5.75936
5.60017
5.44476
5.29347
5.14675
5.005
4.86845
4.73735
4.61185
4.49232
4.37895
4.27213
4.17209
4.07923
3.99401
3.91731
3.84976
3.79226
3.74634
3.70376
3.67102
3.64987
3.64946
3.6527
3.6634
3.68735
3.72737
3.77077
3.8123
3.84696
3.87181
3.88577
3.88948
3.88856
3.88547
3.87809
3.86338
3.8452
3.82468
3.80232
3.77834
3.75282
3.72585
3.69751
3.66799
3.63753
3.60633
3.57461
3.54255
3.5103
3.47801
3.44583
3.41393
3.38249
3.35176
3.32203
3.29369
3.26723
3.24327
3.22271
3.20702
3.19488
3.1868
3.18742
3.19106
3.20135
3.22348
3.26628
3.3224
3.38915
3.4615
3.5326
3.59653
3.6479
3.68631
3.70623
3.73201
11.982
11.5527
10.7174
10.0901
9.62465
9.28012
9.01069
8.7823
8.57467
8.37699
8.18436
7.99483
7.80792
7.62359
7.44181
7.26248
7.08522
6.90977
6.73585
6.56347
6.39244
6.22338
6.05661
5.89243
5.73111
5.57319
5.41888
5.26869
5.12278
4.98158
4.84529
4.71417
4.58846
4.46833
4.35409
4.24589
4.1441
4.049
3.96102
3.88069
3.80881
3.7458
3.69395
3.64656
3.60649
3.57952
3.5674
3.56842
3.57399
3.5885
3.61851
3.65804
3.70011
3.73757
3.76613
3.78405
3.79209
3.79169
3.78949
3.78375
3.77179
3.75463
3.73437
3.71243
3.6892
3.66473
3.63899
3.61209
3.5842
3.55551
3.52623
3.49657
3.46674
3.43694
3.40736
3.37823
3.34982
3.32246
3.29655
3.27266
3.25148
3.2339
3.22204
3.21247
3.21003
3.21203
3.2188
3.23522
3.26864
3.31851
3.3814
3.45254
3.52634
3.5963
3.65663
3.70394
3.7361
3.75665
3.76372
3.77792
12.3599
11.4495
10.6392
10.0881
9.70534
9.42178
9.18537
8.96977
8.76285
8.5599
8.35972
8.1625
7.96867
7.77847
7.59187
7.4085
7.22793
7.0496
6.87323
6.6986
6.5258
6.35458
6.18604
6.02011
5.85682
5.69658
5.53953
5.38616
5.23663
5.09137
4.95059
4.81457
4.68351
4.5576
4.43707
4.32205
4.21279
4.1095
4.01247
3.92206
3.83876
3.76318
3.69586
3.63885
3.58677
3.54163
3.50801
3.48736
3.48239
3.48462
3.49271
3.51137
3.54758
3.58721
3.62582
3.6581
3.68074
3.69307
3.69501
3.69392
3.69006
3.68132
3.66476
3.64552
3.62436
3.60194
3.57851
3.5542
3.52908
3.50319
3.47672
3.44983
3.42281
3.39588
3.36936
3.34355
3.31885
3.29576
3.27472
3.25684
3.24257
3.23474
3.22915
3.23005
3.23459
3.24657
3.27185
3.31625
3.37381
3.44211
3.51652
3.59061
3.65832
3.71453
3.75685
3.78505
3.80045
3.80738
3.8091
3.81348
12.2759
11.1861
10.5227
10.1105
9.81938
9.57587
9.35235
9.13766
8.92722
8.71969
8.51508
8.31389
8.11656
7.92326
7.73384
7.5478
7.36462
7.18381
7.00507
6.82816
6.65315
6.47998
6.30907
6.14117
5.97594
5.81348
5.65393
5.49765
5.3449
5.19604
5.05131
4.911
4.77531
4.64443
4.51855
4.39778
4.28233
4.1723
4.06794
3.96947
3.87721
3.79156