/*--------------------------------*- C++ -*----------------------------------*\
  =========                 |
  \\      /  F ield         | OpenFOAM: The Open Source CFD Toolbox
   \\    /   O peration     | Website:  https://openfoam.org
    \\  /    A nd           | Version:  10
     \\/     M anipulation  |
\*---------------------------------------------------------------------------*/
FoamFile
{
    format      ascii;
    class       volScalarField;
    location    "8.5";
    object      T;
}
// * * * * * * * * * * * * * * * * * * * * * * * * * * * * * * * * * * * * * //

dimensions      [0 0 0 1 0 0 0];

internalField   nonuniform List<scalar> 
5250
(
1.00001
1.00002
1.00005
1.00014
1.00034
1.00084
1.00213
1.005
1.01324
1.03131
1.08314
1.21734
1.58589
2.34535
2.71268
2.74271
2.73732
2.73924
2.75075
2.76663
2.77893
2.7874
2.79382
2.7994
2.80246
1.00001
1.00002
1.00005
1.00015
1.00032
1.0009
1.0019
1.00551
1.01184
1.03309
1.0794
1.21759
1.57712
2.33677
2.70927
2.74226
2.73675
2.73847
2.7499
2.76567
2.77787
2.78629
2.79267
2.79817
2.80107
1.00001
1.00002
1.00006
1.00012
1.00036
1.00076
1.00214
1.00474
1.01277
1.03028
1.08021
1.20907
1.56542
2.31423
2.70154
2.74101
2.73504
2.73615
2.74726
2.7629
2.77468
2.78321
2.78941
2.795
2.79786
1.00001
1.00002
1.00005
1.00014
1.0003
1.00085
1.00179
1.00518
1.01116
1.03107
1.07453
1.20373
1.54113
2.28161
2.68895
2.73925
2.73232
2.73233
2.7432
2.75795
2.77018
2.77718
2.78379
2.78843
2.79117
1.00001
1.00002
1.00005
1.00011
1.00032
1.00071
1.0019
1.00448
1.01139
1.02817
1.07235
1.19058
1.5137
2.23264
2.67133
2.73703
2.72859
2.727
2.73719
2.75169
2.76298
2.77096
2.77619
2.78136
2.78326
1.00001
1.00002
1.00005
1.00011
1.0003
1.00066
1.00178
1.00416
1.01068
1.02617
1.06744
1.17665
1.47707
2.16781
2.64711
2.73403
2.72365
2.71986
2.72932
2.74312
2.7536
2.76054
2.76575
2.76912
2.77131
1
1.00001
1.00005
1.00009
1.00029
1.00058
1.00171
1.00362
1.01012
1.02327
1.0623
1.15933
1.43374
2.08315
2.61508
2.72957
2.71674
2.71059
2.71944
2.73262
2.7424
2.74828
2.75185
2.75475
2.75475
1
1.00002
1.00003
1.0001
1.00021
1.00062
1.00131
1.00368
1.00825
1.02212
1.05343
1.14345
1.38077
1.97927
2.57334
2.72164
2.70639
2.69773
2.70611
2.71834
2.72752
2.73173
2.7331
2.73258
2.72915
1
1.00001
1.00003
1.00008
1.00022
1.00047
1.00133
1.00282
1.00808
1.01774
1.04879
1.12077
1.32935
1.85255
2.52031
2.70715
2.69076
2.68116
2.68955
2.70042
2.70865
2.71115
2.70918
2.70248
2.68732
1
1.00001
1.00003
1.00007
1.00019
1.0004
1.00117
1.00241
1.00708
1.01517
1.04208
1.1026
1.27897
1.7277
2.45776
2.68676
2.67005
2.6617
2.66872
2.67843
2.68454
2.68458
2.67631
2.65422
2.5981
1
1.00001
1.00002
1.00007
1.00014
1.00041
1.00087
1.00245
1.00545
1.0146
1.03466
1.09184
1.23968
1.64109
2.38822
2.66236
2.65493
2.64734
2.64799
2.65484
2.65798
2.65331
2.63422
2.58823
2.48326
1
1.00001
1.00002
1.00006
1.00013
1.00035
1.00077
1.00215
1.00462
1.01306
1.02941
1.08027
1.20586
1.55639
2.28124
2.62146
2.64462
2.63544
2.63058
2.6314
2.62971
2.61878
2.58942
2.52612
2.4179
1
1.00001
1.00002
1.00004
1.00012
1.00027
1.00073
1.00167
1.00432
1.01046
1.02633
1.06668
1.17605
1.4708
2.14639
2.56721
2.63547
2.62548
2.6153
2.61087
2.60308
2.5845
2.54975
2.48796
2.39302
1
1.00001
1.00001
1.00004
1.00009
1.00025
1.00057
1.00145
1.00357
1.00869
1.02209
1.05501
1.14459
1.387
1.98052
2.49636
2.62024
2.61155
2.59888
2.58859
2.57748
2.55537
2.51749
2.46046
2.38351
1
1.00001
1.00001
1.00003
1.00007
1.00021
1.00044
1.00123
1.00275
1.00728
1.01722
1.0446
1.11291
1.30305
1.78457
2.40456
2.59104
2.58896
2.57874
2.56515
2.55122
2.52925
2.49368
2.44029
2.3731
1
1
1.00001
1.00002
1.00007
1.00015
1.00039
1.00092
1.00228
1.00567
1.01371
1.03494
1.08794
1.23236
1.61111
2.29409
2.55096
2.56228
2.55352
2.54023
2.52524
2.50307
2.4716
2.42405
2.36437
1
1
1.00001
1.00002
1.00005
1.00013
1.0003
1.00074
1.00186
1.00437
1.01146
1.02696
1.07109
1.18291
1.48939
2.15008
2.49533
2.54105
2.53175
2.51961
2.50291
2.47938
2.45003
2.40847
2.35603
1
1
1.00001
1.00002
1.00004
1.00011
1.00022
1.00062
1.00137
1.00365
1.00853
1.02193
1.05424
1.14274
1.37787
1.95289
2.4106
2.51787
2.51295
2.49953
2.48323
2.4595
2.43065
2.39347
2.34778
1
1
1
1.00001
1.00003
1.00007
1.00019
1.00043
1.00115
1.00253
1.00699
1.01548
1.04214
1.10267
1.27656
1.71419
2.29705
2.481
2.48878
2.47799
2.46101
2.4393
2.4126
2.37893
2.33847
1
1
1
1.00001
1.00002
1.00006
1.00014
1.00034
1.0008
1.00209
1.00471
1.01269
1.02923
1.07766
1.19834
1.52485
2.15639
2.42984
2.46204
2.4546
2.43874
2.4179
2.39428
2.3651
2.32961
1
1
1
1.00001
1.00002
1.00004
1.00011
1.00024
1.00063
1.0015
1.00366
1.00923
1.02219
1.05712
1.14634
1.38851
1.9555
2.34738
2.43461
2.43239
2.41906
2.39865
2.37659
2.34999
2.31982
1
1
1
1
1.00001
1.00003
1.00008
1.00017
1.00049
1.00099
1.00293
1.00604
1.01722
1.03892
1.10544
1.2693
1.70309
2.22921
2.39497
2.40764
2.3988
2.38087
2.35982
2.33624
2.30805
1
1
1
1
1.00001
1.00002
1.00005
1.00014
1.00029
1.00086
1.00173
1.00503
1.0108
1.02947
1.0701
1.18687
1.4849
2.07065
2.33726
2.38055
2.37596
2.36204
2.34204
2.32133
2.29785
1
1
1
1
1.00001
1.00001
1.00004
1.00009
1.00024
1.00053
1.0014
1.00326
1.00816
1.02016
1.05017
1.12924
1.33986
1.84622
2.2434
2.34869
2.3536
2.34511
2.32748
2.30622
2.28459
1
1
1
1
1
1.00001
1.00002
1.00007
1.00014
1.00041
1.00086
1.00238
1.00528
1.01392
1.03275
1.08522
1.21587
1.56503
2.10174
2.30007
2.32723
2.32386
2.31051
2.29204
2.27237
1
1
1
1
1
1.00001
1.00002
1.00005
1.0001
1.00029
1.0006
1.00166
1.00365
1.00967
1.02264
1.05855
1.14759
1.38983
1.91967
2.23521
2.30179
2.30372
2.29412
2.27805
2.26223
1
1
1
1
1
1.00001
1.00001
1.00003
1.00007
1.00019
1.0004
1.00117
1.00236
1.00687
1.01464
1.04016
1.09617
1.25661
1.65263
2.11609
2.26413
2.2824
2.27778
2.26646
2.25341
1
1
1
1
1
1
1.00001
1.00002
1.00005
1.00012
1.00029
1.00073
1.00166
1.00444
1.00978
1.02652
1.06192
1.16415
1.42372
1.94155
2.20168
2.25607
2.26078
2.25615
2.25137
1
1
1
1
1
1
1.00001
1.00001
1.00003
1.00008
1.0002
1.00047
1.00114
1.00285
1.00663
1.01729
1.04056
1.10642
1.27171
1.68803
2.09613
2.22403
2.24594
2.24979
2.25461
1
1
1
1
1
1
1
1.00001
1.00002
1.00005
1.00013
1.00029
1.00079
1.0017
1.0047
1.01011
1.0276
1.0642
1.16973
1.4364
1.93112
2.1688
2.22666
2.24812
2.26623
1
1
1
1
1
1
1
1.00001
1.00001
1.00004
1.00007
1.00022
1.00045
1.00125
1.00272
1.0072
1.01667
1.0428
1.10576
1.27677
1.68489
2.07495
2.21119
2.25662
2.29419
1
1
1
1
1
1
1
1
1.00001
1.00002
1.00005
1.00014
1.0003
1.00077
1.00184
1.00444
1.01103
1.02648
1.06699
1.16971
1.43869
1.92807
2.17971
2.27556
2.34389
1
1
1
1
1
1
1
1
1.00001
1.00001
1.00004
1.00009
1.0002
1.00052
1.00115
1.00314
1.00672
1.01865
1.04184
1.11235
1.2821
1.70275
2.12815
2.31948
2.42253
1
1
1
1
1
1
1
1
1
1.00001
1.00002
1.00006
1.00013
1.00037
1.00077
1.00224
1.00459
1.01311
1.02887
1.07788
1.1936
1.50524
2.06069
2.39635
2.51388
1
1
1
1
1
1
1
1
1
1.00001
1.00002
1.00004
1.00011
1.00026
1.00065
1.00159
1.00379
1.00976
1.02301
1.06023
1.15273
1.40642
1.96572
2.49386
2.62595
1
1
1
1
1
1
1
1
1
1.00001
1.00002
1.00003
1.00009
1.00021
1.00054
1.00132
1.00319
1.00815
1.01951
1.05074
1.12957
1.34791
1.87655
2.57287
2.72149
1
1
1
1
1
1
1
1
1
1
1.00001
1.00003
1.00008
1.00019
1.0005
1.00119
1.00294
1.00741
1.01807
1.04647
1.12016
1.32367
1.84691
2.60205
2.78595
1
1
1
1
1
1
1
1
1
1.00001
1.00001
1.00003
1.00007
1.00018
1.00047
1.00109
1.00295
1.00658
1.01826
1.04279
1.11659
1.30968
1.82666
2.599
2.81219
1
1
1
1
1
1
1
1
1
1
1.00001
1.00003
1.00007
1.00019
1.00041
1.00118
1.00249
1.00726
1.01581
1.04425
1.10942
1.30231
1.80509
2.58266
2.81512
1
1
1
1
1
1
1
1
1
1
1.00001
1.00003
1.00008
1.00016
1.00047
1.00095
1.00286
1.00608
1.01717
1.0402
1.10975
1.29009
1.78663
2.56136
2.81074
1
1
1
1
1
1
1
1
1
1
1.00001
1.00003
1.00007
1.00017
1.00042
1.00105
1.00252
1.00656
1.01559
1.04106
1.10451
1.28397
1.766
2.54066
2.8039
1
1
1
1
1
1
1
1
1
1
1.00001
1.00002
1.00007
1.00016
1.00043
1.00099
1.00255
1.00624
1.0156
1.03953
1.10277
1.27589
1.74852
2.52074
2.79536
1
1
1
1
1
1
1
1
1
1
1.00001
1.00003
1.00006
1.00017
1.0004
1.00099
1.00251
1.00597
1.01578
1.03802
1.10121
1.26933
1.73194
2.5021
2.7852
1
1
1
1
1
1
1
1
1
1
1.00001
1.00002
1.00007
1.00014
1.00044
1.00089
1.00263
1.0057
1.01572
1.03709
1.09988
1.26278
1.71832
2.4853
2.77489
1
1
1
1
1
1
1
1
1
1
1.00001
1.00003
1.00007
1.00015
1.00042
1.00089
1.00263
1.00549
1.01581
1.03604
1.09875
1.2577
1.7044
2.4722
2.76544
1
1
1
1
1
1
1
1
1
1
1.00001
1.00003
1.00007
1.00015
1.00042
1.00089
1.00259
1.00544
1.01563
1.03554
1.09735
1.25365
1.68938
2.46375
2.75738
1
1
1
1
1
1
1
1
1
1
1.00001
1.00002
1.00007
1.00014
1.00041
1.00091
1.00245
1.00569
1.01482
1.03615
1.09503
1.25109
1.6744
2.45935
2.75081
1
1
1
1
1
1
1
1
1
1
1.00001
1.00003
1.00006
1.00017
1.00036
1.00101
1.00223
1.006
1.01408
1.03686
1.09249
1.25055
1.65965
2.4572
2.7454
1
1
1
1
1
1
1
1
1
1
1.00001
1.00003
1.00006
1.00016
1.00037
1.00097
1.00231
1.00576
1.01443
1.03591
1.09281
1.24791
1.65177
2.45487
2.74127
1
1
1
1
1
1
1
1
1
1
1.00001
1.00003
1.00006
1.00016
1.00038
1.00093
1.00237
1.00558
1.01478
1.03515
1.09339
1.24625
1.65018
2.45363
2.73857
2.35242
2.48626
2.75896
2.991
2.99801
2.95668
2.94195
2.92834
2.90747
2.88625
2.86731
2.85039
2.83085
2.8126
2.80097
2.79774
2.79766
2.80282
2.81439
2.83048
2.84883
2.8673
2.88408
2.90038
2.91428
2.92626
2.93643
2.94612
2.95264
2.96028
2.96591
2.96898
2.97157
2.97268
2.97302
2.9719
2.9697
2.96868
2.9667
2.96456
2.95961
2.95635
2.9497
2.94453
2.93756
2.93193
2.92456
2.91754
2.90963
2.90192
2.89341
2.88481
2.87662
2.8669
2.85832
2.84869
2.83965
2.83011
2.82059
2.81051
2.80113
2.79047
2.78073
2.76965
2.76012
2.7484
2.73898
2.72718
2.71739
2.70599
2.69573
2.6846
2.67423
2.663
2.65277
2.64145
2.63131
2.62005
2.60994
2.59879
2.58884
2.57765
2.5681
2.5567
2.54768
2.53609
2.52749
2.51599
2.50743
2.49647
2.48769
2.47745
2.46858
2.45902
2.45047
2.44168
2.43415
2.42687
2.42185
2.41748
2.36596
2.4617
2.59579
2.81755
2.95936
3.00593
3.06019
3.07216
3.0672
3.05305
3.0418
3.03376
3.02269
3.00786
2.99895
2.99792
3.00101
3.00366
3.0116
3.01862
3.02684
3.03389
3.03741
3.03886
3.03918
3.03777
3.03425
3.02933
3.02595
3.02131
3.01808
3.01117
3.00497
2.99681
2.98847
2.97954
2.97075
2.962
2.95269
2.94266
2.93227
2.92089
2.90984
2.89786
2.88659
2.87386
2.86306
2.8499
2.83854
2.82534
2.81379
2.80137
2.78964
2.77725
2.76597
2.75342
2.74227
2.72991
2.719
2.70665
2.69624
2.68374
2.67362
2.66125
2.65092
2.63896
2.6282
2.61666
2.60569
2.5944
2.58353
2.57237
2.56169
2.55074
2.54016
2.5295
2.51898
2.50861
2.49823
2.48803
2.47798
2.46781
2.45824
2.44804
2.43894
2.42884
2.41998
2.41027
2.40137
2.39224
2.38316
2.37465
2.36556
2.35764
2.34896
2.34188
2.33428
2.3288
2.32373
2.32136
2.35437
2.3833
2.46309
2.51924
2.63991
2.76201
2.91074
3.00147
3.05524
3.0671
3.07163
3.09071
3.09662
3.09699
3.09201
3.09385
3.10291
3.10589
3.10621
3.10428
3.10001
3.09249
3.08396
3.0729
3.06119
3.04802
3.0349
3.01918
3.00567
2.98849
2.9739
2.95648
2.94305
2.92518
2.91141
2.894
2.88003
2.86348
2.85008
2.83424
2.82122
2.80644
2.79347
2.77959
2.76685
2.75473
2.74167
2.72936
2.71651
2.70426
2.69196
2.68005
2.66812
2.65662
2.64509
2.63361
2.62252
2.61108
2.60027
2.58914
2.57831
2.56774
2.55668
2.54667
2.53546
2.52582
2.51465
2.50519
2.49416
2.48476
2.47387
2.46451
2.4537
2.44437
2.43368
2.42437
2.41389
2.40458
2.39446
2.38505
2.37542
2.36582
2.3567
2.34695
2.3382
2.32845
2.3198
2.31023
2.30144
2.29222
2.28337
2.27455
2.26585
2.25746
2.24924
2.24151
2.23434
2.22797
2.22319
2.21977
2.32979
2.32299
2.35435
2.38667
2.44288
2.51688
2.60064
2.71283
2.82407
2.93145
2.97883
3.02006
3.05085
3.07595
3.0866
3.08623
3.08278
3.07388
3.06636
3.05208
3.03403
3.01421
2.99236
2.9721
2.9519
2.93226
2.9123
2.89132
2.87023
2.84894
2.82837
2.80844
2.78941
2.77123
2.75374
2.73714
2.72092
2.70575
2.69069
2.67689
2.66316
2.65019
2.63775
2.62516
2.61411
2.60273
2.59236
2.581
2.57028
2.55929
2.54941
2.53875
2.5295
2.51898
2.51016
2.49981
2.49117
2.48107
2.47239
2.46253
2.45375
2.44408
2.43534
2.42575
2.41721
2.40765
2.39934
2.38976
2.38161
2.37206
2.36404
2.35462
2.34673
2.33746
2.32965
2.32042
2.31277
2.30356
2.29624
2.2871
2.28017
2.27111
2.26448
2.25555
2.24891
2.24026
2.23348
2.22533
2.21836
2.21074
2.20358
2.19643
2.18924
2.18255
2.17557
2.16952
2.16323
2.15846
2.15406
2.15221
2.31635
2.28431
2.28495
2.30338
2.3291
2.37366
2.41955
2.48189
2.54897
2.63002
2.72331
2.80419
2.87144
2.91961
2.95541
2.97157
2.96873
2.95522
2.93364
2.90543
2.87421
2.845
2.81793
2.79285
2.77035
2.74834
2.72895
2.70854
2.69048
2.67165
2.65555
2.63952
2.62581
2.61221
2.60022
2.58819
2.57748
2.56656
2.55686
2.54688
2.53772
2.52847
2.51954
2.51056
2.50218
2.49395
2.4865
2.4778
2.46993
2.46087
2.45353
2.44461
2.43752
2.42866
2.42156
2.4129
2.40572
2.39735
2.38996
2.38176
2.37406
2.36585
2.3578
2.34948
2.34113
2.33267
2.32399
2.31544
2.30646
2.29796
2.28873
2.28029
2.27085
2.26244
2.25301
2.24471
2.23559
2.22741
2.21866
2.21047
2.20201
2.19372
2.18544
2.17729
2.16919
2.16136
2.15334
2.14589
2.1379
2.13087
2.12299
2.11637
2.1087
2.10253
2.0953
2.08975
2.08333
2.07895
2.07443
2.07285
2.30774
2.26773
2.24662
2.24675
2.25764
2.28076
2.30956
2.34478
2.38745
2.43482
2.49125
2.55214
2.60814
2.66078
2.69339
2.71585
2.71196
2.69579
2.66869
2.63628
2.60684
2.58353
2.56353
2.55057
2.5377
2.52974
2.51865
2.51138
2.50181
2.49579
2.48827
2.4834
2.47757
2.47338
2.46836
2.46429
2.45962
2.45548
2.45081
2.44646
2.44185
2.43726
2.4326
2.42733
2.42252
2.41735
2.41276
2.40684
2.40115
2.39423
2.38826
2.3813
2.37507
2.36803
2.3614
2.35433
2.3473
2.34029
2.33298
2.32607
2.31862
2.31179
2.30427
2.29743
2.28984
2.28289
2.27523
2.2681
2.26031
2.25297
2.24506
2.23746
2.22952
2.22167
2.21379
2.20564
2.19796
2.18948
2.18186
2.17302
2.16565
2.15673
2.14958
2.14073
2.13368
2.12506
2.11803
2.10974
2.10268
2.09476
2.0877
2.08019
2.07323
2.06616
2.05947
2.05299
2.04696
2.04156
2.03719
2.03448
2.30258
2.2589
2.22899
2.21304
2.21117
2.21859
2.23477
2.25735
2.2847
2.31834
2.35614
2.39977
2.4397
2.47902
2.50336
2.51806
2.5135
2.49858
2.47407
2.44527
2.42385
2.40614
2.39948
2.39663
2.39844
2.4
2.40164
2.40228
2.40266
2.40239
2.40214
2.4015
2.40087
2.39957
2.39796
2.39585
2.39371
2.39112
2.38839
2.38536
2.38225
2.37886
2.37524
2.37084
2.36661
2.3621
2.35801
2.35296
2.34776
2.34155
2.33577
2.32953
2.32361
2.31738
2.31116
2.3048
2.2982
2.29164
2.28466
2.27784
2.27049
2.26342
2.25577
2.24853
2.24068
2.23333
2.22537
2.21791
2.20988
2.20233
2.19428
2.18661
2.17869
2.17087
2.16318
2.15515
2.14761
2.13933
2.13212
2.12376
2.11679
2.10845
2.10163
2.09347
2.0867
2.0789
2.0721
2.06476
2.0579
2.05107
2.04419
2.03787
2.03108
2.02526
2.01875
2.01353
2.00762
2.00341
1.99905
1.99745
2.29884
2.25505
2.22039
2.19689
2.18342
2.18112
2.18633
2.19884
2.21885
2.24507
2.27624
2.31142
2.34329
2.37562
2.39326
2.4024
2.39629
2.38044
2.35223
2.32817
2.30866
2.29654
2.28733
2.28729
2.29228
2.30077
2.30836
2.31465
2.3185
2.32086
2.32258
2.32326
2.32425
2.32413
2.32378
2.323
2.3221
2.32041
2.31879
2.31626
2.31392
2.31072
2.30766
2.30351
2.29989
2.29572
2.29221
2.28778
2.28318
2.2777
2.27217
2.26647
2.26056
2.25485
2.24861
2.24277
2.23622
2.23022
2.22345
2.21733
2.21046
2.20428
2.19736
2.19109
2.18411
2.17772
2.17061
2.16405
2.15682
2.15002
2.14273
2.13567
2.12841
2.12104
2.11373
2.10612
2.09892
2.09117
2.08405
2.07627
2.06916
2.06146
2.05429
2.04681
2.03959
2.03243
2.02519
2.01838
2.01117
2.00473
1.99761
1.99153
1.98459
1.97891
1.9723
1.96718
1.96121
1.95707
1.95265
1.95103
2.29449
2.2526
2.21651
2.18886
2.16966
2.15911
2.15829
2.16487
2.18055
2.20549
2.23132
2.26433
2.29364
2.32165
2.33369
2.33799
2.3286
2.30694
2.27828
2.25078
2.2315
2.21925
2.2107
2.20754
2.20959
2.21676
2.22654
2.23591
2.24334
2.24886
2.25269
2.25557
2.2578
2.25939
2.26055
2.26115
2.26144
2.26119
2.26063
2.25947
2.25845
2.25635
2.25474
2.25186
2.24965
2.24625
2.2439
2.24023
2.2371
2.23264
2.22867
2.2239
2.21951
2.21465
2.20984
2.20474
2.19942
2.19402
2.18826
2.18258
2.17647
2.17053
2.16414
2.15796
2.1513
2.14491
2.13804
2.13143
2.12441
2.11761
2.11054
2.10355
2.0964
2.08916
2.08211
2.07466
2.06768
2.06002
2.05312
2.04533
2.03849
2.03068
2.02386
2.01616
2.00933
2.00185
1.99497
1.98781
1.98089
1.9741
1.9672
1.96082
1.95406
1.94811
1.94167
1.93628
1.93049
1.92602
1.92175
1.91964
2.28978
2.25076
2.21531
2.18583
2.16432
2.14982
2.14581
2.15086
2.16647
2.19002
2.21517
2.24766
2.27972
2.29709
2.3058
2.30267
2.28821
2.26064
2.22918
2.20183
2.1812
2.1668
2.15966
2.15381
2.15289
2.15595
2.16332
2.17319
2.18321
2.19239
2.19969
2.20585
2.20996
2.21381
2.2161
2.2188
2.22023
2.22193
2.22273
2.22349
2.22338
2.22303
2.22231
2.22094
2.21919
2.21722
2.21548
2.21343
2.21097
2.20785
2.20416
2.20022
2.19573
2.19127
2.18622
2.18138
2.17586
2.17069
2.16482
2.15937
2.15325
2.14753
2.14117
2.13516
2.1286
2.12229
2.11561
2.10905
2.10234
2.09554
2.08884
2.08175
2.0752
2.06789
2.06148
2.05395
2.04761
2.03992
2.03357
2.02584
2.01943
2.01179
2.0053
1.99788
1.9913
1.98419
1.97757
1.97081
1.96418
1.95782
1.95124
1.94529
1.93889
1.93339
1.92731
1.92235
1.91691
1.91286
1.90888
1.90703
2.28489
2.24882
2.21544
2.18626
2.16462
2.14978
2.14651
2.15411
2.1699
2.1924
2.22056
2.25401
2.27992
2.28884
2.29087
2.28123
2.25903
2.22857
2.19894
2.1728
2.15175
2.13625
2.12611
2.12
2.11523
2.11453
2.11713
2.12329
2.1321
2.14247
2.15265
2.16074
2.16781
2.17236
2.17675
2.17918
2.18196
2.18337
2.18486
2.18548
2.1858
2.18553
2.1849
2.18353
2.18216
2.18002
2.17825
2.17594
2.17349
2.17032
2.16673
2.1628
2.15853
2.15419
2.14944
2.14483
2.13973
2.13492
2.12952
2.12449
2.11878
2.11347
2.10745
2.10181
2.09551
2.08952
2.083
2.07669
2.07004
2.06344
2.05677
2.04999
2.04336
2.03639
2.02976
2.02265
2.016
2.00884
2.00214
1.995
1.98824
1.98118
1.97434
1.96743
1.96056
1.95384
1.947
1.94054
1.93378
1.92764
1.92102
1.91529
1.9089
1.90367
1.89771
1.8932
1.888
1.88449
1.88078
1.87941
2.27863
2.2463
2.21628
2.1891
2.17006
2.1585
2.15959
2.17162
2.18861
2.21239
2.24552
2.27418
2.28665
2.29045
2.28525
2.26852
2.24018
2.20999
2.18267
2.15884
2.1385
2.12157
2.10873
2.09842
2.09325
2.08843
2.08734
2.08891
2.09371
2.10082
2.11035
2.12056
2.12961
2.13695
2.14291
2.14719
2.15084
2.1533
2.1555
2.15715
2.15813
2.15896
2.15886
2.15843
2.1577
2.15622
2.15507
2.15367
2.15219
2.15006
2.14743
2.14434
2.14068
2.13681
2.13246
2.12817
2.12341
2.11886
2.11379
2.10899
2.10359
2.09846
2.09272
2.08722
2.08116
2.07526
2.06898
2.06271
2.05633
2.04982
2.04349
2.03676
2.03046
2.0235
2.01718
2.01005
2.0037
1.99651
1.99012
1.98294
1.9765
1.96941
1.96292
1.95594
1.9494
1.9426
1.93605
1.92949
1.92298
1.91675
1.91036
1.90456
1.89839
1.89318
1.88745
1.88304
1.87811
1.87472
1.87151
1.87017
2.27047
2.24362
2.21757
2.19581
2.18025
2.17775
2.18399
2.19808
2.21829
2.24897
2.27852
2.29216
2.29693
2.29414
2.28141
2.25631
2.22842
2.20159
2.17719
2.15549
2.13516
2.11782
2.10191
2.08975
2.0796
2.07334
2.0692
2.06759
2.06788
2.07042
2.07583
2.08413
2.09348
2.10268
2.11038
2.11705
2.12201
2.12588
2.12873
2.13045
2.13203
2.13248
2.13304
2.13286
2.13231
2.13122
2.13005
2.12885
2.12732
2.12547
2.12281
2.11982
2.11614
2.11234
2.10794
2.10364
2.09879
2.0942
2.08905
2.08424
2.07882
2.0737
2.06795
2.06244
2.05636
2.05044
2.04411
2.03792
2.03161
2.02527
2.01903
2.01253
2.00634
1.99967
1.99348
1.98664
1.98039
1.97346
1.96711
1.96018
1.95373
1.94689
1.9404
1.93372
1.92723
1.92078
1.91433
1.90821
1.90182
1.8961
1.88988
1.88464
1.87875
1.87417
1.8689
1.86521
1.86082
1.85844
1.85608
1.85554
2.26313
2.23959
2.22063
2.2045
2.20023
2.20415
2.21622
2.23328
2.26135
2.28887
2.30368
2.30801
2.30596
2.29518
2.27394
2.24845
2.22377
2.2008
2.17871
2.15849
2.13821
2.12052
2.10279
2.08886
2.07541
2.06637
2.05823
2.05437
2.05112
2.05031
2.05099
2.05436
2.06074
2.06933
2.07806
2.08643
2.09311
2.09895
2.10262
2.10608
2.10765
2.10936
2.10971
2.11014
2.1098
2.10908
2.10795
2.10685
2.10569
2.1043
2.10211
2.09952
2.09626
2.09279
2.08871
2.08467
2.08009
2.07572
2.07082
2.0662
2.06098
2.05607
2.0505
2.04522
2.03934
2.03364
2.02759
2.02159
2.01552
2.00926
2.00323
1.99676
1.99074
1.98415
1.97809
1.97144
1.96526
1.95862
1.95232
1.94572
1.93931
1.93279
1.92633
1.91992
1.91347
1.90722
1.90086
1.89483
1.88864
1.88299
1.87703
1.87198
1.86643
1.86224
1.85737
1.85422
1.85057
1.84913
1.84777
1.84763
2.25497
2.23885
2.22679
2.22277
2.22628
2.23767
2.25407
2.27984
2.30576
2.31938
2.32355
2.32144
2.31136
2.2914
2.2685
2.24586
2.22459
2.20424
2.18401
2.1646
2.14475
2.12659
2.10836
2.09283
2.07773
2.06565
2.05453
2.04644
2.03983
2.03669
2.03391
2.03384
2.03535
2.03996
2.04729
2.05549
2.0637
2.07039
2.07646
2.08035
2.08367
2.08537
2.08658
2.08716
2.0871
2.0867
2.08592
2.08495
2.08385
2.08253
2.08062
2.07823
2.07516
2.07187
2.06793
2.06405
2.05957
2.05535
2.05054
2.04605
2.04099
2.03622
2.03087
2.0257
2.02003
2.01447
2.00865
2.0028
1.99692
1.99085
1.98497
1.97873
1.97283
1.96645
1.9605
1.95399
1.94796
1.94139
1.93525
1.92874
1.92251
1.91613
1.90986
1.9037
1.89745
1.89153
1.88536
1.87977
1.87375
1.8686
1.86291
1.85838
1.85338
1.84966
1.84559
1.8431
1.8409
1.84049
1.84074
1.84029
2.24951
2.24061
2.24056
2.24581
2.25805
2.27632
2.30114
2.32521
2.33655
2.34016
2.33757
2.3272
2.30838
2.28713
2.26654
2.2474
2.22881
2.21037
2.19167
2.17236
2.15312
2.13438
2.11591
2.09911
2.08271
2.06841
2.05517
2.04381
2.03423
2.02658
2.02149
2.01831
2.01675
2.01692
2.01952
2.02509
2.03191
2.03946
2.04634
2.05219
2.0569
2.05976
2.0622
2.06304
2.06381
2.06365
2.06308
2.06223
2.06111
2.06012
2.05859
2.05668
2.05405
2.05117
2.04761
2.04406
2.03987
2.0359
2.03125
2.02693
2.02192
2.01726
2.01191
2.00685
2.00121
1.99588
1.99009
1.98454
1.9787
1.97296
1.96719
1.96126
1.95554
1.94947
1.94369
1.93759
1.93162
1.92562
1.91939
1.91352
1.90712
1.90134
1.89493
1.88921
1.88295
1.87732
1.87135
1.86592
1.86042
1.85531
1.85058
1.84608
1.84235
1.83868
1.8364
1.83448
1.83454
1.83501
1.83665
1.83627
2.24866
2.25036
2.25964
2.27361
2.29567
2.32103
2.3455
2.35571
2.35914
2.35528
2.34298
2.3238
2.30357
2.28509
2.26737
2.25107
2.23431
2.21724
2.19904
2.18036
2.16137
2.14249
2.1239
2.10606
2.08895
2.07275
2.05802
2.04378
2.03219
2.02104
2.01293
2.00613
2.00252
1.9995
1.99882
1.99916
2.00267
2.00856
2.01513
2.02213
2.02764
2.03278
2.03572
2.03851
2.0393
2.04039
2.0402
2.03967
2.03874
2.03788
2.03654
2.03505
2.03264
2.03014
2.02671
2.02346
2.01929
2.01553
2.01085
2.00675
2.00168
1.99728
1.99188
1.98712
1.98162
1.97651
1.97103
1.96557
1.96017
1.95442
1.9491
1.94317
1.93784
1.93184
1.92638
1.92039
1.91475
1.90877
1.90296
1.89704
1.89111
1.88535
1.87937
1.87388
1.86792
1.86281
1.85705
1.85235
1.84712
1.84296
1.83864
1.83525
1.83199
1.82983
1.82864
1.82876
1.8296
1.83123
1.83406
1.83588
2.2542
2.26752
2.28295
2.31143
2.34032
2.36497
2.37357
2.37639
2.37078
2.35661
2.33771
2.31861
2.30082
2.28505
2.26967
2.25476
2.23913
2.22272
2.20498
2.18688
2.16794
2.1494
2.13054
2.11253
2.09478
2.07775
2.06184
2.04602
2.03261
2.01875
2.00832
1.99794
1.99087
1.98514
1.98206
1.97902
1.97892
1.97989
1.98408
1.98957
1.99635
2.00195
2.00754
2.01106
2.0142
2.0155
2.01656
2.01629
2.01542
2.01473
2.01335
2.01228
2.01011
2.00809
2.005
2.00217
1.99837
1.99487
1.99048
1.98642
1.98162
1.97708
1.97202
1.96717
1.96203
1.95691
1.95176
1.94644
1.94129
1.93582
1.93063
1.92508
1.91981
1.91419
1.90888
1.90318
1.89787
1.89209
1.8868
1.8809
1.87568
1.86974
1.86458
1.85883
1.85375
1.84843
1.84357
1.83895
1.83457
1.83097
1.82745
1.82488
1.82274
1.82231
1.82264
1.82373
1.82572
1.83023
1.83594
1.84019
2.26872
2.28876
2.32193
2.35574
2.38129
2.3909
2.39382
2.38658
2.37061
2.35059
2.33127
2.31452
2.29941
2.28534
2.27178
2.25749
2.24272
2.22658
2.2098
2.19185
2.17376
2.15505
2.13659
2.11818
2.10009
2.08242
2.0652
2.04864
2.03311
2.01823
2.00498
1.99261
1.98251
1.97383
1.96774
1.96275
1.95978
1.95747
1.95755
1.95923
1.96367
1.96967
1.97529
1.98105
1.98506
1.9887
1.99028
1.99162
1.99144
1.99087
1.98974
1.98892
1.9872
1.98567
1.98284
1.98039
1.97675
1.97363
1.96938
1.9657
1.96094
1.9568
1.95178
1.94734
1.94219
1.93749
1.9323
1.92746
1.92224
1.91733
1.91204
1.90707
1.90168
1.89668
1.89121
1.88617
1.88069
1.87556
1.87016
1.86488
1.85964
1.85427
1.84925
1.84398
1.8393
1.83438
1.83027
1.82607
1.82291
1.81973
1.81762
1.81599
1.81604
1.81687
1.81821
1.82139
1.82545
1.83359
1.84262
1.84843
2.29244
2.33198
2.3688
2.39732
2.40729
2.40902
2.40034
2.38274
2.36162
2.34238
2.32589
2.31156
2.29871
2.28576
2.27302
2.25922
2.24477
2.22893
2.21242
2.19484
2.17699
2.15856
2.14018
2.12169
2.10342
2.08542
2.06792
2.05067
2.03406
2.01816
2.00309
1.98949
1.97661
1.96594
1.9562
1.94915
1.94305
1.93859
1.93542
1.93422
1.93443
1.9371
1.94209
1.94792
1.95369
1.9586
1.96241
1.96498
1.96639
1.96656
1.96603
1.96517
1.96399
1.96255
1.9603
1.95791
1.95485
1.95179
1.94816
1.94447
1.94033
1.93609
1.93168
1.9271
1.92244
1.91768
1.91283
1.90803
1.90309
1.89828
1.89327
1.88844
1.88333
1.87855
1.87331
1.86863
1.86329
1.8587
1.85335
1.84878
1.84358
1.83902
1.83409
1.82973
1.82522
1.82135
1.81761
1.81465
1.81201
1.81005
1.80914
1.80939
1.81043
1.81246
1.81564
1.82243
1.83004
1.84072
1.85138
1.85741
2.34035
2.38345
2.41072
2.42143
2.4227
2.41287
2.39297
2.37147
2.35173
2.33552
2.3217
2.30915
2.29728
2.28504
2.27243
2.2589
2.24448
2.22905
2.21279
2.19571
2.17814
2.16015
2.14196
2.12369
2.10554
2.08727
2.06942
2.0515
2.03436
2.01758
2.00146
1.98663
1.97205
1.95967
1.94738
1.9379
1.92889
1.92281
1.91659
1.91316
1.9105
1.91053
1.9115
1.91518
1.92068
1.92624
1.93193
1.93623
1.93953
1.94117
1.94181
1.94119
1.94055
1.93934
1.938
1.93591
1.93343
1.93049
1.9273
1.92371
1.91998
1.91585
1.91172
1.90717
1.90283
1.89804
1.89364
1.88869
1.88436
1.87928
1.87504
1.86988
1.86563
1.86052
1.85612
1.85121
1.84663
1.84193
1.83726
1.83273
1.82812
1.82382
1.81946
1.81557
1.81173
1.80861
1.80578
1.80372
1.80213
1.80182
1.80255
1.80407
1.80643
1.81147
1.81791
1.82824
1.83842
1.84966
1.85986
1.86484
2.39788
2.42663
2.43759
2.43565
2.42271
2.40041
2.37862
2.35932
2.34301
2.32911
2.31701
2.30556
2.29422
2.28261
2.27017
2.2568
2.24243
2.22724
2.21126
2.19469
2.1775
2.15997
2.14211
2.12405
2.10599
2.08765
2.06966
2.05155
2.03391
2.01668
1.99995
1.98402
1.96878
1.95454
1.9414
1.9293
1.91892
1.90961
1.90242
1.89595
1.89099
1.88796
1.8871
1.88736
1.88949
1.89421
1.89994
1.90581
1.91083
1.9148
1.91721
1.91842
1.91824
1.91759
1.91649
1.91517
1.9129
1.91036
1.9071
1.90397
1.9002
1.8967
1.89254
1.88864
1.88416
1.87993
1.87532
1.87093
1.86637
1.86188
1.85747
1.85285
1.84855
1.8438
1.83955
1.83475
1.83054
1.82582
1.8217
1.8172
1.81326
1.80918
1.8056
1.80227
1.79946
1.79725
1.79563
1.79457
1.7948
1.79599
1.79767
1.80124
1.80651
1.81542
1.82504
1.83675
1.84723
1.85737
1.86546
1.86867
2.45831
2.46728
2.46102
2.44123
2.4134
2.38851
2.36784
2.35124
2.33706
2.32499
2.3136
2.30249
2.29105
2.27878
2.26617
2.25236
2.23839
2.22317
2.20786
2.19152
2.17496
2.15782
2.1403
2.12249
2.10435
2.08618
2.06804
2.05007
2.03246
2.01507
1.99805
1.98172
1.96579
1.95102
1.93663
1.92367
1.9113
1.90062
1.89102
1.88317
1.87633
1.87082
1.86711
1.86568
1.86588
1.86695
1.87052
1.876
1.88189
1.88751
1.8921
1.89527
1.89685
1.89702
1.89646
1.89556
1.89434
1.89229
1.88952
1.88645
1.88302
1.87958
1.87569
1.87197
1.86759
1.86374
1.85898
1.8551
1.85017
1.84627
1.84143
1.83746
1.83284
1.82883
1.82439
1.82037
1.81607
1.81204
1.80798
1.80408
1.80039
1.79695
1.7939
1.79146
1.78955
1.78838
1.78793
1.78858
1.78995
1.79281
1.79658
1.80406
1.81268
1.82387
1.83458
1.84566
1.85476
1.86211
1.86753
1.86897
2.51553
2.497
2.46675
2.43218
2.40284
2.38017
2.36239
2.34817
2.33553
2.32377
2.31228
2.30049
2.28868
2.27595
2.26297
2.24882
2.23444
2.21907
2.20364
2.18757
2.17135
2.15464
2.13755
2.12003
2.10236
2.08444
2.06662
2.04865
2.03093
2.01351
1.99646
1.98016
1.9641
1.94905
1.93427
1.92063
1.90743
1.89537
1.88432
1.87472
1.86658
1.85964
1.85353
1.84941
1.84735
1.84747
1.84805
1.85031
1.85499
1.86094
1.86673
1.87199
1.8758
1.87824
1.87894
1.87869
1.87793
1.87644
1.87456
1.87151
1.86859
1.86494
1.86178
1.85782
1.85433
1.85009
1.84622
1.84185
1.83768
1.83327
1.82899
1.82463
1.82044
1.81616
1.8121
1.80794
1.804
1.80006
1.7964
1.7929
1.78974
1.78702
1.78487
1.78345
1.78251
1.78267
1.78365
1.78559
1.78854
1.79457
1.8021
1.81267
1.82335
1.8347
1.8448
1.85339
1.85997
1.86382
1.86689
1.86667
2.5912
2.54279
2.48319
2.44066
2.40958
2.38687
2.36894
2.35401
2.34009
2.32684
2.31373
2.30065
2.28773
2.27452
2.26098
2.24671
2.23194
2.21649
2.20084
2.18472
2.16842
2.15174
2.1349
2.11767
2.10041
2.08271
2.06529
2.0476
2.0304
2.01326
1.99665
1.98043
1.96464
1.94949
1.93469
1.92068
1.90719
1.8947
1.88299
1.87224
1.86279
1.85441
1.84758
1.84099
1.83622
1.83301
1.83278
1.83326
1.83496
1.83859
1.84436
1.85018
1.85611
1.8607
1.8637
1.86531
1.86527
1.86452
1.86324
1.8614
1.85875
1.85546
1.85208
1.84832
1.84464
1.84061
1.83662
1.83237
1.82814
1.8238
1.81946
1.81517
1.81086
1.80672
1.80263
1.79866
1.79495
1.79126
1.78809
1.78494
1.78268
1.78061
1.77969
1.77904
1.77942
1.78066
1.7831
1.78699
1.7939
1.80266
1.81373
1.82448
1.83566
1.84491
1.8529
1.85822
1.86178
1.86325
1.86422
1.8632
2.66251
2.5902
2.52427
2.47433
2.43849
2.41254
2.39161
2.37341
2.35662
2.34048
2.32467
2.30928
2.2944
2.2798
2.26508
2.25009
2.23455
2.21879
2.20262
2.18643
2.16994
2.1532
2.13653
2.11926
2.10241
2.08485
2.06799
2.05063
2.03403
2.01722
2.00107
1.98497
1.96943
1.9542
1.93953
1.92541
1.91193
1.89911
1.88699
1.87571
1.86517
1.85578
1.84738
1.84014
1.83387
1.82873
1.82554
1.82455
1.82471
1.82592
1.82847
1.83304
1.83837
1.84472
1.84943
1.85335
1.85526
1.8554
1.8546
1.85363
1.85175
1.84928
1.84602
1.84245
1.83865
1.83474
1.83067
1.82665
1.82229
1.81816
1.81367
1.80944
1.80499
1.80084
1.79664
1.79288
1.78916
1.78605
1.78314
1.78097
1.7795
1.77864
1.77869
1.77924
1.78061
1.78346
1.78927
1.79652
1.80681
1.81709
1.82862
1.83854
1.8477
1.85429
1.85924
1.86173
1.8629
1.86289
1.86279
1.86094
2.72318
2.64163
2.57728
2.52973
2.49267
2.46209
2.43567
2.41201
2.3893
2.36792
2.34791
2.32932
2.31201
2.29573
2.27936
2.26323
2.24651
2.23003
2.21301
2.19645
2.17944
2.16263
2.14558
2.12856
2.11156
2.09455
2.07757
2.06084
2.04411
2.02783
2.01157
1.99593
1.98033
1.96555
1.95086
1.93707
1.92349
1.91068
1.89828
1.88649
1.87528
1.86487
1.85522
1.84682
1.83927
1.83278
1.82717
1.82359
1.82183
1.82201
1.8232
1.82559
1.82823
1.83321
1.8383
1.84344
1.84748
1.84954