/*--------------------------------*- C++ -*----------------------------------*\
  =========                 |
  \\      /  F ield         | OpenFOAM: The Open Source CFD Toolbox
   \\    /   O peration     | Website:  https://openfoam.org
    \\  /    A nd           | Version:  10
     \\/     M anipulation  |
\*---------------------------------------------------------------------------*/
FoamFile
{
    format      ascii;
    class       volVectorField;
    location    "8.5";
    object      U;
}
// * * * * * * * * * * * * * * * * * * * * * * * * * * * * * * * * * * * * * //

dimensions      [0 1 -1 0 0 0 0];

internalField   nonuniform List<vector> 
5250
(
(2.99999 2.81105e-08 0)
(2.99998 -3.30233e-08 0)
(2.99995 5.37809e-07 0)
(2.99988 -3.63553e-07 0)
(2.99972 3.84828e-06 0)
(2.99929 -7.85797e-07 0)
(2.99827 2.06034e-05 0)
(2.99566 6.28657e-06 0)
(2.98934 0.000102707 0)
(2.97311 0.000106371 0)
(2.93079 0.000517764 0)
(2.8122 0.00102549 0)
(2.4647 0.00327157 0)
(1.50673 0.00928342 0)
(0.668038 0.0223434 0)
(0.543179 0.0229724 0)
(0.567011 0.0237466 0)
(0.558425 0.0253742 0)
(0.504501 0.0271751 0)
(0.418284 0.0292296 0)
(0.336858 0.0317277 0)
(0.268133 0.0346278 0)
(0.198474 0.0377146 0)
(0.119318 0.0413537 0)
(0.0523243 0.0465642 0)
(2.99999 6.14072e-08 0)
(2.99998 1.45921e-07 0)
(2.99995 1.06912e-06 0)
(2.99989 1.30311e-06 0)
(2.99972 7.84196e-06 0)
(2.9993 7.83474e-06 0)
(2.99827 5.04961e-05 0)
(2.99573 4.89373e-05 0)
(2.98942 0.000293337 0)
(2.97347 0.000389355 0)
(2.93149 0.0015355 0)
(2.81466 0.00332448 0)
(2.47118 0.0100565 0)
(1.52222 0.0287849 0)
(0.677527 0.0677608 0)
(0.541595 0.0663723 0)
(0.566197 0.0658278 0)
(0.558255 0.0683964 0)
(0.504361 0.0713988 0)
(0.418298 0.0751137 0)
(0.336826 0.0794743 0)
(0.267492 0.084159 0)
(0.196816 0.0885682 0)
(0.116343 0.092912 0)
(0.0489176 0.0972971 0)
(2.99999 5.83242e-08 0)
(2.99998 3.6051e-07 0)
(2.99996 1.24436e-06 0)
(2.99989 3.57343e-06 0)
(2.99972 9.15557e-06 0)
(2.99932 2.36142e-05 0)
(2.9983 5.80037e-05 0)
(2.99587 0.000145088 0)
(2.98962 0.000358743 0)
(2.97415 0.000896769 0)
(2.93324 0.00227718 0)
(2.81928 0.00603185 0)
(2.48607 0.0168396 0)
(1.55575 0.0492475 0)
(0.699769 0.116965 0)
(0.539857 0.112289 0)
(0.566826 0.110289 0)
(0.56096 0.115035 0)
(0.507708 0.120728 0)
(0.422468 0.128021 0)
(0.3413 0.13612 0)
(0.271485 0.14464 0)
(0.199797 0.152835 0)
(0.117862 0.160402 0)
(0.0485468 0.166169 0)
(3 8.36865e-08 0)
(2.99998 4.91947e-07 0)
(2.99996 1.83977e-06 0)
(2.99989 4.88146e-06 0)
(2.99973 1.34764e-05 0)
(2.99934 3.32745e-05 0)
(2.99838 8.2677e-05 0)
(2.99598 0.000207171 0)
(2.99004 0.000504221 0)
(2.97507 0.00127066 0)
(2.93577 0.00321203 0)
(2.82679 0.00847201 0)
(2.50739 0.0236953 0)
(1.60878 0.0689952 0)
(0.733447 0.167109 0)
(0.536668 0.157507 0)
(0.568621 0.153596 0)
(0.566687 0.160825 0)
(0.514682 0.169481 0)
(0.430904 0.180698 0)
(0.350307 0.192884 0)
(0.280235 0.20576 0)
(0.207456 0.218473 0)
(0.12329 0.230036 0)
(0.0504195 0.237681 0)
(3 1.15181e-07 0)
(2.99999 6.75841e-07 0)
(2.99996 2.35835e-06 0)
(2.9999 6.54447e-06 0)
(2.99975 1.74793e-05 0)
(2.99938 4.20549e-05 0)
(2.99845 0.000112579 0)
(2.99622 0.000252024 0)
(2.9905 0.000694789 0)
(2.97641 0.00156878 0)
(2.93922 0.0042337 0)
(2.83642 0.010803 0)
(2.53667 0.0304433 0)
(1.68037 0.0881695 0)
(0.779262 0.218904 0)
(0.531782 0.202985 0)
(0.571755 0.19638 0)
(0.57557 0.205894 0)
(0.525234 0.217377 0)
(0.443422 0.232505 0)
(0.363643 0.249031 0)
(0.293444 0.266753 0)
(0.219467 0.284734 0)
(0.132146 0.301307 0)
(0.0541695 0.31177 0)
(3 1.18846e-07 0)
(2.99999 8.28759e-07 0)
(2.99996 2.61645e-06 0)
(2.99991 8.11394e-06 0)
(2.99976 1.95658e-05 0)
(2.99942 5.3513e-05 0)
(2.99855 0.00012534 0)
(2.99647 0.000327503 0)
(2.99114 0.000784442 0)
(2.97801 0.00200612 0)
(2.94351 0.00499316 0)
(2.84854 0.0132508 0)
(2.57254 0.0367072 0)
(1.77292 0.106516 0)
(0.838342 0.272237 0)
(0.52652 0.248702 0)
(0.577271 0.238813 0)
(0.588561 0.250571 0)
(0.540199 0.264856 0)
(0.460894 0.284071 0)
(0.382258 0.305495 0)
(0.312196 0.329063 0)
(0.236985 0.353794 0)
(0.14564 0.377554 0)
(0.0604241 0.393217 0)
(3 1.27112e-07 0)
(2.99999 9.57926e-07 0)
(2.99997 2.97527e-06 0)
(2.99991 9.38186e-06 0)
(2.99978 2.21981e-05 0)
(2.99947 6.33114e-05 0)
(2.99868 0.000138252 0)
(2.99677 0.000399241 0)
(2.9919 0.000855885 0)
(2.97991 0.00242705 0)
(2.9486 0.00562141 0)
(2.86285 0.0154657 0)
(2.61499 0.0420892 0)
(1.88687 0.122541 0)
(0.912672 0.323941 0)
(0.524383 0.294178 0)
(0.587939 0.281139 0)
(0.607665 0.294782 0)
(0.561133 0.311702 0)
(0.484751 0.335279 0)
(0.407656 0.362349 0)
(0.338177 0.393055 0)
(0.262146 0.426675 0)
(0.166252 0.46118 0)
(0.0709814 0.48701 0)
(3 1.45928e-07 0)
(2.99999 1.00464e-06 0)
(2.99997 3.27403e-06 0)
(2.99992 9.8532e-06 0)
(2.99981 2.45427e-05 0)
(2.99952 6.63331e-05 0)
(2.99883 0.000155954 0)
(2.99707 0.000416238 0)
(2.99283 0.000971775 0)
(2.98199 0.00256549 0)
(2.95436 0.0062541 0)
(2.87909 0.0167024 0)
(2.66222 0.0458605 0)
(2.02155 0.133212 0)
(1.00526 0.36736 0)
(0.533509 0.341443 0)
(0.607679 0.327032 0)
(0.63525 0.340068 0)
(0.590243 0.358329 0)
(0.517178 0.386125 0)
(0.44203 0.419549 0)
(0.373823 0.458894 0)
(0.298204 0.50401 0)
(0.198688 0.554685 0)
(0.0895606 0.601299 0)
(3 1.59031e-07 0)
(2.99999 9.89846e-07 0)
(2.99997 3.36694e-06 0)
(2.99993 9.68226e-06 0)
(2.99983 2.52894e-05 0)
(2.99958 6.33859e-05 0)
(2.99897 0.000164822 0)
(2.99745 0.000387836 0)
(2.9937 0.00103498 0)
(2.98431 0.00243119 0)
(2.9604 0.00643333 0)
(2.89594 0.0163773 0)
(2.71297 0.0454555 0)
(2.17045 0.131531 0)
(1.12555 0.379394 0)
(0.572235 0.384481 0)
(0.643222 0.378115 0)
(0.673877 0.387138 0)
(0.630362 0.406207 0)
(0.561032 0.437029 0)
(0.488278 0.47743 0)
(0.422262 0.525789 0)
(0.34994 0.584755 0)
(0.252166 0.660795 0)
(0.124563 0.750597 0)
(3 1.42594e-07 0)
(2.99999 8.81661e-07 0)
(2.99998 3.14126e-06 0)
(2.99994 8.59475e-06 0)
(2.99985 2.31909e-05 0)
(2.99963 5.75487e-05 0)
(2.9991 0.000143418 0)
(2.99779 0.000362075 0)
(2.99453 0.000869176 0)
(2.98648 0.00223988 0)
(2.96601 0.00544923 0)
(2.91161 0.0142582 0)
(2.75921 0.0382875 0)
(2.3115 0.109513 0)
(1.26958 0.325753 0)
(0.636978 0.41169 0)
(0.686416 0.433652 0)
(0.716051 0.433895 0)
(0.678135 0.455193 0)
(0.615069 0.487776 0)
(0.546804 0.534753 0)
(0.485285 0.591532 0)
(0.424406 0.668818 0)
(0.343794 0.786882 0)
(0.192381 0.993522 0)
(3 1.31514e-07 0)
(2.99999 7.46682e-07 0)
(2.99998 2.83347e-06 0)
(2.99995 7.27348e-06 0)
(2.99987 2.07784e-05 0)
(2.99968 4.89918e-05 0)
(2.99922 0.00012822 0)
(2.99805 0.000305856 0)
(2.99526 0.000766543 0)
(2.98814 0.00187999 0)
(2.97039 0.00465871 0)
(2.92339 0.0118099 0)
(2.7918 0.0313774 0)
(2.40735 0.0873678 0)
(1.41109 0.259312 0)
(0.702041 0.453326 0)
(0.705999 0.48705 0)
(0.734567 0.484105 0)
(0.718637 0.504322 0)
(0.66957 0.537152 0)
(0.612673 0.587118 0)
(0.564136 0.651833 0)
(0.532836 0.744632 0)
(0.530613 0.889174 0)
(0.565225 1.13069 0)
(3 1.23668e-07 0)
(2.99999 6.99697e-07 0)
(2.99998 2.57492e-06 0)
(2.99996 6.84041e-06 0)
(2.99989 1.90963e-05 0)
(2.99972 4.49176e-05 0)
(2.99931 0.000122025 0)
(2.99832 0.000272212 0)
(2.99585 0.00074667 0)
(2.98973 0.00166458 0)
(2.97426 0.00448148 0)
(2.93389 0.0107554 0)
(2.82136 0.0291107 0)
(2.49417 0.0801918 0)
(1.59178 0.235458 0)
(0.804426 0.505831 0)
(0.714241 0.526508 0)
(0.744178 0.528277 0)
(0.748087 0.546317 0)
(0.717683 0.580947 0)
(0.679385 0.6315 0)
(0.651019 0.701235 0)
(0.651052 0.799109 0)
(0.703372 0.936116 0)
(0.829119 1.11388 0)
(3 1.01515e-07 0)
(2.99999 7.32898e-07 0)
(2.99998 2.26477e-06 0)
(2.99996 7.16396e-06 0)
(2.9999 1.69868e-05 0)
(2.99976 4.70222e-05 0)
(2.99941 0.000107313 0)
(2.99857 0.000287753 0)
(2.99642 0.000661243 0)
(2.99125 0.00173846 0)
(2.97797 0.00412561 0)
(2.94385 0.0107531 0)
(2.84963 0.0277037 0)
(2.57651 0.0774776 0)
(1.79409 0.224326 0)
(0.935294 0.54626 0)
(0.724686 0.554813 0)
(0.755205 0.55915 0)
(0.774859 0.576824 0)
(0.762472 0.615053 0)
(0.74303 0.667052 0)
(0.736766 0.736368 0)
(0.759655 0.827303 0)
(0.831801 0.938396 0)
(0.971048 1.04744 0)
(3 9.8637e-08 0)
(3 6.89896e-07 0)
(2.99999 2.22598e-06 0)
(2.99997 6.73601e-06 0)
(2.99992 1.65974e-05 0)
(2.9998 4.48991e-05 0)
(2.99952 0.000103769 0)
(2.99879 0.00028067 0)
(2.99705 0.00063594 0)
(2.99262 0.00172542 0)
(2.98178 0.0039885 0)
(2.9535 0.0106201 0)
(2.87703 0.0269591 0)
(2.65728 0.0753543 0)
(2.01131 0.217618 0)
(1.09309 0.578363 0)
(0.750281 0.587341 0)
(0.776499 0.590777 0)
(0.806224 0.602319 0)
(0.808866 0.640511 0)
(0.803655 0.693098 0)
(0.813157 0.757853 0)
(0.849968 0.834828 0)
(0.926082 0.919926 0)
(1.05667 0.99085 0)
(3 1.03587e-07 0)
(3 5.83166e-07 0)
(2.99999 2.18634e-06 0)
(2.99997 5.72332e-06 0)
(2.99993 1.62395e-05 0)
(2.99984 3.82037e-05 0)
(2.99961 0.00010334 0)
(2.99902 0.000237004 0)
(2.99762 0.000636426 0)
(2.99404 0.00146576 0)
(2.98539 0.00390096 0)
(2.96301 0.0093527 0)
(2.90362 0.0249756 0)
(2.73615 0.067339 0)
(2.24284 0.195091 0)
(1.29643 0.555445 0)
(0.821985 0.616729 0)
(0.819997 0.627623 0)
(0.847326 0.632124 0)
(0.861154 0.663277 0)
(0.863843 0.711541 0)
(0.880922 0.769221 0)
(0.923831 0.832914 0)
(0.998421 0.898106 0)
(1.11571 0.949388 0)
(3 8.12219e-08 0)
(3 5.213e-07 0)
(2.99999 1.75851e-06 0)
(2.99998 5.08119e-06 0)
(2.99995 1.31203e-05 0)
(2.99987 3.33799e-05 0)
(2.99968 8.35235e-05 0)
(2.99923 0.000203865 0)
(2.99808 0.000512908 0)
(2.99534 0.00123539 0)
(2.98835 0.0031315 0)
(2.97107 0.00767593 0)
(2.92543 0.0197368 0)
(2.79925 0.0526199 0)
(2.43399 0.148766 0)
(1.52826 0.443676 0)
(0.921889 0.636003 0)
(0.871316 0.662942 0)
(0.890853 0.671055 0)
(0.913294 0.689004 0)
(0.922313 0.727546 0)
(0.942413 0.776246 0)
(0.986175 0.828502 0)
(1.05672 0.879226 0)
(1.16027 0.918361 0)
(3 6.4499e-08 0)
(3 4.3958e-07 0)
(2.99999 1.43976e-06 0)
(2.99998 4.28139e-06 0)
(2.99996 1.06435e-05 0)
(2.9999 2.82924e-05 0)
(2.99975 6.61585e-05 0)
(2.99937 0.000174173 0)
(2.99848 0.000399754 0)
(2.99622 0.00105131 0)
(2.99075 0.00242732 0)
(2.97683 0.00632912 0)
(2.94101 0.015344 0)
(2.8423 0.0409089 0)
(2.55834 0.112026 0)
(1.77187 0.331958 0)
(1.0428 0.666752 0)
(0.90594 0.696343 0)
(0.921138 0.7086 0)
(0.951375 0.715257 0)
(0.97271 0.743061 0)
(0.996861 0.782519 0)
(1.03972 0.824903 0)
(1.10519 0.864605 0)
(1.1962 0.894757 0)
(3 5.87856e-08 0)
(3 3.60579e-07 0)
(2.99999 1.26613e-06 0)
(2.99999 3.52301e-06 0)
(2.99997 9.39597e-06 0)
(2.99992 2.33216e-05 0)
(2.9998 5.91677e-05 0)
(2.99951 0.000143015 0)
(2.99881 0.000360992 0)
(2.99703 0.000869608 0)
(2.99275 0.00219701 0)
(2.98183 0.00536211 0)
(2.95416 0.0136248 0)
(2.87893 0.0352263 0)
(2.6641 0.096894 0)
(2.03929 0.281425 0)
(1.21472 0.693668 0)
(0.943246 0.728149 0)
(0.948377 0.738163 0)
(0.981568 0.738931 0)
(1.01512 0.756041 0)
(1.04444 0.787529 0)
(1.08615 0.822189 0)
(1.14634 0.853613 0)
(1.22657 0.876866 0)
(3 4.99142e-08 0)
(3 2.97529e-07 0)
(3 1.06278e-06 0)
(2.99999 2.90275e-06 0)
(2.99997 7.90585e-06 0)
(2.99994 1.92094e-05 0)
(2.99985 5.0179e-05 0)
(2.99963 0.000117951 0)
(2.99909 0.000306726 0)
(2.99775 0.000719501 0)
(2.9945 0.00186901 0)
(2.98635 0.00445434 0)
(2.96589 0.0115192 0)
(2.9115 0.0291286 0)
(2.76031 0.0796194 0)
(2.31737 0.228277 0)
(1.45634 0.635479 0)
(1.0283 0.741934 0)
(0.995175 0.75895 0)
(1.01696 0.76263 0)
(1.05548 0.770014 0)
(1.08939 0.793055 0)
(1.12885 0.820701 0)
(1.18303 0.845544 0)
(1.25365 0.86341 0)
(3 4.03311e-08 0)
(3 2.35155e-07 0)
(3 8.57175e-07 0)
(2.99999 2.29056e-06 0)
(2.99998 6.32544e-06 0)
(2.99995 1.51324e-05 0)
(2.99988 3.96346e-05 0)
(2.99972 9.30024e-05 0)
(2.99931 0.000239327 0)
(2.99833 0.000564778 0)
(2.99586 0.00143878 0)
(2.98987 0.00344137 0)
(2.9747 0.00875312 0)
(2.93562 0.0217458 0)
(2.8284 0.0580682 0)
(2.52069 0.161741 0)
(1.72906 0.479611 0)
(1.14074 0.748237 0)
(1.04643 0.778478 0)
(1.05531 0.789808 0)
(1.09217 0.789576 0)
(1.13033 0.802475 0)
(1.16821 0.822178 0)
(1.21673 0.840787 0)
(1.27884 0.853928 0)
(3 2.8615e-08 0)
(3 1.95798e-07 0)
(3 6.30713e-07 0)
(2.99999 1.90639e-06 0)
(2.99999 4.68554e-06 0)
(2.99997 1.24744e-05 0)
(2.99991 2.94156e-05 0)
(2.99979 7.58914e-05 0)
(2.99948 0.000179588 0)
(2.99875 0.000454182 0)
(2.9969 0.00109029 0)
(2.99244 0.00272629 0)
(2.98112 0.00666734 0)
(2.95246 0.0167783 0)
(2.87472 0.0433535 0)
(2.65424 0.118594 0)
(2.02506 0.349041 0)
(1.3012 0.760864 0)
(1.08943 0.806279 0)
(1.08621 0.817387 0)
(1.1195 0.813206 0)
(1.16374 0.813593 0)
(1.20279 0.825218 0)
(1.24734 0.838402 0)
(1.30242 0.847546 0)
(3 2.30761e-08 0)
(3 1.4806e-07 0)
(3 5.08389e-07 0)
(3 1.44807e-06 0)
(2.99999 3.76141e-06 0)
(2.99997 9.63113e-06 0)
(2.99994 2.342e-05 0)
(2.99985 5.93761e-05 0)
(2.99963 0.000141544 0)
(2.99909 0.000360299 0)
(2.99776 0.000853584 0)
(2.99452 0.0021815 0)
(2.98641 0.00521899 0)
(2.96607 0.0133729 0)
(2.91242 0.0337258 0)
(2.76315 0.0917272 0)
(2.32805 0.263224 0)
(1.54175 0.696109 0)
(1.17014 0.817044 0)
(1.13012 0.834201 0)
(1.14864 0.835347 0)
(1.19198 0.827495 0)
(1.23477 0.830049 0)
(1.27661 0.837725 0)
(1.32546 0.843308 0)
(3 1.83711e-08 0)
(3 1.09425e-07 0)
(3 3.92446e-07 0)
(3 1.06917e-06 0)
(2.99999 2.89451e-06 0)
(2.99998 7.09055e-06 0)
(2.99996 1.80774e-05 0)
(2.99989 4.34459e-05 0)
(2.99973 0.000108967 0)
(2.99935 0.000262581 0)
(2.99841 0.000653 0)
(2.99608 0.00158486 0)
(2.99044 0.00393516 0)
(2.9762 0.00968325 0)
(2.93968 0.0245753 0)
(2.84082 0.0643609 0)
(2.55717 0.180364 0)
(1.83723 0.523866 0)
(1.29096 0.810447 0)
(1.18138 0.843942 0)
(1.1829 0.855273 0)
(1.21797 0.846694 0)
(1.26263 0.83933 0)
(1.30404 0.839994 0)
(1.34821 0.841672 0)
(3 1.32072e-08 0)
(3 8.44332e-08 0)
(3 2.85877e-07 0)
(3 8.2195e-07 0)
(2.99999 2.10971e-06 0)
(2.99999 5.39728e-06 0)
(2.99997 1.32062e-05 0)
(2.99992 3.28344e-05 0)
(2.99981 7.99837e-05 0)
(2.99954 0.00019665 0)
(2.99886 0.000480931 0)
(2.99725 0.00117896 0)
(2.99315 0.00290315 0)
(2.98326 0.00716009 0)
(2.95771 0.0178491 0)
(2.88999 0.0461172 0)
(2.69955 0.124904 0)
(2.15209 0.366477 0)
(1.46447 0.804544 0)
(1.23241 0.865614 0)
(1.21664 0.874339 0)
(1.23908 0.867111 0)
(1.28333 0.852901 0)
(1.32753 0.84658 0)
(1.36956 0.843599 0)
(3 9.60193e-09 0)
(3 6.11677e-08 0)
(3 2.1083e-07 0)
(3 5.94488e-07 0)
(3 1.55594e-06 0)
(2.99999 3.92491e-06 0)
(2.99998 9.62994e-06 0)
(2.99995 2.41213e-05 0)
(2.99987 5.75678e-05 0)
(2.99968 0.000145781 0)
(2.99923 0.000342411 0)
(2.9981 0.000878022 0)
(2.99542 0.00205593 0)
(2.98864 0.00528805 0)
(2.97206 0.0126997 0)
(2.92883 0.0329328 0)
(2.81181 0.0868865 0)
(2.47381 0.249213 0)
(1.74487 0.669019 0)
(1.33425 0.852983 0)
(1.26753 0.876973 0)
(1.27155 0.881164 0)
(1.30699 0.867867 0)
(1.35076 0.855623 0)
(1.39005 0.847624 0)
(3 6.89741e-09 0)
(3 4.32772e-08 0)
(3 1.48548e-07 0)
(3 4.20434e-07 0)
(3 1.09699e-06 0)
(2.99999 2.74367e-06 0)
(2.99998 6.84763e-06 0)
(2.99996 1.65655e-05 0)
(2.99991 4.11541e-05 0)
(2.99978 9.83784e-05 0)
(2.99947 0.000245054 0)
(2.99868 0.000583199 0)
(2.99683 0.00145503 0)
(2.99212 0.00348491 0)
(2.98072 0.00869779 0)
(2.95132 0.0214247 0)
(2.87302 0.0555063 0)
(2.65245 0.150944 0)
(2.05087 0.438845 0)
(1.46641 0.826227 0)
(1.3126 0.882453 0)
(1.30239 0.892945 0)
(1.32683 0.884062 0)
(1.36903 0.865481 0)
(1.4074 0.851284 0)
(3 4.90254e-09 0)
(3 3.07969e-08 0)
(3 1.05292e-07 0)
(3 2.99439e-07 0)
(3 7.77927e-07 0)
(3 1.95322e-06 0)
(2.99999 4.86929e-06 0)
(2.99997 1.17724e-05 0)
(2.99994 2.93515e-05 0)
(2.99985 6.98914e-05 0)
(2.99964 0.000175932 0)
(2.99911 0.000414202 0)
(2.99784 0.0010503 0)
(2.99468 0.00247979 0)
(2.98699 0.00629499 0)
(2.96756 0.0152372 0)
(2.91686 0.039341 0)
(2.77801 0.104195 0)
(2.3742 0.300382 0)
(1.6974 0.741255 0)
(1.38406 0.880742 0)
(1.33889 0.899828 0)
(1.34811 0.899143 0)
(1.38313 0.878344 0)
(1.42045 0.854217 0)
(3 3.33411e-09 0)
(3 2.17388e-08 0)
(3 7.24091e-08 0)
(3 2.11118e-07 0)
(3 5.34744e-07 0)
(3 1.37632e-06 0)
(2.99999 3.34244e-06 0)
(2.99998 8.29425e-06 0)
(2.99996 2.01513e-05 0)
(2.9999 4.91597e-05 0)
(2.99975 0.000120747 0)
(2.99941 0.000290291 0)
(2.99855 0.000721845 0)
(2.99649 0.00172439 0)
(2.99135 0.00432601 0)
(2.97877 0.0104587 0)
(2.94646 0.0265619 0)
(2.86052 0.0687171 0)
(2.61589 0.191229 0)
(2.00083 0.541032 0)
(1.50563 0.857351 0)
(1.38408 0.90443 0)
(1.37347 0.908458 0)
(1.3927 0.8914 0)
(1.42424 0.858372 0)
(3 2.24758e-09 0)
(3 1.50488e-08 0)
(3 4.96704e-08 0)
(3 1.45733e-07 0)
(3 3.66576e-07 0)
(3 9.52455e-07 0)
(3 2.27026e-06 0)
(2.99999 5.77785e-06 0)
(2.99997 1.35866e-05 0)
(2.99993 3.43862e-05 0)
(2.99984 8.07619e-05 0)
(2.99961 0.000203382 0)
(2.99903 0.000481187 0)
(2.99768 0.00120279 0)
(2.99427 0.00287789 0)
(2.98604 0.00717827 0)
(2.96512 0.0175827 0)
(2.91078 0.0450412 0)
(2.76092 0.120171 0)
(2.33196 0.347684 0)
(1.7088 0.782559 0)
(1.44234 0.901507 0)
(1.40012 0.911545 0)
(1.40282 0.896075 0)
(1.41881 0.858844 0)
(3 1.57699e-09 0)
(3 9.94975e-09 0)
(3 3.44604e-08 0)
(3 9.64825e-08 0)
(3 2.53218e-07 0)
(3 6.34628e-07 0)
(3 1.56043e-06 0)
(2.99999 3.86499e-06 0)
(2.99998 9.26028e-06 0)
(2.99996 2.30982e-05 0)
(2.99989 5.47361e-05 0)
(2.99974 0.000137341 0)
(2.99938 0.000323181 0)
(2.99848 0.000815699 0)
(2.99633 0.00192277 0)
(2.99101 0.00485772 0)
(2.97791 0.0116547 0)
(2.94445 0.0297295 0)
(2.85561 0.0767464 0)
(2.60181 0.215484 0)
(2.00079 0.587612 0)
(1.55168 0.873627 0)
(1.43355 0.910495 0)
(1.41216 0.889673 0)
(1.40975 0.843965 0)
(3 1.07791e-09 0)
(3 6.47692e-09 0)
(3 2.30897e-08 0)
(3 6.2897e-08 0)
(3 1.69144e-07 0)
(3 4.12096e-07 0)
(3 1.04543e-06 0)
(3 2.49227e-06 0)
(2.99999 6.21624e-06 0)
(2.99997 1.4822e-05 0)
(2.99993 3.6632e-05 0)
(2.99983 8.79504e-05 0)
(2.9996 0.000215385 0)
(2.99901 0.000520807 0)
(2.99763 0.00126972 0)
(2.99414 0.00310017 0)
(2.9858 0.00755914 0)
(2.96454 0.0187525 0)
(2.90949 0.0475045 0)
(2.75829 0.127171 0)
(2.33131 0.365543 0)
(1.73766 0.788454 0)
(1.47044 0.896691 0)
(1.4085 0.874377 0)
(1.38486 0.806701 0)
(3 6.76165e-10 0)
(3 4.34696e-09 0)
(3 1.45915e-08 0)
(3 4.21441e-08 0)
(3 1.07467e-07 0)
(3 2.73132e-07 0)
(3 6.67071e-07 0)
(3 1.63625e-06 0)
(2.99999 3.99718e-06 0)
(2.99998 9.61902e-06 0)
(2.99996 2.3702e-05 0)
(2.99989 5.64001e-05 0)
(2.99974 0.000140358 0)
(2.99936 0.000330481 0)
(2.99848 0.000830059 0)
(2.99624 0.00195095 0)
(2.99094 0.00491606 0)
(2.97757 0.011789 0)
(2.94393 0.0299117 0)
(2.8542 0.0772668 0)
(2.59929 0.216541 0)
(2.00924 0.580789 0)
(1.54541 0.854276 0)
(1.3907 0.853605 0)
(1.3331 0.747757 0)
(3 4.32282e-10 0)
(3 2.7114e-09 0)
(3 9.2651e-09 0)
(3 2.62589e-08 0)
(3 6.80329e-08 0)
(3 1.69761e-07 0)
(3 4.20943e-07 0)
(3 1.01204e-06 0)
(2.99999 2.50377e-06 0)
(2.99999 5.93105e-06 0)
(2.99997 1.47459e-05 0)
(2.99993 3.46254e-05 0)
(2.99983 8.64161e-05 0)
(2.99959 0.000202693 0)
(2.99898 0.000504649 0)
(2.99755 0.00118907 0)
(2.99399 0.00295542 0)
(2.98531 0.00706682 0)
(2.96348 0.0176202 0)
(2.90676 0.0443047 0)
(2.75099 0.1188 0)
(2.32009 0.340789 0)
(1.68841 0.732096 0)
(1.35065 0.795791 0)
(1.24128 0.659884 0)
(3 2.5281e-10 0)
(3 1.64372e-09 0)
(3 5.52181e-09 0)
(3 1.58985e-08 0)
(3 4.03118e-08 0)
(3 1.03069e-07 0)
(3 2.46301e-07 0)
(3 6.14524e-07 0)
(3 1.45032e-06 0)
(2.99999 3.58741e-06 0)
(2.99998 8.46817e-06 0)
(2.99995 2.07798e-05 0)
(2.99988 4.93645e-05 0)
(2.99971 0.000120059 0)
(2.9993 0.000286839 0)
(2.99829 0.000693951 0)
(2.99583 0.00167212 0)
(2.98976 0.00403078 0)
(2.97476 0.00986855 0)
(2.93619 0.0243483 0)
(2.83225 0.063273 0)
(2.54084 0.175929 0)
(1.86957 0.474773 0)
(1.28729 0.663909 0)
(1.1115 0.537788 0)
(3 1.42298e-10 0)
(3 9.60575e-10 0)
(3 3.12406e-09 0)
(3 9.25261e-09 0)
(3 2.27828e-08 0)
(3 5.94004e-08 0)
(3 1.38964e-07 0)
(3 3.49779e-07 0)
(3 8.14398e-07 0)
(2.99999 2.01132e-06 0)
(2.99998 4.74409e-06 0)
(2.99996 1.14575e-05 0)
(2.99991 2.74944e-05 0)
(2.99978 6.51697e-05 0)
(2.99946 0.00015897 0)
(2.9987 0.000370732 0)
(2.99677 0.000915169 0)
(2.99213 0.00212467 0)
(2.98035 0.00527644 0)
(2.95049 0.0125669 0)
(2.8696 0.0320978 0)
(2.64163 0.0847436 0)
(2.0206 0.243015 0)
(1.19652 0.50031 0)
(0.925963 0.409199 0)
(3 8.05239e-11 0)
(3 5.06133e-10 0)
(3 1.7392e-09 0)
(3 4.88477e-09 0)
(3 1.25861e-08 0)
(3 3.14998e-08 0)
(3 7.57452e-08 0)
(3 1.85042e-07 0)
(3 4.36564e-07 0)
(3 1.06808e-06 0)
(2.99999 2.49033e-06 0)
(2.99997 6.07213e-06 0)
(2.99993 1.41911e-05 0)
(2.99982 3.45083e-05 0)
(2.99955 8.08075e-05 0)
(2.99892 0.000194559 0)
(2.9973 0.000461755 0)
(2.99339 0.00110503 0)
(2.98344 0.00265639 0)
(2.9583 0.00643256 0)
(2.89023 0.0160566 0)
(2.69712 0.0420862 0)
(2.14129 0.118012 0)
(1.11882 0.307485 0)
(0.708535 0.279345 0)
(3 4.29797e-11 0)
(3 2.64742e-10 0)
(3 9.42755e-10 0)
(3 2.52734e-09 0)
(3 6.79737e-09 0)
(3 1.641e-08 0)
(3 3.97643e-08 0)
(3 9.85647e-08 0)
(3 2.2056e-07 0)
(3 5.74909e-07 0)
(2.99999 1.20744e-06 0)
(2.99997 3.31736e-06 0)
(2.99993 6.60496e-06 0)
(2.99984 1.87956e-05 0)
(2.99959 3.66525e-05 0)
(2.99902 0.000103887 0)
(2.99753 0.00020499 0)
(2.99395 0.000569721 0)
(2.98478 0.001175 0)
(2.96157 0.00313367 0)
(2.89867 0.00715995 0)
(2.71893 0.0189485 0)
(2.18753 0.0501837 0)
(1.05241 0.135957 0)
(0.512892 0.170512 0)
(3 2.6877e-11 0)
(3 1.39468e-10 0)
(3 5.53819e-10 0)
(3 1.3225e-09 0)
(3 3.98375e-09 0)
(3 8.39274e-09 0)
(3 2.36884e-08 0)
(3 4.9451e-08 0)
(3 1.33178e-07 0)
(3 2.85684e-07 0)
(2.99999 7.27541e-07 0)
(2.99997 1.67424e-06 0)
(2.99994 3.93586e-06 0)
(2.99985 9.72088e-06 0)
(2.99962 2.13998e-05 0)
(2.99906 5.67147e-05 0)
(2.99768 0.000116472 0)
(2.9942 0.000327758 0)
(2.98557 0.000663773 0)
(2.96323 0.0018205 0)
(2.90324 0.00419588 0)
(2.73067 0.0111894 0)
(2.21414 0.0300906 0)
(1.04459 0.0814138 0)
(0.413141 0.133565 0)
(3 1.36854e-11 0)
(3 1.00656e-10 0)
(3 2.96436e-10 0)
(3 9.76443e-10 0)
(3 2.13324e-09 0)
(3 6.07555e-09 0)
(3 1.33339e-08 0)
(3 3.41188e-08 0)
(3 8.14311e-08 0)
(3 1.84525e-07 0)
(2.99999 4.86938e-07 0)
(2.99998 9.9988e-07 0)
(2.99994 2.89925e-06 0)
(2.99985 5.4538e-06 0)
(2.99963 1.69502e-05 0)
(2.9991 3.13931e-05 0)
(2.99775 9.92537e-05 0)
(2.99441 0.000180772 0)
(2.98602 0.000575523 0)
(2.96451 0.00113625 0)
(2.90634 0.00332535 0)
(2.74001 0.00831969 0)
(2.2392 0.0240096 0)
(1.07443 0.0695828 0)
(0.402087 0.121992 0)
(3 7.86892e-12 0)
(3 7.0802e-11 0)
(3 1.88292e-10 0)
(3 6.75563e-10 0)
(3 1.38534e-09 0)
(3 4.29746e-09 0)
(3 8.45637e-09 0)
(3 2.50051e-08 0)
(3 5.11937e-08 0)
(3 1.37715e-07 0)
(2.99999 3.11666e-07 0)
(2.99998 7.65364e-07 0)
(2.99994 1.91962e-06 0)
(2.99986 4.25031e-06 0)
(2.99964 1.16851e-05 0)
(2.99912 2.46294e-05 0)
(2.99781 7.2208e-05 0)
(2.9946 0.000144126 0)
(2.98637 0.000442386 0)
(2.96552 0.000945128 0)
(2.90921 0.00271361 0)
(2.74771 0.00712179 0)
(2.2643 0.0209359 0)
(1.11171 0.0631759 0)
(0.422203 0.112536 0)
(3 9.20338e-12 0)
(3 4.16322e-11 0)
(3 1.76319e-10 0)
(3 4.07153e-10 0)
(3 1.27134e-09 0)
(3 2.56392e-09 0)
(3 8.03972e-09 0)
(3 1.43579e-08 0)
(3 4.82121e-08 0)
(3 8.44017e-08 0)
(2.99999 2.8705e-07 0)
(2.99998 4.92662e-07 0)
(2.99994 1.69615e-06 0)
(2.99986 3.02319e-06 0)
(2.99965 1.01209e-05 0)
(2.99915 1.86043e-05 0)
(2.99785 5.89497e-05 0)
(2.99472 0.000123691 0)
(2.98669 0.000348478 0)
(2.9664 0.000840582 0)
(2.91153 0.00228542 0)
(2.75515 0.00622316 0)
(2.28689 0.0185304 0)
(1.14963 0.0568703 0)
(0.449185 0.103991 0)
(3 6.49708e-12 0)
(3 3.17613e-11 0)
(3 1.52097e-10 0)
(3 3.17553e-10 0)
(3 1.02409e-09 0)
(3 2.34805e-09 0)
(3 5.29713e-09 0)
(3 1.56811e-08 0)
(3 2.52643e-08 0)
(3 1.07574e-07 0)
(2.99999 1.16722e-07 0)
(2.99998 6.93984e-07 0)
(2.99994 5.9643e-07 0)
(2.99986 4.31695e-06 0)
(2.99966 3.65404e-06 0)
(2.99917 2.58418e-05 0)
(2.9979 2.51803e-05 0)
(2.99484 0.000155493 0)
(2.98696 0.000194057 0)
(2.96715 0.000883891 0)
(2.91368 0.00171152 0)
(2.76154 0.00561979 0)
(2.30783 0.0160709 0)
(1.18609 0.0503566 0)
(0.477947 0.0947543 0)
(3 3.01823e-12 0)
(3 2.88515e-11 0)
(3 7.80714e-11 0)
(3 2.8009e-10 0)
(3 5.58155e-10 0)
(3 1.7943e-09 0)
(3 3.10381e-09 0)
(3 1.10273e-08 0)
(3 1.66258e-08 0)
(3 6.72291e-08 0)
(2.99999 9.23997e-08 0)
(2.99998 4.11086e-07 0)
(2.99995 5.64489e-07 0)
(2.99986 2.55127e-06 0)
(2.99967 3.73104e-06 0)
(2.99916 1.56055e-05 0)
(2.99796 2.74726e-05 0)
(2.99486 9.49737e-05 0)
(2.9873 0.000206247 0)
(2.96766 0.000618375 0)
(2.91555 0.0015545 0)
(2.76731 0.00462701 0)
(2.32611 0.0138534 0)
(1.22084 0.0434989 0)
(0.506707 0.083953 0)
(3 1.20203e-12 0)
(3 3.24234e-11 0)
(3 3.7291e-11 0)
(3 3.10835e-10 0)
(3 3.17927e-10 0)
(3 1.7876e-09 0)
(3 2.12171e-09 0)
(3 9.5477e-09 0)
(3 1.41276e-08 0)
(3 4.88379e-08 0)
(2.99999 1.04714e-07 0)
(2.99998 2.39126e-07 0)
(2.99995 7.47118e-07 0)
(2.99987 1.31294e-06 0)
(2.99967 5.26219e-06 0)
(2.99919 7.01758e-06 0)
(2.99796 3.73122e-05 0)
(2.99499 4.39264e-05 0)
(2.9874 0.000247211 0)
(2.96827 0.000399211 0)
(2.9171 0.00148267 0)
(2.77199 0.00379211 0)
(2.34238 0.0118508 0)
(1.2516 0.0367088 0)
(0.533202 0.0720135 0)
(3 2.30873e-12 0)
(3 1.64885e-11 0)
(3 5.83784e-11 0)
(3 1.47188e-10 0)
(3 4.36556e-10 0)
(3 1.0117e-09 0)
(3 2.25613e-09 0)
(3 6.67759e-09 0)
(3 1.14881e-08 0)
(3 4.30376e-08 0)
(2.99999 6.31158e-08 0)
(2.99998 2.81322e-07 0)
(2.99995 3.62819e-07 0)
(2.99987 1.81733e-06 0)
(2.99967 2.39394e-06 0)
(2.99919 1.16485e-05 0)
(2.99799 1.76483e-05 0)
(2.99503 7.606e-05 0)
(2.9876 0.000136578 0)
(2.96869 0.00048112 0)
(2.91845 0.00110822 0)
(2.77611 0.00342841 0)
(2.35565 0.00996534 0)
(1.27839 0.0303017 0)
(0.556364 0.0597589 0)
(3 9.30907e-13 0)
(3 2.49967e-12 0)
(3 1.1219e-11 0)
(3 1.99718e-11 0)
(3 8.13401e-11 0)
(3 1.97435e-11 0)
(3 9.32093e-10 0)
(3 -2.83436e-10 0)
(3 8.93949e-09 0)
(3 -5.48196e-09 0)
(2.99999 7.46739e-08 0)
(2.99998 -1.71121e-08 0)
(2.99995 5.86451e-07 0)
(2.99987 -7.33873e-09 0)
(2.99968 4.16037e-06 0)
(2.9992 2.34704e-06 0)
(2.99802 2.70467e-05 0)
(2.99508 3.08692e-05 0)
(2.98774 0.000171041 0)
(2.96908 0.000294631 0)
(2.9196 0.00109226 0)
(2.7796 0.00276946 0)
(2.36647 0.00839937 0)
(1.30057 0.0242131 0)
(0.575511 0.0475446 0)
(3 3.62669e-12 0)
(3 -1.56357e-11 0)
(3 5.06293e-11 0)
(3 -1.48088e-10 0)
(3 3.18043e-10 0)
(3 -8.41551e-10 0)
(3 1.9238e-09 0)
(3 -4.29792e-09 0)
(3 1.14665e-08 0)
(3 -1.74701e-08 0)
(2.99999 5.87453e-08 0)
(2.99998 -1.72051e-08 0)
(2.99995 3.02215e-07 0)
(2.99987 4.98348e-07 0)
(2.99968 1.33931e-06 0)
(2.99921 7.30072e-06 0)
(2.99802 6.09558e-06 0)
(2.99515 6.57696e-05 0)
(2.98782 4.95993e-05 0)
(2.96947 0.00039765 0)
(2.92052 0.000694383 0)
(2.78247 0.00245478 0)
(2.37492 0.00667506 0)
(1.31773 0.0186518 0)
(0.58991 0.0358624 0)
(3 2.37177e-12 0)
(3 -1.05237e-11 0)
(3 4.67218e-11 0)
(3 -9.58695e-11 0)
(3 3.32401e-10 0)
(3 -3.86499e-10 0)
(3 1.48883e-09 0)
(3 -7.09091e-10 0)
(3 4.80302e-09 0)
(3 1.09013e-08 0)
(2.99999 6.35075e-09 0)
(2.99998 1.57117e-07 0)
(2.99995 -1.18526e-07 0)
(2.99987 1.57813e-06 0)
(2.99968 -1.16996e-06 0)
(2.9992 1.16211e-05 0)
(2.99806 -7.18128e-06 0)
(2.99512 7.61115e-05 0)
(2.98802 -1.15785e-05 0)
(2.96964 0.000388918 0)
(2.92128 0.000401291 0)
(2.78498 0.00195108 0)
(2.38076 0.00491839 0)
(1.33132 0.0134246 0)
(0.600716 0.0251366 0)
(3 -2.81775e-12 0)
(3 6.89353e-12 0)
(3 -3.58846e-11 0)
(3 6.66446e-11 0)
(3 -1.93674e-10 0)
(3 3.98483e-10 0)
(3 -1.04343e-09 0)
(3 2.57763e-09 0)
(3 -6.42906e-09 0)
(3 1.76903e-08 0)
(2.99999 -2.5536e-08 0)
(2.99998 1.12861e-07 0)
(2.99995 -5.71722e-08 0)
(2.99987 6.12233e-07 0)
(2.99968 5.33579e-07 0)
(2.99921 3.21448e-06 0)
(2.99807 7.71696e-06 0)
(2.99515 1.38161e-05 0)
(2.98808 6.63536e-05 0)
(2.96982 0.000105032 0)
(2.92183 0.000403548 0)
(2.78643 0.000998063 0)
(2.38524 0.00298254 0)
(1.34013 0.0080726 0)
(0.608457 0.0149546 0)
(3 -1.75569e-12 0)
(3 3.25305e-12 0)
(3 -2.67547e-11 0)
(3 3.43578e-11 0)
(3 -1.67648e-10 0)
(3 2.00617e-10 0)
(3 -8.01684e-10 0)
(3 1.08572e-09 0)
(3 -4.25671e-09 0)
(3 7.38508e-09 0)
(2.99999 -1.90262e-08 0)
(2.99998 4.45631e-08 0)
(2.99995 -2.60247e-08 0)
(2.99987 1.75235e-07 0)
(2.99968 2.12896e-07 0)
(2.99921 1.17368e-06 0)
(2.99807 3.43276e-06 0)
(2.99517 3.64826e-06 0)
(2.9881 2.68882e-05 0)
(2.96991 2.40387e-05 0)
(2.92208 0.000139005 0)
(2.78703 0.000295845 0)
(2.38746 0.000920826 0)
(1.34456 0.00267834 0)
(0.612385 0.00496803 0)
(1.11978 0.999669 0)
(1.00587 0.710957 0)
(0.0966832 0.429338 0)
(-0.42147 0.022709 0)
(-0.54418 -0.00871559 0)
(-0.690807 -0.023053 0)
(-0.746873 -0.0107268 0)
(-0.798234 0.0124294 0)
(-0.865822 0.0191208 0)
(-0.931229 0.0158548 0)
(-0.984684 0.00835092 0)
(-1.03143 0.00176279 0)
(-1.07976 -0.00158775 0)
(-1.12258 0.000654142 0)
(-1.14634 0.00178178 0)
(-1.15263 0.00043965 0)
(-1.14933 -0.00223207 0)
(-1.13248 -0.00524979 0)
(-1.09867 -0.00841196 0)
(-1.0506 -0.011482 0)
(-0.992603 -0.0139344 0)
(-0.929252 -0.0154542 0)
(-0.863903 -0.0162969 0)
(-0.798893 -0.0166056 0)
(-0.735675 -0.0165515 0)
(-0.674665 -0.0162678 0)
(-0.615846 -0.0159666 0)
(-0.558792 -0.0157364 0)
(-0.503065 -0.0157328 0)
(-0.448523 -0.0159309 0)
(-0.394448 -0.0166234 0)
(-0.340059 -0.0181359 0)
(-0.286632 -0.0191985 0)
(-0.234531 -0.0199159 0)
(-0.183932 -0.0206837 0)
(-0.134474 -0.0213912 0)
(-0.0858542 -0.0221756 0)
(-0.0387611 -0.0233266 0)
(0.0102276 -0.0251787 0)
(0.060398 -0.0240853 0)
(0.104832 -0.022259 0)
(0.148472 -0.0211412 0)
(0.190565 -0.0204159 0)
(0.230692 -0.0195687 0)
(0.268284 -0.018695 0)
(0.305027 -0.018328 0)
(0.343311 -0.0185589 0)
(0.381214 -0.0181723 0)
(0.417506 -0.0175039 0)
(0.45248 -0.0168935 0)
(0.486488 -0.0164032 0)
(0.519626 -0.0159313 0)
(0.55199 -0.015475 0)
(0.583583 -0.015034 0)
(0.614437 -0.014587 0)
(0.644606 -0.0141499 0)
(0.674099 -0.0137179 0)
(0.702953 -0.0132868 0)
(0.73119 -0.0128627 0)
(0.758829 -0.0124385 0)
(0.78591 -0.0120181 0)
(0.812447 -0.0116022 0)
(0.838466 -0.0111881 0)
(0.863991 -0.0107783 0)
(0.889049 -0.0103686 0)
(0.91366 -0.00996531 0)
(0.937844 -0.0095576 0)
(0.961629 -0.00915633 0)
(0.985022 -0.00875013 0)
(1.00805 -0.00834756 0)
(1.03072 -0.00794225 0)
(1.05304 -0.00753893 0)
(1.07502 -0.00713544 0)
(1.09665 -0.00673526 0)
(1.11796 -0.00633783 0)
(1.13892 -0.00594675 0)
(1.15955 -0.00556199 0)
(1.17984 -0.0051866 0)
(1.19979 -0.00482151 0)
(1.21942 -0.0044685 0)
(1.23872 -0.00412774 0)
(1.2577 -0.0037999 0)
(1.27637 -0.00348377 0)
(1.29472 -0.00318047 0)
(1.31276 -0.00288752 0)
(1.33048 -0.00260473 0)
(1.3479 -0.00233523 0)
(1.365 -0.00207603 0)
(1.38178 -0.00181895 0)
(1.39822 -0.00156202 0)
(1.41431 -0.00131348 0)
(1.43002 -0.00107345 0)
(1.44529 -0.000862535 0)