/*--------------------------------*- C++ -*----------------------------------*\
  =========                 |
  \\      /  F ield         | OpenFOAM: The Open Source CFD Toolbox
   \\    /   O peration     | Website:  https://openfoam.org
    \\  /    A nd           | Version:  10
     \\/     M anipulation  |
\*---------------------------------------------------------------------------*/
FoamFile
{
    format      ascii;
    class       volScalarField;
    location    "0.72";
    object      cov;
}
// * * * * * * * * * * * * * * * * * * * * * * * * * * * * * * * * * * * * * //

dimensions      [0 0 0 0 0 0 0];

internalField   uniform 0;

boundaryField
{
    frontAndBack
    {
        type            empty;
    }
    inlet
    {
        type            calculated;
        value           uniform 0;
    }
    outlet
    {
        type            calculated;
        value           uniform 0;
    }
    substrate
    {
        type            calculated;
        value           nonuniform List<scalar> 
400
(
0.734673
0.712425
0.691347
0.670899
0.650825
0.631001
0.611366
0.591896
0.572588
0.553452
0.534506
0.515774
0.497281
0.479053
0.461116
0.443497
0.426218
0.409302
0.392768
0.376634
0.360915
0.345622
0.330766
0.316355
0.302393
0.288885
0.27583
0.26323
0.251081
0.239379
0.22812
0.217296
0.206902
0.196927
0.187364
0.178202
0.16943
0.161039
0.153017
0.145352
0.138033
0.131048
0.124386
0.118035
0.111983
0.106218
0.100731
0.0955082
0.09054
0.0858157
0.0813246
0.0770567
0.0730021
0.0691513
0.065495
0.0620244
0.0587308
0.055606
0.0526418
0.0498307
0.0471653
0.0446385
0.0422434
0.0399737
0.0378231
0.0357856
0.0338556
0.0320277
0.0302966
0.0286574
0.0271054
0.0256362
0.0242455
0.0229291
0.0216833
0.0205043
0.0193887
0.0183331
0.0173344
0.0163895
0.0154957
0.0146502
0.0138504
0.013094
0.0123786
0.011702
0.0110621
0.010457
0.00988478
0.00934371
0.00883211
0.00834839
0.00789103
0.00745862
0.0070498
0.0066633
0.00629792
0.0059525
0.00562596
0.00531728
0.00502548
0.00474966
0.00448893
0.00424248
0.00400953
0.00378934
0.00358122
0.0033845
0.00319857
0.00302284
0.00285675
0.00269976
0.0025514
0.00241117
0.00227864
0.00215339
0.00203501
0.00192313
0.0018174
0.00171747
0.00162304
0.00153379
0.00144945
0.00136974
0.00129441
0.00122322
0.00115594
0.00109236
0.00103227
0.000975494
0.000921834
0.000871125
0.000823204
0.000777918
0.000735122
0.00069468
0.000656462
0.000620345
0.000586215
0.000553962
0.000523484
0.000494681
0.000467463
0.000441742
0.000417437
0.000394468
0.000372762
0.000352251
0.000332869
0.000314552
0.000297244
0.000280887
0.000265431
0.000250825
0.000237022
0.000223979
0.000211654
0.000200007
0.000189001
0.0001786
0.000168772
0.000159484
0.000150708
0.000142414
0.000134577
0.000127171
0.000120173
0.000113559
0.00010731
0.000101405
9.58241e-05
9.05507e-05
8.55675e-05
8.08586e-05
7.64087e-05
7.22038e-05
6.82302e-05
6.44753e-05
6.09271e-05
5.75741e-05
5.44056e-05
5.14115e-05
4.85822e-05
4.59086e-05
4.33821e-05
4.09946e-05
3.87386e-05
3.66066e-05
3.45921e-05
3.26883e-05
3.08894e-05
2.91894e-05
2.75831e-05
2.60651e-05
2.46306e-05
2.32751e-05
2.19942e-05
2.07838e-05
1.964e-05
1.85591e-05
1.75377e-05
1.65726e-05
1.56605e-05
1.47987e-05
1.39842e-05
1.32146e-05
1.24874e-05
1.18002e-05
1.11507e-05
1.05371e-05
9.95719e-06
9.4092e-06
8.89138e-06
8.40205e-06
7.93966e-06
7.50271e-06
7.0898e-06
6.69962e-06
6.33092e-06
5.9825e-06
5.65326e-06
5.34214e-06
5.04814e-06
4.77032e-06
4.50779e-06
4.25971e-06
4.02528e-06
3.80376e-06
3.59442e-06
3.39661e-06
3.20968e-06
3.03304e-06
2.86612e-06
2.70838e-06
2.55933e-06
2.41848e-06
2.28538e-06
2.15961e-06
2.04075e-06
1.92844e-06
1.82231e-06
1.72202e-06
1.62725e-06
1.5377e-06
1.45307e-06
1.3731e-06
1.29754e-06
1.22613e-06
1.15865e-06
1.09488e-06
1.03463e-06
9.77687e-07
9.23881e-07
8.73036e-07
8.24989e-07
7.79586e-07
7.36682e-07
6.96139e-07
6.57827e-07
6.21624e-07
5.87413e-07
5.55085e-07
5.24536e-07
4.95669e-07
4.6839e-07
4.42612e-07
4.18253e-07
3.95235e-07
3.73483e-07
3.52929e-07
3.33505e-07
3.15151e-07
2.97806e-07
2.81417e-07
2.65929e-07
2.51294e-07
2.37464e-07
2.24395e-07
2.12045e-07
2.00375e-07
1.89348e-07
1.78927e-07
1.69079e-07
1.59774e-07
1.50981e-07
1.42672e-07
1.3482e-07
1.274e-07
1.20388e-07
1.13763e-07
1.07502e-07
1.01585e-07
9.59944e-08
9.07113e-08
8.57189e-08
8.10013e-08
7.65434e-08
7.23308e-08
6.835e-08
6.45883e-08
6.10336e-08
5.76746e-08
5.45005e-08
5.1501e-08
4.86666e-08
4.59883e-08
4.34573e-08
4.10656e-08
3.88056e-08
3.66699e-08
3.46518e-08
3.27448e-08
3.09428e-08
2.92399e-08
2.76307e-08
2.61102e-08
2.46733e-08
2.33155e-08
2.20325e-08
2.08201e-08
1.96744e-08
1.85918e-08
1.75688e-08
1.66021e-08
1.56886e-08
1.48254e-08
1.40098e-08
1.32391e-08
1.25108e-08
1.18226e-08
1.11723e-08
1.05578e-08
9.97721e-09
9.42857e-09
8.91016e-09
8.42032e-09
7.95747e-09
7.52014e-09
7.10691e-09
6.71647e-09
6.34756e-09
5.999e-09
5.66968e-09
5.35854e-09
5.06457e-09
4.78685e-09
4.52447e-09
4.2766e-09
4.04244e-09
3.82124e-09
3.6123e-09
3.41494e-09
3.22853e-09
3.05247e-09
2.8862e-09
2.72919e-09
2.58092e-09
2.44094e-09
2.30878e-09
2.18403e-09
2.06628e-09
1.95515e-09
1.8503e-09
1.75138e-09
1.65808e-09
1.5701e-09
1.48715e-09
1.40897e-09
1.33531e-09
1.26594e-09
1.20062e-09
1.13916e-09
1.08135e-09
1.02701e-09
9.75968e-10
9.28055e-10
8.83118e-10
8.41016e-10
8.01611e-10
7.64779e-10
7.30401e-10
6.98366e-10
6.68573e-10
6.40925e-10
6.15334e-10
5.91718e-10
5.70001e-10
5.50113e-10
5.31991e-10
5.15576e-10
5.00817e-10
4.87665e-10
4.76078e-10
4.6602e-10
4.57458e-10
4.50364e-10
4.44716e-10
4.40496e-10
4.3769e-10
4.3629e-10
)
;
    }
    Wall
    {
        type            calculated;
        value           nonuniform List<scalar> 
400
(
0.734673
0.712424
0.691347
0.670899
0.650826
0.631001
0.611366
0.591895
0.572587
0.553451
0.534506
0.515774
0.497281
0.479053
0.461117
0.443498
0.42622
0.409304
0.392771
0.376637
0.360918
0.345625
0.33077
0.316359
0.302397
0.288889
0.275835
0.263234
0.251085
0.239384
0.228124
0.217301
0.206907
0.196932
0.187369
0.178207
0.169435
0.161044
0.153022
0.145357
0.138038
0.131053
0.124391
0.118039
0.111987
0.106223
0.100735
0.0955123
0.0905441
0.0858196
0.0813284
0.0770603
0.0730056
0.0691547
0.0654983
0.0620276
0.0587339
0.0556089
0.0526446
0.0498334
0.0471679
0.0446409
0.0422458
0.039976
0.0378252
0.0357877
0.0338576
0.0320295
0.0302983
0.0286591
0.027107
0.0256377
0.0242469
0.0229304
0.0216846
0.0205055
0.0193898
0.0183342
0.0173354
0.0163905
0.0154966
0.014651
0.0138512
0.0130947
0.0123793
0.0117026
0.0110627
0.0104576
0.00988533
0.00934423
0.0088326
0.00834884
0.00789145
0.00745901
0.00705017
0.00666365
0.00629824
0.0059528
0.00562624
0.00531754
0.00502573
0.00474989
0.00448914
0.00424268
0.00400971
0.00378951
0.00358138
0.00338465
0.00319871
0.00302297
0.00285686
0.00269987
0.0025515
0.00241126
0.00227873
0.00215347
0.00203508
0.0019232
0.00181746
0.00171753
0.00162309
0.00153384
0.00144949
0.00136978
0.00129444
0.00122325
0.00115597
0.00109239
0.0010323
0.00097552
0.000921858
0.000871147
0.000823224
0.000777937
0.000735139
0.000694696
0.000656476
0.000620358
0.000586227
0.000553973
0.000523494
0.000494691
0.000467472
0.00044175
0.000417444
0.000394474
0.000372768
0.000352257
0.000332873
0.000314557
0.000297248
0.000280891
0.000265434
0.000250828
0.000237025
0.000223982
0.000211656
0.000200009
0.000189003
0.000178602
0.000168773
0.000159486
0.000150709
0.000142415
0.000134578
0.000127172
0.000120173
0.00011356
0.000107311
0.000101405
9.58247e-05
9.05512e-05
8.5568e-05
8.08589e-05
7.64091e-05
7.22041e-05
6.82305e-05
6.44756e-05
6.09273e-05
5.75743e-05
5.44058e-05
5.14117e-05
4.85823e-05
4.59087e-05
4.33822e-05
4.09947e-05
3.87386e-05
3.66067e-05
3.45921e-05
3.26884e-05
3.08894e-05
2.91895e-05
2.75831e-05
2.60651e-05
2.46306e-05
2.32751e-05
2.19942e-05
2.07838e-05
1.964e-05
1.85591e-05
1.75377e-05
1.65726e-05
1.56605e-05
1.47987e-05
1.39842e-05
1.32146e-05
1.24874e-05
1.18002e-05
1.11508e-05
1.05371e-05
9.95719e-06
9.4092e-06
8.89138e-06
8.40205e-06
7.93966e-06
7.50271e-06
7.0898e-06
6.69962e-06
6.33092e-06
5.9825e-06
5.65326e-06
5.34214e-06
5.04814e-06
4.77032e-06
4.50779e-06
4.25971e-06
4.02528e-06
3.80376e-06
3.59442e-06
3.3966e-06
3.20968e-06
3.03303e-06
2.86611e-06
2.70838e-06
2.55933e-06
2.41848e-06
2.28538e-06
2.1596e-06
2.04075e-06
1.92844e-06
1.82231e-06
1.72202e-06
1.62725e-06
1.5377e-06
1.45307e-06
1.3731e-06
1.29754e-06
1.22613e-06
1.15865e-06
1.09488e-06
1.03463e-06
9.77687e-07
9.2388e-07
8.73035e-07
8.24988e-07
7.79586e-07
7.36682e-07
6.96139e-07
6.57827e-07
6.21624e-07
5.87413e-07
5.55085e-07
5.24536e-07
4.95669e-07
4.6839e-07
4.42612e-07
4.18253e-07
3.95235e-07
3.73483e-07
3.52928e-07
3.33505e-07
3.15151e-07
2.97806e-07
2.81417e-07
2.65929e-07
2.51294e-07
2.37464e-07
2.24395e-07
2.12045e-07
2.00375e-07
1.89348e-07
1.78927e-07
1.69079e-07
1.59774e-07
1.50981e-07
1.42672e-07
1.3482e-07
1.274e-07
1.20388e-07
1.13763e-07
1.07502e-07
1.01585e-07
9.59944e-08
9.07113e-08
8.57189e-08
8.10013e-08
7.65434e-08
7.23308e-08
6.835e-08
6.45883e-08
6.10336e-08
5.76746e-08
5.45005e-08
5.1501e-08
4.86666e-08
4.59883e-08
4.34573e-08
4.10656e-08
3.88056e-08
3.66699e-08
3.46518e-08
3.27448e-08
3.09428e-08
2.92399e-08
2.76307e-08
2.61102e-08
2.46733e-08
2.33155e-08
2.20325e-08
2.08201e-08
1.96744e-08
1.85918e-08
1.75688e-08
1.66021e-08
1.56886e-08
1.48254e-08
1.40098e-08
1.32391e-08
1.25108e-08
1.18226e-08
1.11723e-08
1.05578e-08
9.97721e-09
9.42857e-09
8.91016e-09
8.42032e-09
7.95747e-09
7.52014e-09
7.10691e-09
6.71647e-09
6.34756e-09
5.999e-09
5.66968e-09
5.35854e-09
5.06457e-09
4.78685e-09
4.52447e-09
4.2766e-09
4.04244e-09
3.82124e-09
3.6123e-09
3.41494e-09
3.22853e-09
3.05247e-09
2.8862e-09
2.72919e-09
2.58093e-09
2.44094e-09
2.30878e-09
2.18403e-09
2.06628e-09
1.95515e-09
1.8503e-09
1.75138e-09
1.65808e-09
1.5701e-09
1.48715e-09
1.40897e-09
1.33531e-09
1.26594e-09
1.20062e-09
1.13916e-09
1.08135e-09
1.02701e-09
9.75968e-10
9.28055e-10
8.83119e-10
8.41016e-10
8.01612e-10
7.64779e-10
7.30401e-10
6.98367e-10
6.68573e-10
6.40925e-10
6.15334e-10
5.91718e-10
5.70001e-10
5.50113e-10
5.31991e-10
5.15576e-10
5.00817e-10
4.87665e-10
4.76078e-10
4.6602e-10
4.57458e-10
4.50364e-10
4.44716e-10
4.40496e-10
4.3769e-10
4.3629e-10
)
;
    }
}


// ************************************************************************* //
