/*--------------------------------*- C++ -*----------------------------------*\
  =========                 |
  \\      /  F ield         | OpenFOAM: The Open Source CFD Toolbox
   \\    /   O peration     | Website:  https://openfoam.org
    \\  /    A nd           | Version:  10
     \\/     M anipulation  |
\*---------------------------------------------------------------------------*/
FoamFile
{
    format      ascii;
    class       volScalarField;
    location    "0.72";
    object      N1;
}
// * * * * * * * * * * * * * * * * * * * * * * * * * * * * * * * * * * * * * //

dimensions      [0 0 0 0 0 0 0];

internalField   nonuniform List<scalar> 
8000
(
3.49756e-12
1.04784e-11
1.74216e-11
2.4308e-11
3.1121e-11
3.78462e-11
4.44709e-11
5.0984e-11
5.73758e-11
6.36377e-11
6.97625e-11
7.57441e-11
8.15775e-11
8.72584e-11
9.2784e-11
9.81517e-11
1.0336e-10
1.08408e-10
1.13297e-10
1.18025e-10
1.22594e-10
1.27006e-10
1.31262e-10
1.35365e-10
1.39317e-10
1.4312e-10
1.46777e-10
1.50293e-10
1.53669e-10
1.56909e-10
1.60017e-10
1.62996e-10
1.6585e-10
1.68581e-10
1.71194e-10
1.73692e-10
1.76078e-10
1.78356e-10
1.80529e-10
1.826e-10
1.84572e-10
1.86449e-10
1.88234e-10
1.89929e-10
1.91537e-10
1.93062e-10
1.94505e-10
1.95869e-10
1.97157e-10
1.98371e-10
1.99514e-10
2.00587e-10
2.01593e-10
2.02534e-10
2.03412e-10
2.04228e-10
2.04985e-10
2.05684e-10
2.06328e-10
2.06916e-10
2.07452e-10
2.07937e-10
2.08372e-10
2.08758e-10
2.09096e-10
2.09389e-10
2.09637e-10
2.09842e-10
2.10004e-10
2.10124e-10
2.10204e-10
2.10245e-10
2.10248e-10
2.10213e-10
2.10141e-10
2.10034e-10
2.09892e-10
2.09716e-10
2.09506e-10
2.09264e-10
2.08991e-10
2.08686e-10
2.08351e-10
2.07986e-10
2.07592e-10
2.0717e-10
2.0672e-10
2.06243e-10
2.05739e-10
2.05209e-10
2.04654e-10
2.04074e-10
2.03469e-10
2.02841e-10
2.02189e-10
2.01515e-10
2.00818e-10
2.00099e-10
1.99359e-10
1.98598e-10
1.97817e-10
1.97016e-10
1.96195e-10
1.95355e-10
1.94496e-10
1.9362e-10
1.92725e-10
1.91814e-10
1.90885e-10
1.8994e-10
1.88979e-10
1.88002e-10
1.8701e-10
1.86004e-10
1.84982e-10
1.83947e-10
1.82898e-10
1.81836e-10
1.80761e-10
1.79674e-10
1.78574e-10
1.77463e-10
1.7634e-10
1.75207e-10
1.74062e-10
1.72908e-10
1.71743e-10
1.7057e-10
1.69387e-10
1.68195e-10
1.66995e-10
1.65786e-10
1.6457e-10
1.63347e-10
1.62116e-10
1.60879e-10
1.59635e-10
1.58386e-10
1.5713e-10
1.5587e-10
1.54604e-10
1.53333e-10
1.52058e-10
1.50779e-10
1.49496e-10
1.4821e-10
1.4692e-10
1.45628e-10
1.44333e-10
1.43036e-10
1.41737e-10
1.40436e-10
1.39134e-10
1.37831e-10
1.36526e-10
1.35222e-10
1.33917e-10
1.32612e-10
1.31307e-10
1.30003e-10
1.28699e-10
1.27397e-10
1.26096e-10
1.24796e-10
1.23499e-10
1.22203e-10
1.2091e-10
1.19619e-10
1.1833e-10
1.17045e-10
1.15763e-10
1.14484e-10
1.13209e-10
1.11938e-10
1.1067e-10
1.09407e-10
1.08148e-10
1.06894e-10
1.05645e-10
1.04401e-10
1.03161e-10
1.01927e-10
1.00699e-10
9.94763e-11
9.82595e-11
9.70486e-11
9.58438e-11
9.46454e-11
9.34534e-11
9.2268e-11
9.10894e-11
8.99176e-11
8.87528e-11
8.75951e-11
8.64447e-11
8.53016e-11
8.41661e-11
8.30381e-11
8.19179e-11
8.08054e-11
7.97009e-11
7.86043e-11
7.75159e-11
7.64357e-11
7.53637e-11
7.43001e-11
7.32449e-11
7.21982e-11
7.11601e-11
7.01306e-11
6.91099e-11
6.80979e-11
6.70947e-11
6.61004e-11
6.51151e-11
6.41387e-11
6.31713e-11
6.2213e-11
6.12637e-11
6.03236e-11
5.93926e-11
5.84708e-11
5.75582e-11
5.66549e-11
5.57607e-11
5.48759e-11
5.40003e-11
5.3134e-11
5.22769e-11
5.14292e-11
5.05907e-11
4.97615e-11
4.89416e-11
4.8131e-11
4.73297e-11
4.65376e-11
4.57547e-11
4.49811e-11
4.42167e-11
4.34614e-11
4.27154e-11
4.19784e-11
4.12506e-11
4.05319e-11
3.98222e-11
3.91215e-11
3.84298e-11
3.77471e-11
3.70733e-11
3.64083e-11
3.57521e-11
3.51048e-11
3.44662e-11
3.38362e-11
3.32149e-11
3.26022e-11
3.19981e-11
3.14024e-11
3.08151e-11
3.02363e-11
2.96657e-11
2.91035e-11
2.85494e-11
2.80035e-11
2.74657e-11
2.69359e-11
2.6414e-11
2.59001e-11
2.5394e-11
2.48957e-11
2.4405e-11
2.39221e-11
2.34466e-11
2.29787e-11
2.25183e-11
2.20652e-11
2.16194e-11
2.11808e-11
2.07494e-11
2.0325e-11
1.99077e-11
1.94973e-11
1.90939e-11
1.86972e-11
1.83072e-11
1.79239e-11
1.75471e-11
1.71769e-11
1.68131e-11
1.64557e-11
1.61046e-11
1.57597e-11
1.54209e-11
1.50882e-11
1.47615e-11
1.44408e-11
1.41259e-11
1.38167e-11
1.35133e-11
1.32155e-11
1.29233e-11
1.26366e-11
1.23553e-11
1.20793e-11
1.18087e-11
1.15432e-11
1.12829e-11
1.10276e-11
1.07773e-11
1.0532e-11
1.02915e-11
1.00559e-11
9.8249e-12
9.59861e-12
9.3769e-12
9.15973e-12
8.94701e-12
8.73868e-12
8.53469e-12
8.33496e-12
8.13944e-12
7.94805e-12
7.76074e-12
7.57745e-12
7.39811e-12
7.22267e-12
7.05106e-12
6.88322e-12
6.7191e-12
6.55865e-12
6.40179e-12
6.24848e-12
6.09866e-12
5.95228e-12
5.80928e-12
5.66961e-12
5.53321e-12
5.40004e-12
5.27004e-12
5.14316e-12
5.01935e-12
4.89856e-12
4.78076e-12
4.66588e-12
4.55388e-12
4.44471e-12
4.33834e-12
4.23471e-12
4.13379e-12
4.03552e-12
3.93987e-12
3.84681e-12
3.75627e-12
3.66824e-12
3.58266e-12
3.49951e-12
3.41874e-12
3.34032e-12
3.26421e-12
3.19038e-12
3.11879e-12
3.04942e-12
2.98222e-12
2.91718e-12
2.85425e-12
2.7934e-12
2.73462e-12
2.67787e-12
2.62313e-12
2.57036e-12
2.51954e-12
2.47066e-12
2.42367e-12
2.37857e-12
2.33533e-12
2.29392e-12
2.25434e-12
2.21654e-12
2.18053e-12
2.14628e-12
2.11377e-12
2.08299e-12
2.05391e-12
2.02654e-12
2.00084e-12
1.97682e-12
1.95445e-12
1.93373e-12
1.91465e-12
1.89718e-12
1.88134e-12
1.8671e-12
1.85446e-12
1.84342e-12
1.83396e-12
1.82609e-12
1.8198e-12
1.81508e-12
1.81194e-12
1.81037e-12
3.53337e-12
1.0589e-11
1.76127e-11
2.45863e-11
3.14933e-11
3.83194e-11
4.50515e-11
5.16784e-11
5.81897e-11
6.45767e-11
7.08316e-11
7.69479e-11
8.29199e-11
8.87432e-11
9.44139e-11
9.99294e-11
1.05288e-10
1.10487e-10
1.15527e-10
1.20408e-10
1.2513e-10
1.29694e-10
1.34102e-10
1.38354e-10
1.42454e-10
1.46404e-10
1.50206e-10
1.53863e-10
1.57379e-10
1.60756e-10
1.63997e-10
1.67106e-10
1.70086e-10
1.7294e-10
1.75673e-10
1.78287e-10
1.80785e-10
1.83171e-10
1.85449e-10
1.87621e-10
1.89691e-10
1.91662e-10
1.93536e-10
1.95318e-10
1.97009e-10
1.98612e-10
2.00131e-10
2.01567e-10
2.02924e-10
2.04204e-10
2.05409e-10
2.06541e-10
2.07603e-10
2.08597e-10
2.09525e-10
2.10389e-10
2.1119e-10
2.11931e-10
2.12613e-10
2.13239e-10
2.13809e-10
2.14325e-10
2.14789e-10
2.15202e-10
2.15566e-10
2.15882e-10
2.1615e-10
2.16373e-10
2.16552e-10
2.16688e-10
2.16781e-10
2.16833e-10
2.16845e-10
2.16818e-10
2.16752e-10
2.1665e-10
2.16511e-10
2.16336e-10
2.16127e-10
2.15884e-10
2.15607e-10
2.15299e-10
2.14958e-10
2.14587e-10
2.14185e-10
2.13754e-10
2.13294e-10
2.12806e-10
2.1229e-10
2.11747e-10
2.11177e-10
2.10582e-10
2.09961e-10
2.09315e-10
2.08645e-10
2.07952e-10
2.07235e-10
2.06496e-10
2.05734e-10
2.04951e-10
2.04146e-10
2.03321e-10
2.02476e-10
2.0161e-10
2.00726e-10
1.99823e-10
1.98901e-10
1.97961e-10
1.97004e-10
1.9603e-10
1.95039e-10
1.94032e-10
1.93009e-10
1.91971e-10
1.90918e-10
1.8985e-10
1.88768e-10
1.87672e-10
1.86564e-10
1.85442e-10
1.84307e-10
1.83161e-10
1.82003e-10
1.80833e-10
1.79653e-10
1.78461e-10
1.7726e-10
1.76049e-10
1.74828e-10
1.73598e-10
1.7236e-10
1.71113e-10
1.69858e-10
1.68596e-10
1.67326e-10
1.66049e-10
1.64766e-10
1.63476e-10
1.6218e-10
1.60879e-10
1.59573e-10
1.58262e-10
1.56946e-10
1.55626e-10
1.54302e-10
1.52974e-10
1.51643e-10
1.5031e-10
1.48973e-10
1.47634e-10
1.46294e-10
1.44951e-10
1.43607e-10
1.42262e-10
1.40916e-10
1.39569e-10
1.38222e-10
1.36875e-10
1.35529e-10
1.34183e-10
1.32837e-10
1.31493e-10
1.3015e-10
1.28809e-10
1.2747e-10
1.26132e-10
1.24797e-10
1.23465e-10
1.22135e-10
1.20809e-10
1.19485e-10
1.18165e-10
1.16849e-10
1.15537e-10
1.14229e-10
1.12925e-10
1.11626e-10
1.10332e-10
1.09042e-10
1.07758e-10
1.06479e-10
1.05205e-10
1.03937e-10
1.02675e-10
1.01419e-10
1.00169e-10
9.89259e-11
9.76889e-11
9.64586e-11
9.52351e-11
9.40185e-11
9.28091e-11
9.16068e-11
9.04119e-11
8.92245e-11
8.80447e-11
8.68727e-11
8.57084e-11
8.45521e-11
8.34039e-11
8.22639e-11
8.11321e-11
8.00086e-11
7.88937e-11
7.77872e-11
7.66894e-11
7.56003e-11
7.452e-11
7.34485e-11
7.23859e-11
7.13323e-11
7.02878e-11
6.92524e-11
6.82261e-11
6.7209e-11
6.62012e-11
6.52027e-11
6.42136e-11
6.32338e-11
6.22635e-11
6.13026e-11
6.03511e-11
5.94092e-11
5.84768e-11
5.75539e-11
5.66406e-11
5.57368e-11
5.48426e-11
5.3958e-11
5.3083e-11
5.22176e-11
5.13618e-11
5.05155e-11
4.96788e-11
4.88517e-11
4.80341e-11
4.72261e-11
4.64276e-11
4.56386e-11
4.48591e-11
4.4089e-11
4.33284e-11
4.25772e-11
4.18353e-11
4.11028e-11
4.03796e-11
3.96657e-11
3.8961e-11
3.82655e-11
3.75791e-11
3.69019e-11
3.62337e-11
3.55745e-11
3.49243e-11
3.42831e-11
3.36507e-11
3.30271e-11
3.24122e-11
3.18061e-11
3.12086e-11
3.06197e-11
3.00394e-11
2.94675e-11
2.8904e-11
2.83489e-11
2.78021e-11
2.72635e-11
2.6733e-11
2.62106e-11
2.56963e-11
2.51899e-11
2.46913e-11
2.42006e-11
2.37177e-11
2.32424e-11
2.27747e-11
2.23146e-11
2.18619e-11
2.14166e-11
2.09787e-11
2.05479e-11
2.01243e-11
1.97079e-11
1.92984e-11
1.88959e-11
1.85003e-11
1.81114e-11
1.77293e-11
1.73538e-11
1.69849e-11
1.66225e-11
1.62665e-11
1.59168e-11
1.55735e-11
1.52363e-11
1.49052e-11
1.45801e-11
1.42611e-11
1.39479e-11
1.36405e-11
1.33389e-11
1.3043e-11
1.27526e-11
1.24678e-11
1.21884e-11
1.19144e-11
1.16457e-11
1.13822e-11
1.11239e-11
1.08707e-11
1.06225e-11
1.03792e-11
1.01409e-11
9.90728e-12
9.67845e-12
9.45429e-12
9.23473e-12
9.01971e-12
8.80915e-12
8.603e-12
8.40119e-12
8.20365e-12
8.01031e-12
7.82113e-12
7.63602e-12
7.45493e-12
7.27781e-12
7.10457e-12
6.93518e-12
6.76956e-12
6.60766e-12
6.44942e-12
6.29479e-12
6.1437e-12
5.9961e-12
5.85193e-12
5.71115e-12
5.57369e-12
5.43951e-12
5.30855e-12
5.18076e-12
5.05609e-12
4.9345e-12
4.81592e-12
4.70032e-12
4.58765e-12
4.47785e-12
4.37089e-12
4.26672e-12
4.1653e-12
4.06657e-12
3.97051e-12
3.87707e-12
3.7862e-12
3.69788e-12
3.61205e-12
3.52868e-12
3.44774e-12
3.36918e-12
3.29298e-12
3.21909e-12
3.14748e-12
3.07813e-12
3.01099e-12
2.94603e-12
2.88324e-12
2.82256e-12
2.76399e-12
2.70748e-12
2.65302e-12
2.60057e-12
2.55011e-12
2.50162e-12
2.45506e-12
2.41043e-12
2.36769e-12
2.32683e-12
2.28782e-12
2.25065e-12
2.2153e-12
2.18174e-12
2.14997e-12
2.11996e-12
2.09171e-12
2.06519e-12
2.04039e-12
2.01731e-12
1.99592e-12
1.97622e-12
1.95819e-12
1.94184e-12
1.92714e-12
1.9141e-12
1.9027e-12
1.89294e-12
1.88482e-12
1.87832e-12
1.87345e-12
1.87021e-12
1.86859e-12
3.56849e-12
1.06959e-11
1.7795e-11
2.48488e-11
3.18413e-11
3.87583e-11
4.55868e-11
5.23152e-11
5.89332e-11
6.54316e-11
7.18023e-11
7.80384e-11
8.41337e-11
9.00834e-11
9.58833e-11
1.0153e-10
1.07021e-10
1.12355e-10
1.17531e-10
1.22547e-10
1.27405e-10
1.32105e-10
1.36647e-10
1.41033e-10
1.45266e-10
1.49347e-10
1.53278e-10
1.57062e-10
1.60701e-10
1.642e-10
1.6756e-10
1.70786e-10
1.73879e-10
1.76844e-10
1.79683e-10
1.82401e-10
1.85e-10
1.87484e-10
1.89856e-10
1.92118e-10
1.94276e-10
1.9633e-10
1.98286e-10
2.00145e-10
2.0191e-10
2.03585e-10
2.05171e-10
2.06673e-10
2.08091e-10
2.0943e-10
2.10691e-10
2.11877e-10
2.12989e-10
2.14031e-10
2.15004e-10
2.1591e-10
2.16752e-10
2.1753e-10
2.18248e-10
2.18907e-10
2.19507e-10
2.20052e-10
2.20543e-10
2.20981e-10
2.21367e-10
2.21703e-10
2.2199e-10
2.2223e-10
2.22424e-10
2.22573e-10
2.22678e-10
2.2274e-10
2.22761e-10
2.22741e-10
2.22681e-10
2.22583e-10
2.22446e-10
2.22273e-10
2.22064e-10
2.2182e-10
2.21542e-10
2.21229e-10
2.20884e-10
2.20507e-10
2.20099e-10
2.1966e-10
2.19191e-10
2.18693e-10
2.18166e-10
2.17611e-10
2.17028e-10
2.16419e-10
2.15784e-10
2.15123e-10
2.14437e-10
2.13726e-10
2.12991e-10
2.12233e-10
2.11453e-10
2.10649e-10
2.09824e-10
2.08977e-10
2.0811e-10
2.07222e-10
2.06314e-10
2.05387e-10
2.04441e-10
2.03476e-10
2.02493e-10
2.01493e-10
2.00475e-10
1.99441e-10
1.9839e-10
1.97324e-10
1.96242e-10
1.95145e-10
1.94034e-10
1.92908e-10
1.91769e-10
1.90616e-10
1.89451e-10
1.88273e-10
1.87083e-10
1.85881e-10
1.84668e-10
1.83444e-10
1.82209e-10
1.80964e-10
1.7971e-10
1.78446e-10
1.77173e-10
1.75892e-10
1.74602e-10
1.73304e-10
1.71999e-10
1.70687e-10
1.69368e-10
1.68042e-10
1.66711e-10
1.65374e-10
1.64031e-10
1.62683e-10
1.61331e-10
1.59974e-10
1.58613e-10
1.57248e-10
1.5588e-10
1.54509e-10
1.53136e-10
1.5176e-10
1.50381e-10
1.49001e-10
1.4762e-10
1.46237e-10
1.44854e-10
1.43469e-10
1.42085e-10
1.40701e-10
1.39316e-10
1.37933e-10
1.3655e-10
1.35168e-10
1.33788e-10
1.32409e-10
1.31032e-10
1.29657e-10
1.28285e-10
1.26915e-10
1.25549e-10
1.24185e-10
1.22825e-10
1.21468e-10
1.20115e-10
1.18766e-10
1.17422e-10
1.16081e-10
1.14746e-10
1.13415e-10
1.1209e-10
1.10769e-10
1.09455e-10
1.08146e-10
1.06842e-10
1.05545e-10
1.04254e-10
1.02969e-10
1.01691e-10
1.00419e-10
9.91547e-11
9.7897e-11
9.66464e-11
9.54031e-11
9.41673e-11
9.2939e-11
9.17184e-11
9.05056e-11
8.93008e-11
8.8104e-11
8.69154e-11
8.57351e-11
8.45632e-11
8.33998e-11
8.2245e-11
8.10988e-11
7.99615e-11
7.8833e-11
7.77134e-11
7.66029e-11
7.55014e-11
7.44092e-11
7.33261e-11
7.22524e-11
7.1188e-11
7.01331e-11
6.90876e-11
6.80516e-11
6.70252e-11
6.60084e-11
6.50013e-11
6.40038e-11
6.30161e-11
6.2038e-11
6.10698e-11
6.01113e-11
5.91626e-11
5.82238e-11
5.72947e-11
5.63756e-11
5.54662e-11
5.45668e-11
5.36772e-11
5.27974e-11
5.19275e-11
5.10674e-11
5.02172e-11
4.93768e-11
4.85461e-11
4.77253e-11
4.69143e-11
4.6113e-11
4.53214e-11
4.45395e-11
4.37673e-11
4.30047e-11
4.22517e-11
4.15083e-11
4.07744e-11
4.005e-11
3.9335e-11
3.86295e-11
3.79333e-11
3.72465e-11
3.65689e-11
3.59005e-11
3.52413e-11
3.45912e-11
3.39502e-11
3.33182e-11
3.26951e-11
3.2081e-11
3.14756e-11
3.0879e-11
3.02912e-11
2.97119e-11
2.91413e-11
2.85792e-11
2.80255e-11
2.74802e-11
2.69432e-11
2.64145e-11
2.58939e-11
2.53815e-11
2.48771e-11
2.43806e-11
2.38921e-11
2.34113e-11
2.29383e-11
2.2473e-11
2.20153e-11
2.1565e-11
2.11223e-11
2.06869e-11
2.02587e-11
1.98378e-11
1.94241e-11
1.90174e-11
1.86177e-11
1.82249e-11
1.78389e-11
1.74597e-11
1.70871e-11
1.67212e-11
1.63617e-11
1.60088e-11
1.56621e-11
1.53218e-11
1.49877e-11
1.46597e-11
1.43378e-11
1.40218e-11
1.37118e-11
1.34075e-11
1.31091e-11
1.28163e-11
1.25291e-11
1.22474e-11
1.19712e-11
1.17004e-11
1.14348e-11
1.11745e-11
1.09194e-11
1.06693e-11
1.04243e-11
1.01842e-11
9.94897e-12
9.71855e-12
9.49285e-12
9.27182e-12
9.05538e-12
8.84347e-12
8.63601e-12
8.43295e-12
8.23421e-12
8.03974e-12
7.84946e-12
7.66331e-12
7.48123e-12
7.30316e-12
7.12903e-12
6.95878e-12
6.79236e-12
6.62969e-12
6.47074e-12
6.31542e-12
6.1637e-12
6.0155e-12
5.87078e-12
5.72949e-12
5.59155e-12
5.45693e-12
5.32557e-12
5.19742e-12
5.07242e-12
4.95053e-12
4.8317e-12
4.71588e-12
4.60301e-12
4.49306e-12
4.38598e-12
4.28172e-12
4.18024e-12
4.08149e-12
3.98544e-12
3.89203e-12
3.80124e-12
3.71301e-12
3.62731e-12
3.54411e-12
3.46335e-12
3.38502e-12
3.30907e-12
3.23546e-12
3.16416e-12
3.09515e-12
3.02838e-12
2.96383e-12
2.90146e-12
2.84125e-12
2.78316e-12
2.72717e-12
2.67326e-12
2.62139e-12
2.57154e-12
2.52369e-12
2.4778e-12
2.43387e-12
2.39187e-12
2.35177e-12
2.31356e-12
2.27722e-12
2.24273e-12
2.21007e-12
2.17922e-12
2.15017e-12
2.12291e-12
2.09742e-12
2.07369e-12
2.05171e-12
2.03146e-12
2.01293e-12
1.99612e-12
1.98101e-12
1.9676e-12
1.95588e-12
1.94585e-12
1.9375e-12
1.93082e-12
1.92582e-12
1.92248e-12
1.92082e-12
3.60128e-12
1.07951e-11
1.79632e-11
2.50893e-11
3.21582e-11
3.91558e-11
4.60695e-11
5.28874e-11
5.95991e-11
6.61952e-11
7.26674e-11
7.90083e-11
8.52116e-11
9.1272e-11
9.71849e-11
1.02947e-10
1.08554e-10
1.14006e-10
1.193e-10
1.24435e-10
1.29412e-10
1.34231e-10
1.38891e-10
1.43395e-10
1.47744e-10
1.51939e-10
1.55983e-10
1.59879e-10
1.63628e-10
1.67233e-10
1.70699e-10
1.74026e-10
1.77219e-10
1.80281e-10
1.83215e-10
1.86025e-10
1.88712e-10
1.91282e-10
1.93737e-10
1.96079e-10
1.98314e-10
2.00443e-10
2.02469e-10
2.04397e-10
2.06228e-10
2.07965e-10
2.09612e-10
2.11171e-10
2.12644e-10
2.14035e-10
2.15346e-10
2.16578e-10
2.17736e-10
2.1882e-10
2.19833e-10
2.20777e-10
2.21654e-10
2.22466e-10
2.23215e-10
2.23903e-10
2.24531e-10
2.25101e-10
2.25615e-10
2.26075e-10
2.26481e-10
2.26835e-10
2.27139e-10
2.27394e-10
2.27602e-10
2.27762e-10
2.27878e-10
2.27949e-10
2.27978e-10
2.27964e-10
2.27909e-10
2.27815e-10
2.27681e-10
2.27509e-10
2.27301e-10
2.27055e-10
2.26775e-10
2.2646e-10
2.26111e-10
2.25729e-10
2.25314e-10
2.24868e-10
2.24392e-10
2.23885e-10
2.23348e-10
2.22783e-10
2.22189e-10
2.21568e-10
2.2092e-10
2.20245e-10
2.19545e-10
2.18819e-10
2.18069e-10
2.17294e-10
2.16496e-10
2.15675e-10
2.14832e-10
2.13967e-10
2.1308e-10
2.12172e-10
2.11243e-10
2.10295e-10
2.09327e-10
2.0834e-10
2.07335e-10
2.06311e-10
2.0527e-10
2.04212e-10
2.03137e-10
2.02046e-10
2.00938e-10
1.99816e-10
1.98678e-10
1.97527e-10
1.9636e-10
1.95181e-10
1.93988e-10
1.92782e-10
1.91564e-10
1.90333e-10
1.89091e-10
1.87838e-10
1.86575e-10
1.853e-10
1.84016e-10
1.82722e-10
1.81419e-10
1.80107e-10
1.78787e-10
1.77458e-10
1.76122e-10
1.74778e-10
1.73428e-10
1.72071e-10
1.70707e-10
1.69338e-10
1.67963e-10
1.66583e-10
1.65199e-10
1.63809e-10
1.62416e-10
1.61019e-10
1.59618e-10
1.58214e-10
1.56808e-10
1.55399e-10
1.53987e-10
1.52574e-10
1.5116e-10
1.49744e-10
1.48327e-10
1.4691e-10
1.45492e-10
1.44075e-10
1.42657e-10
1.41241e-10
1.39825e-10
1.3841e-10
1.36996e-10
1.35585e-10
1.34175e-10
1.32767e-10
1.31362e-10
1.29959e-10
1.2856e-10
1.27163e-10
1.2577e-10
1.24381e-10
1.22996e-10
1.21615e-10
1.20238e-10
1.18865e-10
1.17498e-10
1.16135e-10
1.14778e-10
1.13426e-10
1.1208e-10
1.10739e-10
1.09405e-10
1.08076e-10
1.06754e-10
1.05439e-10
1.0413e-10
1.02828e-10
1.01533e-10
1.00245e-10
9.89645e-11
9.76914e-11
9.64259e-11
9.51682e-11
9.39183e-11
9.26765e-11
9.14427e-11
9.02173e-11
8.90002e-11
8.77915e-11
8.65915e-11
8.54002e-11
8.42177e-11
8.3044e-11
8.18794e-11
8.07238e-11
7.95774e-11
7.84402e-11
7.73124e-11
7.61939e-11
7.50849e-11
7.39854e-11
7.28955e-11
7.18153e-11
7.07447e-11
6.96839e-11
6.86329e-11
6.75917e-11
6.65604e-11
6.5539e-11
6.45275e-11
6.35261e-11
6.25346e-11
6.15531e-11
6.05817e-11
5.96203e-11
5.8669e-11
5.77278e-11
5.67966e-11
5.58756e-11
5.49646e-11
5.40638e-11
5.3173e-11
5.22923e-11
5.14217e-11
5.05611e-11
4.97106e-11
4.88701e-11
4.80395e-11
4.7219e-11
4.64084e-11
4.56078e-11
4.48171e-11
4.40362e-11
4.32651e-11
4.25039e-11
4.17524e-11
4.10106e-11
4.02785e-11
3.95561e-11
3.88432e-11
3.81399e-11
3.7446e-11
3.67616e-11
3.60866e-11
3.54209e-11
3.47645e-11
3.41174e-11
3.34794e-11
3.28504e-11
3.22306e-11
3.16197e-11
3.10177e-11
3.04246e-11
2.98403e-11
2.92647e-11
2.86977e-11
2.81394e-11
2.75895e-11
2.70481e-11
2.6515e-11
2.59903e-11
2.54738e-11
2.49654e-11
2.44651e-11
2.39729e-11
2.34885e-11
2.3012e-11
2.25433e-11
2.20823e-11
2.16289e-11
2.1183e-11
2.07447e-11
2.03137e-11
1.989e-11
1.94735e-11
1.90642e-11
1.8662e-11
1.82668e-11
1.78785e-11
1.7497e-11
1.71222e-11
1.67542e-11
1.63927e-11
1.60378e-11
1.56893e-11
1.53472e-11
1.50113e-11
1.46817e-11
1.43581e-11
1.40406e-11
1.37291e-11
1.34235e-11
1.31237e-11
1.28296e-11
1.25412e-11
1.22583e-11
1.1981e-11
1.17091e-11
1.14426e-11
1.11813e-11
1.09253e-11
1.06743e-11
1.04285e-11
1.01876e-11
9.95166e-12
9.72055e-12
9.49421e-12
9.27258e-12
9.05559e-12
8.84316e-12
8.63522e-12
8.43172e-12
8.23258e-12
8.03773e-12
7.84712e-12
7.66067e-12
7.47833e-12
7.30002e-12
7.12569e-12
6.95528e-12
6.78871e-12
6.62594e-12
6.4669e-12
6.31154e-12
6.15979e-12
6.0116e-12
5.86691e-12
5.72567e-12
5.58782e-12
5.45331e-12
5.32208e-12
5.19409e-12
5.06928e-12
4.94759e-12
4.82899e-12
4.71342e-12
4.60083e-12
4.49118e-12
4.38442e-12
4.28051e-12
4.17939e-12
4.08103e-12
3.98539e-12
3.89241e-12
3.80207e-12
3.71432e-12
3.62912e-12
3.54643e-12
3.46621e-12
3.38844e-12
3.31306e-12
3.24006e-12
3.16939e-12
3.10102e-12
3.03492e-12
2.97105e-12
2.9094e-12
2.84992e-12
2.79259e-12
2.73738e-12
2.68427e-12
2.63322e-12
2.58422e-12
2.53724e-12
2.49225e-12
2.44924e-12
2.40818e-12
2.36905e-12
2.33184e-12
2.29652e-12
2.26308e-12
2.23149e-12
2.20175e-12
2.17383e-12
2.14773e-12
2.12343e-12
2.10092e-12
2.08018e-12
2.06121e-12
2.04399e-12
2.02853e-12
2.01479e-12
2.0028e-12
1.99252e-12
1.98397e-12
1.97713e-12
1.97201e-12
1.9686e-12
1.96689e-12
3.63072e-12
1.08841e-11
1.81133e-11
2.53031e-11
3.24387e-11
3.95064e-11
4.64937e-11
5.33888e-11
6.01812e-11
6.68613e-11
7.34206e-11
7.98515e-11
8.61474e-11
9.23026e-11
9.83124e-11
1.04173e-10
1.0988e-10
1.15433e-10
1.20829e-10
1.26066e-10
1.31145e-10
1.36065e-10
1.40827e-10
1.45432e-10
1.4988e-10
1.54175e-10
1.58316e-10
1.62307e-10
1.66151e-10
1.69848e-10
1.73404e-10
1.7682e-10
1.80099e-10
1.83244e-10
1.8626e-10
1.89148e-10
1.91912e-10
1.94556e-10
1.97082e-10
1.99494e-10
2.01795e-10
2.03988e-10
2.06076e-10
2.08063e-10
2.09951e-10
2.11742e-10
2.13441e-10
2.1505e-10
2.16571e-10
2.18007e-10
2.1936e-10
2.20634e-10
2.2183e-10
2.2295e-10
2.23998e-10
2.24974e-10
2.25882e-10
2.26723e-10
2.275e-10
2.28213e-10
2.28864e-10
2.29457e-10
2.29991e-10
2.3047e-10
2.30893e-10
2.31263e-10
2.31582e-10
2.3185e-10
2.32069e-10
2.3224e-10
2.32365e-10
2.32444e-10
2.32479e-10
2.32471e-10
2.32421e-10
2.3233e-10
2.32198e-10
2.32028e-10
2.31819e-10
2.31574e-10
2.31291e-10
2.30974e-10
2.30621e-10
2.30235e-10
2.29815e-10
2.29364e-10
2.2888e-10
2.28366e-10
2.27821e-10
2.27246e-10
2.26643e-10
2.26011e-10
2.25352e-10
2.24666e-10
2.23953e-10
2.23215e-10
2.22451e-10
2.21663e-10
2.2085e-10
2.20014e-10
2.19155e-10
2.18273e-10
2.17369e-10
2.16444e-10
2.15498e-10
2.14531e-10
2.13545e-10
2.12539e-10
2.11514e-10
2.10471e-10
2.09409e-10
2.0833e-10
2.07234e-10
2.06121e-10
2.04992e-10
2.03848e-10
2.02688e-10
2.01513e-10
2.00324e-10
1.99121e-10
1.97904e-10
1.96674e-10
1.95431e-10
1.94177e-10
1.9291e-10
1.91632e-10
1.90343e-10
1.89043e-10
1.87733e-10
1.86413e-10
1.85084e-10
1.83746e-10
1.82399e-10
1.81043e-10
1.7968e-10
1.7831e-10
1.76932e-10
1.75548e-10
1.74157e-10
1.7276e-10
1.71358e-10
1.6995e-10
1.68537e-10
1.6712e-10
1.65698e-10
1.64273e-10
1.62844e-10
1.61412e-10
1.59977e-10
1.5854e-10
1.571e-10
1.55658e-10
1.54215e-10
1.52771e-10
1.51326e-10
1.4988e-10
1.48433e-10
1.46987e-10
1.45541e-10
1.44096e-10
1.42651e-10
1.41208e-10
1.39766e-10
1.38326e-10
1.36887e-10
1.35451e-10
1.34018e-10
1.32587e-10
1.31159e-10
1.29734e-10
1.28313e-10
1.26896e-10
1.25483e-10
1.24073e-10
1.22669e-10
1.21269e-10
1.19874e-10
1.18484e-10
1.17099e-10
1.1572e-10
1.14346e-10
1.12978e-10
1.11617e-10
1.10262e-10
1.08913e-10
1.07571e-10
1.06235e-10
1.04907e-10
1.03586e-10
1.02272e-10
1.00965e-10
9.96666e-11
9.83755e-11
9.70924e-11
9.58172e-11
9.45503e-11
9.32916e-11
9.20414e-11
9.07996e-11
8.95666e-11
8.83423e-11
8.71269e-11
8.59205e-11
8.47231e-11
8.35349e-11
8.2356e-11
8.11864e-11
8.00262e-11
7.88756e-11
7.77345e-11
7.66031e-11
7.54814e-11
7.43694e-11
7.32673e-11
7.21751e-11
7.10929e-11
7.00206e-11
6.89584e-11
6.79062e-11
6.68641e-11
6.58322e-11
6.48105e-11
6.3799e-11
6.27977e-11
6.18066e-11
6.08258e-11
5.98552e-11
5.8895e-11
5.7945e-11
5.70054e-11
5.6076e-11
5.51569e-11
5.42481e-11
5.33496e-11
5.24614e-11
5.15834e-11
5.07157e-11
4.98582e-11
4.90109e-11
4.81738e-11
4.73468e-11
4.653e-11
4.57232e-11
4.49266e-11
4.41399e-11
4.33633e-11
4.25966e-11
4.18398e-11
4.10929e-11
4.03559e-11
3.96286e-11
3.8911e-11
3.82032e-11
3.75049e-11
3.68163e-11
3.61371e-11
3.54675e-11
3.48072e-11
3.41563e-11
3.35147e-11
3.28823e-11
3.2259e-11
3.16449e-11
3.10398e-11
3.04436e-11
2.98564e-11
2.9278e-11
2.87083e-11
2.81473e-11
2.7595e-11
2.70512e-11
2.65158e-11
2.59888e-11
2.54702e-11
2.49598e-11
2.44576e-11
2.39634e-11
2.34773e-11
2.29991e-11
2.25288e-11
2.20662e-11
2.16114e-11
2.11641e-11
2.07244e-11
2.02921e-11
1.98673e-11
1.94497e-11
1.90393e-11
1.86361e-11
1.82399e-11
1.78507e-11
1.74684e-11
1.70929e-11
1.67242e-11
1.63621e-11
1.60065e-11
1.56575e-11
1.53148e-11
1.49785e-11
1.46484e-11
1.43245e-11
1.40067e-11
1.36949e-11
1.3389e-11
1.3089e-11
1.27948e-11
1.25062e-11
1.22233e-11
1.19459e-11
1.16739e-11
1.14074e-11
1.11462e-11
1.08902e-11
1.06393e-11
1.03936e-11
1.01529e-11
9.91709e-12
9.68618e-12
9.46007e-12
9.23868e-12
9.02196e-12
8.80982e-12
8.6022e-12
8.39904e-12
8.20025e-12
8.00579e-12
7.81557e-12
7.62954e-12
7.44763e-12
7.26977e-12
7.09591e-12
6.92598e-12
6.75991e-12
6.59766e-12
6.43915e-12
6.28434e-12
6.13315e-12
5.98554e-12
5.84144e-12
5.7008e-12
5.56357e-12
5.42969e-12
5.29911e-12
5.17177e-12
5.04763e-12
4.92663e-12
4.80872e-12
4.69386e-12
4.58199e-12
4.47307e-12
4.36706e-12
4.2639e-12
4.16355e-12
4.06597e-12
3.97112e-12
3.87895e-12
3.78942e-12
3.70249e-12
3.61813e-12
3.5363e-12
3.45695e-12
3.38005e-12
3.30557e-12
3.23347e-12
3.16372e-12
3.09628e-12
3.03113e-12
2.96822e-12
2.90754e-12
2.84905e-12
2.79273e-12
2.73854e-12
2.68646e-12
2.63647e-12
2.58854e-12
2.54264e-12
2.49876e-12
2.45687e-12
2.41696e-12
2.37899e-12
2.34295e-12
2.30883e-12
2.27661e-12
2.24627e-12
2.21779e-12
2.19116e-12
2.16637e-12
2.1434e-12
2.12224e-12
2.10289e-12
2.08532e-12
2.06954e-12
2.05553e-12
2.04329e-12
2.03281e-12
2.02408e-12
2.01711e-12
2.01188e-12
2.0084e-12
2.00666e-12
3.65612e-12
1.09607e-11
1.82424e-11
2.54863e-11
3.26784e-11
3.98053e-11
4.68545e-11
5.38143e-11
6.06742e-11
6.74245e-11
7.40565e-11
8.05624e-11
8.69356e-11
9.31699e-11
9.92605e-11
1.05203e-10
1.10994e-10
1.16631e-10
1.22111e-10
1.27434e-10
1.32598e-10
1.37603e-10
1.4245e-10
1.47139e-10
1.51671e-10
1.56047e-10
1.6027e-10
1.64341e-10
1.68263e-10
1.72038e-10
1.75669e-10
1.79159e-10
1.8251e-10
1.85725e-10
1.88809e-10
1.91763e-10
1.94592e-10
1.97297e-10
1.99884e-10
2.02354e-10
2.0471e-10
2.06957e-10
2.09097e-10
2.11133e-10
2.13069e-10
2.14906e-10
2.16648e-10
2.18299e-10
2.19859e-10
2.21333e-10
2.22723e-10
2.24031e-10
2.25259e-10
2.2641e-10
2.27487e-10
2.28491e-10
2.29425e-10
2.3029e-10
2.31089e-10
2.31824e-10
2.32496e-10
2.33106e-10
2.33658e-10
2.34152e-10
2.3459e-10
2.34974e-10
2.35305e-10
2.35584e-10
2.35813e-10
2.35993e-10
2.36125e-10
2.36211e-10
2.36252e-10
2.36248e-10
2.36202e-10
2.36114e-10
2.35984e-10
2.35815e-10
2.35607e-10
2.3536e-10
2.35077e-10
2.34757e-10
2.34402e-10
2.34012e-10
2.33588e-10
2.33131e-10
2.32642e-10
2.32121e-10
2.3157e-10
2.30988e-10
2.30376e-10
2.29736e-10
2.29068e-10
2.28372e-10
2.27649e-10
2.26899e-10
2.26124e-10
2.25324e-10
2.24499e-10
2.2365e-10
2.22778e-10
2.21883e-10
2.20965e-10
2.20025e-10
2.19064e-10
2.18083e-10
2.1708e-10
2.16059e-10
2.15017e-10
2.13957e-10
2.12879e-10
2.11782e-10
2.10668e-10
2.09538e-10
2.08391e-10
2.07227e-10
2.06048e-10
2.04855e-10
2.03646e-10
2.02423e-10
2.01187e-10
1.99937e-10
1.98674e-10
1.97398e-10
1.96111e-10
1.94812e-10
1.93501e-10
1.9218e-10
1.90849e-10
1.89507e-10
1.88156e-10
1.86796e-10
1.85427e-10
1.84049e-10
1.82663e-10
1.8127e-10
1.7987e-10
1.78462e-10
1.77049e-10
1.75629e-10
1.74203e-10
1.72772e-10
1.71336e-10
1.69895e-10
1.6845e-10
1.67001e-10
1.65549e-10
1.64093e-10
1.62634e-10
1.61173e-10
1.59709e-10
1.58244e-10
1.56777e-10
1.55308e-10
1.53839e-10
1.52369e-10
1.50899e-10
1.49429e-10
1.47959e-10
1.46489e-10
1.45021e-10
1.43553e-10
1.42088e-10
1.40623e-10
1.39161e-10
1.37701e-10
1.36244e-10
1.34789e-10
1.33338e-10
1.31889e-10
1.30445e-10
1.29004e-10
1.27567e-10
1.26135e-10
1.24707e-10
1.23283e-10
1.21865e-10
1.20452e-10
1.19044e-10
1.17642e-10
1.16246e-10
1.14855e-10
1.13471e-10
1.12093e-10
1.10722e-10
1.09358e-10
1.08e-10
1.0665e-10
1.05307e-10
1.03971e-10
1.02643e-10
1.01322e-10
1.0001e-10
9.87054e-11
9.74091e-11
9.61211e-11
9.48415e-11
9.35705e-11
9.23081e-11
9.10546e-11
8.981e-11
8.85744e-11
8.73479e-11
8.61306e-11
8.49227e-11
8.37242e-11
8.25352e-11
8.13557e-11
8.0186e-11
7.90259e-11
7.78757e-11
7.67354e-11
7.5605e-11
7.44846e-11
7.33742e-11
7.2274e-11
7.11839e-11
7.0104e-11
6.90344e-11
6.7975e-11
6.69259e-11
6.58872e-11
6.48589e-11
6.3841e-11
6.28334e-11
6.18363e-11
6.08497e-11
5.98735e-11
5.89077e-11
5.79524e-11
5.70076e-11
5.60733e-11
5.51494e-11
5.4236e-11
5.3333e-11
5.24404e-11
5.15583e-11
5.06865e-11
4.98251e-11
4.89741e-11
4.81334e-11
4.7303e-11
4.64829e-11
4.5673e-11
4.48732e-11
4.40837e-11
4.33043e-11
4.25349e-11
4.17756e-11
4.10263e-11
4.0287e-11
3.95575e-11
3.88379e-11
3.8128e-11
3.74279e-11
3.67375e-11
3.60567e-11
3.53855e-11
3.47237e-11
3.40715e-11
3.34286e-11
3.2795e-11
3.21706e-11
3.15555e-11
3.09494e-11
3.03524e-11
2.97644e-11
2.91853e-11
2.8615e-11
2.80534e-11
2.75006e-11
2.69563e-11
2.64206e-11
2.58934e-11
2.53745e-11
2.48639e-11
2.43616e-11
2.38674e-11
2.33812e-11
2.29031e-11
2.24328e-11
2.19704e-11
2.15157e-11
2.10687e-11
2.06293e-11
2.01973e-11
1.97728e-11
1.93556e-11
1.89457e-11
1.8543e-11
1.81473e-11
1.77587e-11
1.73769e-11
1.7002e-11
1.66339e-11
1.62725e-11
1.59176e-11
1.55693e-11
1.52274e-11
1.48918e-11
1.45625e-11
1.42394e-11
1.39224e-11
1.36115e-11
1.33065e-11
1.30073e-11
1.2714e-11
1.24263e-11
1.21443e-11
1.18679e-11
1.15969e-11
1.13313e-11
1.10711e-11
1.08161e-11
1.05663e-11
1.03215e-11
1.00818e-11
9.8471e-12
9.61723e-12
9.39217e-12
9.17185e-12
8.95618e-12
8.74512e-12
8.53857e-12
8.33649e-12
8.13879e-12
7.94541e-12
7.75629e-12
7.57136e-12
7.39055e-12
7.2138e-12
7.04104e-12
6.87222e-12
6.70727e-12
6.54613e-12
6.38874e-12
6.23504e-12
6.08498e-12
5.93849e-12
5.79552e-12
5.656e-12
5.5199e-12
5.38715e-12
5.2577e-12
5.13149e-12
5.00848e-12
4.88861e-12
4.77184e-12
4.65812e-12
4.54739e-12
4.43961e-12
4.33474e-12
4.23272e-12
4.13352e-12
4.03709e-12
3.94339e-12
3.85237e-12
3.76401e-12
3.67824e-12
3.59505e-12
3.51438e-12
3.43621e-12
3.36049e-12
3.28719e-12
3.21628e-12
3.14772e-12
3.08148e-12
3.01754e-12
2.95585e-12
2.89639e-12
2.83912e-12
2.78404e-12
2.73109e-12
2.68027e-12
2.63154e-12
2.58489e-12
2.54028e-12
2.49769e-12
2.45711e-12
2.41851e-12
2.38188e-12
2.34719e-12
2.31443e-12
2.28358e-12
2.25463e-12
2.22756e-12
2.20236e-12
2.17901e-12
2.1575e-12
2.13782e-12
2.11997e-12
2.10392e-12
2.08968e-12
2.07724e-12
2.06658e-12
2.05771e-12
2.05062e-12
2.04531e-12
2.04177e-12
2.04e-12
3.67697e-12
1.10235e-11
1.8348e-11
2.56361e-11
3.28741e-11
4.00488e-11
4.71478e-11
5.41596e-11
6.10737e-11
6.78802e-11
7.45705e-11
8.11366e-11
8.75715e-11
9.38692e-11
1.00024e-10
1.06033e-10
1.1189e-10
1.17594e-10
1.23142e-10
1.28533e-10
1.33766e-10
1.38839e-10
1.43754e-10
1.4851e-10
1.53109e-10
1.57551e-10
1.61839e-10
1.65975e-10
1.6996e-10
1.73797e-10
1.77488e-10
1.81037e-10
1.84446e-10
1.87718e-10
1.90856e-10
1.93864e-10
1.96744e-10
1.99499e-10
2.02134e-10
2.0465e-10
2.07052e-10
2.09342e-10
2.11523e-10
2.13599e-10
2.15573e-10
2.17447e-10
2.19225e-10
2.20908e-10
2.22501e-10
2.24006e-10
2.25424e-10
2.2676e-10
2.28014e-10
2.29191e-10
2.30291e-10
2.31317e-10
2.32272e-10
2.33157e-10
2.33974e-10
2.34726e-10
2.35413e-10
2.36039e-10
2.36605e-10
2.37112e-10
2.37562e-10
2.37956e-10