/*--------------------------------*- C++ -*----------------------------------*\
  =========                 |
  \\      /  F ield         | OpenFOAM: The Open Source CFD Toolbox
   \\    /   O peration     | Website:  https://openfoam.org
    \\  /    A nd           | Version:  10
     \\/     M anipulation  |
\*---------------------------------------------------------------------------*/
FoamFile
{
    format      ascii;
    class       surfaceScalarField;
    location    "3.5";
    object      phi;
}
// * * * * * * * * * * * * * * * * * * * * * * * * * * * * * * * * * * * * * //

dimensions      [1 0 -1 0 0 0 0];

internalField   nonuniform List<scalar> 
10325
(
0.00840003
2.16896e-11
0.00840001
8.58182e-10
0.00840008
6.84518e-10
0.00839989
8.42712e-09
0.00840037
7.44203e-09
0.00839902
4.83013e-08
0.00840232
6.9475e-08
0.00839443
2.57905e-07
0.00841099
5.47478e-07
0.00837819
1.34951e-06
0.00842007
3.55018e-06
0.00836073
9.44551e-06
0.00836939
3.01337e-05
0.0082363
0.000110765
0.0076702
0.000563403
0.00700425
0.000667786
0.00637573
0.000630042
0.00572794
0.000648823
0.00504812
0.000680482
0.00432784
0.000721635
0.00355702
0.000771224
0.00273623
0.000821014
0.00186823
0.000866639
0.000954704
0.000912003
0.000954888
0.00840003
1.18674e-10
0.00840004
1.32615e-09
0.00839998
2.87692e-09
0.00840014
1.2881e-08
0.00839977
2.17688e-08
0.0084005
8.75088e-08
0.00839887
1.31494e-07
0.00840128
5.68565e-07
0.00839568
7.66112e-07
0.00840317
3.368e-06
0.00838467
5.86663e-06
0.00839505
2.08707e-05
0.0083457
5.95393e-05
0.00824123
0.000222767
0.00768515
0.0011112
0.00700285
0.00135115
0.0063823
0.00125206
0.00574364
0.00128852
0.00506785
0.00135692
0.00433951
0.00145131
0.00355887
0.00155226
0.00272891
0.00165118
0.00184981
0.00174437
0.000931581
0.00182871
0.00188664
0.00840003
3.85101e-10
0.00840004
1.05951e-09
0.00839999
7.14014e-09
0.00840009
1.04826e-08
0.00839978
5.18395e-08
0.0084006
7.00569e-08
0.00839816
3.25966e-07
0.00840409
4.38614e-07
0.00838967
1.95953e-06
0.0084158
3.14585e-06
0.00837091
1.14421e-05
0.00840867
2.68303e-05
0.00833999
9.06684e-05
0.00826005
0.000320919
0.00776903
0.00159077
0.00707625
0.00204529
0.00645197
0.00187764
0.00581662
0.00192487
0.00514376
0.00203044
0.00441272
0.00218358
0.00362439
0.00234102
0.00278368
0.00249202
0.00188759
0.00263936
0.000949737
0.00276491
0.0028364
0.00840003
2.94422e-10
0.00840002
1.97822e-09
0.00840002
6.46779e-09
0.00840002
1.90722e-08
0.00840003
4.82329e-08
0.00839977
1.26239e-07
0.00840043
3.08263e-07
0.00839782
7.86093e-07
0.00840282
1.94171e-06
0.0083917
4.93463e-06
0.00840285
1.28652e-05
0.00838264
3.5589e-05
0.00837021
0.000110794
0.0082876
0.000396777
0.00793903
0.0019343
0.00724094
0.00274464
0.00660014
0.00251998
0.00595989
0.00256616
0.00528703
0.00270361
0.00455435
0.00291807
0.00375808
0.00313736
0.00290231
0.00334808
0.00198074
0.00355934
0.00100318
0.0037412
0.00384002
0.00840003
3.24974e-10
0.00840003
2.04658e-09
0.00840002
7.31872e-09
0.00840003
1.99949e-08
0.00840002
5.4747e-08
0.00839983
1.37362e-07
0.00840044
3.44277e-07
0.00839793
8.83295e-07
0.00840338
2.12278e-06
0.0083916
5.63118e-06
0.00840628
1.4063e-05
0.00838635
3.97803e-05
0.00838738
0.000121324
0.00834431
0.000430929
0.00823437
0.00204017
0.00753261
0.00344755
0.00684607
0.00320795
0.00618632
0.00322676
0.00550726
0.00338334
0.00476977
0.00365638
0.003965
0.00394269
0.00308654
0.00422646
0.00212994
0.0045145
0.00109059
0.00477858
0.00493052
0.00840003
2.32004e-10
0.00840002
2.47952e-09
0.00840006
5.80063e-09
0.00839997
2.40922e-08
0.0084002
4.35368e-08
0.00839951
1.58825e-07
0.00840141
2.7863e-07
0.00839654
9.84189e-07
0.00840849
1.78794e-06
0.00838473
5.94143e-06
0.0084239
1.257e-05
0.00837993
3.85442e-05
0.00842915
0.000110604
0.00844964
0.000386946
0.00876289
0.00172698
0.00805311
0.00415827
0.00723916
0.00402313
0.00653621
0.00393059
0.00583347
0.00408674
0.00508998
0.00440096
0.00426185
0.00477139
0.00335476
0.00513348
0.00234497
0.00552256
0.00122459
0.0058972
0.00615473
0.00840003
4.01559e-10
0.00840003
1.7078e-09
0.00840004
7.84331e-09
0.00840001
1.66744e-08
0.00840002
5.80897e-08
0.00840008
1.08399e-07
0.00839964
3.72395e-07
0.00840107
6.50302e-07
0.0083973
2.29053e-06
0.00840507
4.12782e-06
0.00839658
1.35579e-05
0.00840885
3.11911e-05
0.00841953
9.83512e-05
0.00848537
0.00032248
0.00881263
0.00139427
0.00834625
0.00462428
0.00753788
0.00483137
0.00685735
0.00461167
0.00619061
0.00475364
0.00545509
0.0051378
0.00463213
0.00559428
0.00370247
0.00606381
0.00264966
0.00657376
0.00142596
0.0071186
0.0075804
0.00840003
2.9918e-10
0.00840003
1.86817e-09
0.00840002
6.60784e-09
0.00840004
1.8323e-08
0.00840003
4.8973e-08
0.00839994
1.22604e-07
0.00840031
3.00149e-07
0.0083988
7.69991e-07
0.00840263
1.79705e-06
0.00839471
4.79025e-06
0.00840758
1.14911e-05
0.00839716
3.16237e-05
0.00841109
9.04906e-05
0.00842756
0.000300815
0.00856303
0.00126008
0.00823341
0.00495038
0.00763129
0.00543255
0.00708583
0.00515797
0.00646831
0.00537122
0.00581172
0.00579543
0.00503112
0.00637557
0.00412397
0.00697091
0.00304957
0.00764722
0.00174055
0.00842525
0.00932027
0.00840003
2.16466e-10
0.00840002
2.26843e-09
0.00840005
5.39007e-09
0.00839998
2.20312e-08
0.00840016
4.09638e-08
0.00839963
1.42552e-07
0.00840108
2.62892e-07
0.00839727
8.6044e-07
0.00840665
1.67409e-06
0.00838713
5.11898e-06
0.00842017
1.11857e-05
0.00837728
3.24115e-05
0.00841647
8.92877e-05
0.00839745
0.000296842
0.00847579
0.0011881
0.00816848
0.00525337
0.00786089
0.00574014
0.00729911
0.00572025
0.00671517
0.00595576
0.00613755
0.00637368
0.0054566
0.00705719
0.00463741
0.00779089
0.00364768
0.00863602
0.00225766
0.00981361
0.0115771
0.00840003
3.71391e-10
0.00840004
1.78528e-09
0.00840001
7.63042e-09
0.00840007
1.75089e-08
0.00839989
5.48236e-08
0.00840038
1.19832e-07
0.00839902
3.35053e-07
0.00840251
7.63438e-07
0.0083942
1.99256e-06
0.00841204
4.85769e-06
0.00837965
1.22908e-05
0.00842255
3.23328e-05
0.00837601
9.1978e-05
0.00840988
0.00029673
0.00843621
0.00114309
0.00828783
0.00540186
0.00787006
0.00615812
0.00744352
0.00614724
0.00700035
0.00639948
0.00649941
0.0068757
0.00596268
0.00759442
0.0053297
0.00842418
0.00444338
0.00952191
0.00313219
0.0111233
0.0147084
0.00840003
3.30563e-10
0.00840002
2.05023e-09
0.00840006
6.94072e-09
0.00839996
2.00566e-08
0.00840019
5.25556e-08
0.0083997
1.28402e-07
0.00840081
3.44126e-07
0.00839847
7.63661e-07
0.00840289
2.17891e-06
0.00839402
4.65222e-06
0.00840883
1.35504e-05
0.00838353
3.2074e-05
0.00841242
9.50819e-05
0.00838635
0.000296341
0.00843509
0.00110597
0.00849966
0.00533143
0.00806781
0.00658973
0.00763432
0.00658095
0.00728869
0.00674566
0.00691745
0.00724786
0.00655847
0.00795436
0.00613337
0.00884997
0.00572456
0.00993073
0.00569186
0.0111551
0.011515
0.00888427
0.00840003
2.8497e-10
0.00840003
2.11587e-09
0.00840001
6.53345e-09
0.00840007
2.07096e-08
0.00839995
4.8716e-08
0.00840014
1.40849e-07
0.00839991
3.01447e-07
0.00839969
8.94162e-07
0.00840061
1.84143e-06
0.00839779
5.53142e-06
0.00840167
1.19436e-05
0.00839905
3.47112e-05
0.00839835
9.07543e-05
0.00841043
0.000289944
0.00847718
0.00103674
0.00893663
0.00486839
0.00846768
0.00705886
0.00797167
0.00707723
0.00761583
0.00710177
0.00732786
0.00753629
0.00707133
0.00821151
0.00687726
0.00904472
0.00684825
0.00996014
0.00729327
0.0107098
0.0104897
0.00831766
0.00840003
3.23022e-10
0.00840003
1.7739e-09
0.00840003
6.7091e-09
0.00840003
1.72957e-08
0.00840001
4.98375e-08
0.00840011
1.14788e-07
0.00839971
3.20456e-07
0.00840113
7.07474e-07
0.00839719
2.00142e-06
0.00840786
4.37002e-06
0.00838789
1.24788e-05
0.00842381
2.93357e-05
0.00839551
8.46395e-05
0.00846404
0.000250149
0.00860673
0.000875653
0.00971108
0.00376622
0.00911461
0.00765509
0.00849333
0.00769889
0.00808739
0.00750823
0.00781211
0.00781202
0.0076335
0.0083906
0.00760058
0.00907823
0.00783358
0.00972777
0.00838213
0.0101612
0.00986672
0.00900475
0.00840003
2.33853e-10
0.00840003
1.62666e-09
0.00840002
5.26865e-09
0.00840007
1.58554e-08
0.00839997
3.89585e-08
0.00840025
1.05058e-07
0.00839977
2.41115e-07
0.00840086
6.55074e-07
0.00839947
1.44032e-06
0.00840291
4.02606e-06
0.00840045
8.86362e-06
0.00841645
2.46776e-05
0.00842096
6.12153e-05
0.00851036
0.00018188
0.00878446
0.00058971
0.0101579
0.00239278
0.00974271
0.00806948
0.00931562
0.00812605
0.00869802
0.00812615
0.00837021
0.00814012
0.00824175
0.00851945
0.00828641
0.00903394
0.00854426
0.00947073
0.0090248
0.00968063
0.00936622
0.00952488
0.00840003
2.41136e-10
0.00840003
1.25111e-09
0.00840003
4.9873e-09
0.00840003
1.21867e-08
0.00840004
3.67996e-08
0.00840006
7.99532e-08
0.00839996
2.3104e-07
0.00840056
4.88555e-07
0.00839893
1.40155e-06
0.00840427
2.98178e-06
0.00839491
8.43108e-06
0.00841766
1.91248e-05
0.00840377
5.32545e-05
0.00846142
0.000144827
0.00856232
0.000470503
0.00916187
0.00180279
0.00987915
0.0073481
0.00955448
0.00845042
0.00915535
0.00852512
0.0088751
0.00842089
0.00877681
0.00861801
0.00884813
0.00896272
0.00908472
0.00923534
0.00947511
0.00929085
0.0089559
0.00988512
0.00840003
1.62407e-10
0.00840003
1.25513e-09
0.00840003
3.73442e-09
0.00840002
1.22641e-08
0.00840006
2.79779e-08
0.00839995
8.11141e-08
0.00840034
1.76072e-07
0.00839935
4.97584e-07
0.00840232
1.07752e-06
0.00839578
3.01749e-06
0.00841266
6.70984e-06
0.00838435
1.84754e-05
0.00843637
4.49607e-05
0.00840287
0.000128838
0.00851882
0.000396032
0.00884987
0.00144763
0.00988428
0.00631715
0.00975504
0.00857965
0.00951993
0.00876035
0.00928985
0.00865113
0.00921818
0.00869061
0.00929929
0.00888105
0.0095054
0.00902938
0.00981334
0.00898396
0.00863613
0.0101334
0.00840003
1.62363e-10
0.00840003
1.00852e-09
0.00840003
3.49095e-09
0.00840003
9.8651e-09
0.00840003
2.59665e-08
0.00840005
6.52643e-08
0.00839998
1.65087e-07
0.00840041
4.01259e-07
0.00839918
1.02063e-06
0.00840335
2.44606e-06
0.00839505
6.30827e-06
0.0084149
1.53748e-05
0.0083951
4.04432e-05
0.0084416
0.000108453
0.00848641
0.000329391
0.00880147
0.00114405
0.0104034
0.00471009
0.0102139
0.00876877
0.00997679
0.00899734
0.00969578
0.00893189
0.00961746
0.00876976
0.00968218
0.00881692
0.00984857
0.00886284
0.0100826
0.00875021
0.00839814
0.0103213
0.00840003
1.36936e-10
0.00840003
7.63144e-10
0.00840003
2.91392e-09
0.00840004
7.45214e-09
0.00840002
2.13212e-08
0.00840011
4.97952e-08
0.00839991
1.31609e-07
0.00840065
3.08712e-07
0.00839915
7.85338e-07
0.0084042
1.8944e-06
0.00839567
4.67408e-06
0.00842097
1.16602e-05
0.00839545
2.90339e-05
0.00847591
7.64447e-05
0.00854158
0.000217664
0.00900956
0.000702824
0.0109835
0.00272692
0.0109079
0.00884467
0.0106542
0.00925066
0.0103052
0.0092807
0.0100789
0.00899636
0.0100575
0.00883855
0.0101604
0.00876014
0.010322
0.00858887
0.0082338
0.0104865
0.00840003
1.04802e-10
0.00840003
6.30592e-10
0.00840004
2.21943e-09
0.00840002
6.15951e-09
0.00840007
1.6505e-08
0.00839999
4.01142e-08
0.00840021
1.04303e-07
0.00839989
2.42451e-07
0.00840069
6.37243e-07
0.0084001
1.4476e-06
0.0084019
3.86635e-06
0.00840299
8.79727e-06
0.00841186
2.36072e-05
0.00842251
5.79032e-05
0.00848876
0.000164951
0.0086702
0.00050973
0.00949451
0.00190743
0.0109448
0.00739021
0.0108953
0.00929976
0.0106947
0.00948119
0.0104622
0.00922888
0.0103953
0.00890608
0.0104435
0.0087121
0.0105434
0.00848909
0.00813074
0.0106469
0.00840003
7.93311e-11
0.00840003
5.15522e-10
0.00840003
1.73018e-09
0.00840003
5.04729e-09
0.00840004
1.28623e-08
0.00840002
3.34517e-08
0.00840013
8.12876e-08
0.00839986
2.04798e-07
0.0084009
4.97143e-07
0.00839869
1.2393e-06
0.00840572
3.04798e-06
0.00839321
7.56783e-06
0.00842558
1.9015e-05
0.00839047
4.85293e-05
0.00847725
0.000131958
0.00854074
0.000398467
0.009074
0.00139914
0.0110185
0.00543856
0.011159
0.00915853
0.0110714
0.00956829
0.0108482
0.00945186
0.0107146
0.00903981
0.0107028
0.00872461
0.0107509
0.00844113
0.00807651
0.0108053
0.00840003
5.76667e-11
0.00840003
3.94273e-10
0.00840003
1.28258e-09
0.00840003
3.83636e-09
0.00840003
9.52983e-09
0.00840004
2.51381e-08
0.00840007
5.9678e-08
0.00840004
1.52906e-07
0.00840048
3.62259e-07
0.00839972
9.10376e-07
0.00840366
2.19108e-06
0.00839793
5.44298e-06
0.00842062
1.33748e-05
0.0084061
3.37162e-05
0.00848886
8.76128e-05
0.00860071
0.00024941
0.00922148
0.000801098
0.0116675
0.00298546
0.0117586
0.00906605
0.0116562
0.00967031
0.0113784
0.00972966
0.0111016
0.00931675
0.0109893
0.00883707
0.0109723
0.00845867
0.00807045
0.0109787
0.00840003
4.58201e-11
0.00840003
2.84725e-10
0.00840003
9.95046e-10
0.00840004
2.78836e-09
0.00840002
7.3389e-09
0.00840006
1.83947e-08
0.00840001
4.55491e-08
0.00840018
1.12325e-07
0.00840006
2.73702e-07
0.00840046
6.75805e-07
0.00840102
1.63385e-06
0.00840122
4.05787e-06
0.00840746
9.8766e-06
0.00841101
2.4893e-05
0.00844132
6.32747e-05
0.00851358
0.000174213
0.00878115
0.00053604
0.00980459
0.00196027
0.0117203
0.00714721
0.0118469
0.00954348
0.0117189
0.00985745
0.0114212
0.00961429
0.0112848
0.00897387
0.011205
0.00853862
0.0081073
0.0111685
0.00840003
3.46412e-11
0.00840003
2.12295e-10
0.00840003
7.56908e-10
0.00840003
2.06401e-09
0.00840003
5.60189e-09
0.00840005
1.36525e-08
0.00840002
3.48407e-08
0.00840012
8.44433e-08
0.00840008
2.08122e-07
0.00840026
5.15948e-07
0.00840091
1.23662e-06
0.00840026
3.1429e-06
0.00840673
7.47845e-06
0.00840316
1.93137e-05
0.00843299
4.77045e-05
0.00846325
0.000129342
0.00863328
0.000378161
0.00928642
0.00129976
0.0117096
0.00472354
0.0120105
0.00924279
0.0120787
0.00978933
0.0119313
0.00976189
0.0115925
0.0093124
0.011458
0.00867356
0.00819601
0.0113696
0.00840003
2.3972e-11
0.00840003
1.59692e-10
0.00840003
5.26231e-10
0.00840003
1.55922e-09
0.00840003
3.89929e-09
0.00840003
1.01649e-08
0.00840007
2.44349e-08
0.00840001
6.13032e-08
0.0084003
1.4797e-07
0.00839981
3.64291e-07
0.00840189
8.86528e-07
0.00839874
2.16792e-06
0.00841082
5.31614e-06
0.00839678
1.3053e-05
0.00844828
3.27258e-05
0.00844152
8.39481e-05
0.00863994
0.000233527
0.00917317
0.000731591
0.011295
0.00261151
0.0123994
0.00813599
0.0124003
0.00978842
0.0122244
0.00993789
0.0118921
0.00964518
0.0117349
0.00883061
0.00834071
0.0115902
0.00840003
1.70156e-11
0.00840003
1.14119e-10
0.00840003
3.78465e-10
0.00840003
1.11295e-09
0.00840003
2.80343e-09
0.00840004
7.32356e-09
0.00840004
1.74132e-08
0.00840005
4.45004e-08
0.00840014
1.04875e-07
0.00840003
2.6611e-07
0.00840092
6.31057e-07
0.00839961
1.57744e-06
0.00840611
3.81581e-06
0.00839796
9.47803e-06
0.00843124
2.34686e-05
0.00841678
5.97135e-05
0.00853855
0.000159542
0.00874591
0.000479312
0.00970811
0.00167443
0.0121613
0.00567716
0.0125047
0.0094447
0.0125875
0.00985454
0.0124638
0.00976877
0.0120604
0.0092351
0.00856429
0.0118369
0.00840003
1.20483e-11
0.00840003
7.6547e-11
0.00840003
2.65136e-10
0.00840003
7.47525e-10
0.00840003
1.95272e-09
0.00840004
4.92394e-09
0.00840003
1.20022e-08
0.00840009
3.00681e-08
0.00840003
7.10957e-08
0.0084003
1.79609e-07
0.00840019
4.18978e-07
0.00840105
1.06879e-06
0.00840204
2.47373e-06
0.00840472
6.34425e-06
0.00841406
1.49078e-05
0.0084351
3.85241e-05
0.00849443
9.67605e-05
0.00870593
0.000273699
0.00951409
0.000862893
0.0122402
0.0029518
0.0129659
0.00871723
0.0129615
0.00985841
0.0127398
0.00999033
0.0124023
0.00957255
0.00881686
0.0121506
0.00840003
8.45281e-12
0.00840003
5.19387e-11
0.00840003
1.83309e-10
0.00840003
5.07085e-10
0.00840003
1.35142e-09
0.00840003
3.32544e-09
0.00840003
8.38045e-09
0.00840006
2.01403e-08
0.00840002
4.98885e-08
0.00840026
1.20176e-07
0.0083999
2.94828e-07
0.00840152
7.14885e-07
0.00839931
1.74134e-06
0.00840857
4.27272e-06
0.00839772
1.03864e-05
0.00844056
2.59941e-05
0.00842336
6.52119e-05
0.00858375
0.00017554
0.00886133
0.000526098
0.0100148
0.00183265
0.0126662
0.00605653
0.0129872
0.00953673
0.0131698
0.0098072
0.0129123
0.00983
0.00919362
0.0125348
0.00840003
5.93911e-12
0.00840003
3.41351e-11
0.00840003
1.26389e-10
0.00840003
3.33729e-10
0.00840003
9.25991e-10
0.00840003
2.18617e-09
0.00840003
5.72249e-09
0.00840005
1.32155e-08
0.00840004
3.40337e-08
0.00840015
7.87187e-08
0.00840001
1.99508e-07
0.00840096
4.69401e-07
0.00839968
1.16591e-06
0.00840594
2.80454e-06
0.00839868
6.85137e-06
0.00843149
1.69544e-05
0.00841253
4.17933e-05
0.00853905
0.00010866
0.0087006
0.00030271
0.00960406
0.000967304
0.0124087
0.00324282
0.0133043
0.00863878
0.013364
0.00974708
0.013238
0.00995581
0.00957305
0.0128587
0.00840003
3.53595e-12
0.00840003
2.4552e-11
0.00840003
7.85312e-11
0.00840003
2.3878e-10
0.00840003
5.81321e-10
0.00840003
1.54631e-09
0.00840004
3.63349e-09
0.00840003
9.22408e-09
0.00840007
2.1925e-08
0.00840003
5.38814e-08
0.00840026
1.31604e-07
0.0084001
3.13843e-07
0.00840096
7.86931e-07
0.00840136
1.82878e-06
0.00840325
4.71784e-06
0.00841075
1.08175e-05
0.00842063
2.84828e-05
0.00846403
6.8312e-05
0.00857979
0.000188382
0.00899117
0.000554097
0.0103343
0.00190092
0.012986
0.00598447
0.0133422
0.0093909
0.0135685
0.00972936
0.00976122
0.0133801
0.00840003
2.53312e-12
0.00840003
1.50408e-11
0.00840003
5.41773e-11
0.00840003
1.47406e-10
0.00840003
3.96852e-10
0.00840003
9.65138e-10
0.00840003
2.43867e-09
0.00840004
5.81416e-09
0.00840003
1.44407e-08
0.00840009
3.44284e-08
0.00840005
8.4678e-08
0.00840032
2.03313e-07
0.00840037
4.94486e-07
0.00840115
1.20248e-06
0.00840305
2.89025e-06
0.00840533
7.13215e-06
0.00841948
1.71891e-05
0.00844031
4.3333e-05
0.00852123
0.00011003
0.00876779
0.000307269
0.00969616
0.000972439
0.0125391
0.00314181
0.0136041
0.00832498
0.0136684
0.00966489
0.00976705
0.0136625
0.00840003
1.52806e-12
0.00840003
1.01867e-11
0.00840003
3.41083e-11
0.00840003
9.87817e-11
0.00840003
2.51409e-10
0.00840003
6.43146e-10
0.00840003
1.54127e-09
0.00840004
3.88508e-09
0.00840004
9.08668e-09
0.00840005
2.30698e-08
0.00840009
5.32077e-08
0.0084001
1.35633e-07
0.00840047
3.13132e-07
0.00840023
7.95018e-07
0.00840314
1.84837e-06
0.00840065
4.66624e-06
0.00841912
1.10541e-05
0.00840918
2.78519e-05
0.00849284
6.89687e-05
0.00856078
0.000184069
0.00904764
0.000540741
0.0103388
0.00181624
0.0131692
0.00550089
0.0136977
0.00913639
0.00959998
0.0138646
0.00840003
1.03815e-12
0.00840003
6.10347e-12
0.00840003
2.23459e-11
0.00840003
5.96205e-11
0.00840003
1.63412e-10
0.00840003
3.88875e-10
0.00840003
1.00062e-09
0.00840003
2.33593e-09
0.00840003
5.87931e-09
0.00840006
1.37892e-08
0.00840003
3.41195e-08
0.00840021
8.12576e-08
0.00840004
1.97235e-07
0.00840103
4.78087e-07
0.0084003
1.13982e-06
0.00840553
2.80877e-06
0.00840274
6.63482e-06
0.00842841
1.66209e-05
0.0084317
3.98554e-05
0.0085517
0.000103516
0.00876846
0.000278856
0.00974571
0.000868537
0.0125271
0.00271299
0.0138915
0.00777104
0.00953909
0.0139519
0.00840003
6.21714e-13
0.00840003
3.98197e-12
0.00840003
1.34629e-11
0.00840003
3.87395e-11
0.00840003
9.89735e-11
0.00840003
2.49877e-10
0.00840003
6.14187e-10
0.00840003
1.48066e-09
0.00840004
3.6562e-09
0.00840003
8.60565e-09
0.00840006
2.15589e-08
0.00840008
4.99518e-08
0.00840014
1.26173e-07
0.00840041
2.90742e-07
0.0084004
7.36814e-07
0.00840276
1.70085e-06
0.00840146
4.29333e-06
0.00841767
1.00711e-05
0.00841052
2.54141e-05
0.00849059
6.21239e-05
0.0085524
0.000164267
0.00900521
0.000471026
0.0101286
0.00155487
0.0132014
0.00470401
0.00873417
0.0140063
0.00840003
3.68789e-13
0.00840003
2.47416e-12
0.00840003
8.21495e-12
0.00840003
2.41701e-11
0.00840003
6.01529e-11
0.00840003
1.56725e-10
0.00840003
3.67957e-10
0.00840003
9.34397e-10
0.00840003
2.1712e-09
0.00840003
5.44502e-09
0.00840005
1.27135e-08
0.00840004
3.14861e-08
0.00840019
7.45509e-08
0.00840006
1.8137e-07
0.00840095
4.36763e-07
0.00840031
1.04632e-06
0.0084051
2.55783e-06
0.0084026
6.07018e-06
0.00842624
1.50952e-05
0.00842762
3.6198e-05
0.00853741
9.31268e-05
0.00871647
0.000246445
0.00955321
0.000748239
0.0118985
0.00235229
0.00669204
0.0139401
0.00840003
2.4642e-13
0.00840003
1.43357e-12
0.00840003
5.28242e-12
0.00840003
1.40025e-11
0.00840003
3.84997e-11
0.00840003
9.15727e-11
0.00840003
2.33633e-10
0.00840003
5.49733e-10
0.00840003
1.36138e-09
0.00840004
3.24523e-09
0.00840003
7.83784e-09
0.00840006
1.90541e-08
0.00840007
4.50908e-08
0.00840015
1.11737e-07
0.00840037
2.5891e-07
0.00840046
6.53306e-07
0.00840249
1.49853e-06
0.00840177
3.80315e-06
0.00841596
8.75088e-06
0.00841179
2.23988e-05
0.00848524
5.32099e-05
0.00854247
0.000140921
0.00895652
0.000387977
0.0100291
0.00124333
0.0037109
0.0130183
0.00840003
1.38508e-13
0.00840003
9.03052e-13
0.00840003
3.05378e-12
0.00840003
8.78242e-12
0.00840003
2.24393e-11
0.00840003
5.67846e-11
0.00840003
1.37638e-10
0.00840003
3.36988e-10
0.00840003
8.08976e-10
0.00840003
1.96282e-09
0.00840004
4.72124e-09
0.00840004
1.13624e-08
0.00840007
2.74304e-08
0.00840009
6.58036e-08
0.00840022
1.59621e-07
0.00840048
3.80411e-07
0.00840082
9.28065e-07
0.00840332
2.20791e-06
0.00840358
5.41746e-06
0.00842046
1.29232e-05
0.0084269
3.21876e-05
0.00850958
7.94036e-05
0.00866592
0.000210317
0.00930872
0.000615417
0.00193805
0.0110738
0.00840003
7.96403e-14
0.00840003
5.45651e-13
0.00840003
1.76829e-12
0.00840003
5.30733e-12
0.00840003
1.30195e-11
0.00840003
3.40598e-11
0.00840003
7.98631e-11
0.00840003
2.00733e-10
0.00840003
4.70945e-10
0.00840003
1.15665e-09
0.00840004
2.74944e-09
0.00840003
6.61328e-09
0.00840006
1.60231e-08
0.00840007
3.77338e-08
0.00840014
9.31073e-08
0.00840034
2.15368e-07
0.0084005
5.39123e-07
0.00840221
1.23467e-06
0.00840222
3.1039e-06
0.00841428
7.14222e-06
0.0084136
1.80031e-05
0.00848062
4.24728e-05
0.00853273
0.000110043
0.00891501
0.000291192
0.00089143
0.00992051
0.00840003
5.09285e-14
0.00840003
3.05672e-13
0.00840003
1.09491e-12
0.00840003
2.98128e-12
0.00840003
7.97249e-12
0.00840003
1.9306e-11
0.00840003
4.84479e-11
0.00840003
1.14591e-10
0.00840003
2.82091e-10
0.00840003
6.6493e-10
0.00840003
1.62698e-09
0.00840004
3.84538e-09
0.00840004
9.32877e-09
0.00840007
2.22181e-08
0.00840009
5.34021e-08
0.00840018
1.28404e-07
0.00840045
3.05158e-07
0.00840066
7.41294e-07
0.00840295
1.7496e-06
0.00840292
4.27899e-06
0.00841849
1.01019e-05
0.00841826
2.50275e-05
0.00849989
6.06539e-05
0.00858829
0.000157691
0.000440728
0.00908833
0.00840003
2.80964e-14
0.00840003
1.82494e-13
0.00840003
6.21071e-13
0.00840003
1.77125e-12
0.00840003
4.53811e-12
0.00840003
1.14017e-11
0.00840003
2.75664e-11
0.00840003
6.73785e-11
0.00840003
1.60541e-10
0.00840003
3.90394e-10
0.00840003
9.23289e-10
0.00840003
2.2515e-09
0.00840004
5.30361e-09
0.00840004
1.29282e-08
0.00840008
3.05087e-08
0.00840008
7.41457e-08
0.00840037
1.75496e-07
0.00840024
4.249e-07
0.0084022
1.01148e-06
0.00840105
2.43794e-06
0.00841265
5.84746e-06
0.00840772
1.41334e-05
0.00846613
3.4461e-05
0.00848539
8.57743e-05
0.00022458
0.00876446
0.00840003
1.68272e-14
0.00840003
9.99598e-14
0.00840003
3.64737e-13
0.00840003
9.74973e-13
0.00840003
2.65136e-12
0.00840003
6.31647e-12
0.00840003
1.59881e-11
0.00840003
3.74988e-11
0.00840003
9.22431e-11
0.00840003
2.18408e-10
0.00840003
5.25017e-10
0.00840003
1.26318e-09
0.00840003
2.97974e-09
0.00840004
7.29452e-09
0.00840005
1.68792e-08
0.00840008
4.19632e-08
0.0084002
9.59782e-08
0.00840023
2.39904e-07
0.00840117
5.48039e-07
0.0084009
1.36589e-06
0.00840719
3.14021e-06
0.00840502
7.79313e-06
0.00844123
1.82061e-05
0.00844283
4.54722e-05
0.000111882
0.00861849
0.00840003
8.85839e-15
0.00840003
6.04677e-14
0.00840003
1.96556e-13
0.00840003
5.86214e-13
0.00840003
1.44111e-12
0.00840003
3.7421e-12
0.00840003
8.77175e-12
0.00840003
2.18836e-11
0.00840003
5.11859e-11
0.00840003
1.25151e-10
0.00840003
2.95776e-10
0.00840003
7.09331e-10
0.00840003
1.70645e-09
0.00840004
4.01502e-09
0.00840004
9.81413e-09
0.00840007
2.2711e-08
0.00840008
5.63188e-08
0.00840027
1.28975e-07
0.00840025
3.21157e-07
0.00840164
7.35504e-07
0.00840095
1.82714e-06
0.00840968
4.21153e-06
0.00840597
1.04391e-05
0.00845281
2.45209e-05
6.14933e-05
0.00845499
0.00840003
5.33216e-15
0.00840003
3.20733e-14
0.00840003
1.16503e-13
0.00840003
3.1161e-13
0.00840003
8.44817e-13
0.00840003
2.00945e-12
0.00840003
5.10211e-12
0.00840003
1.18241e-11
0.00840003
2.94559e-11
0.00840003
6.80677e-11
0.00840003
1.68009e-10
0.00840003
3.90965e-10
0.00840003
9.51872e-10
0.00840003
2.24171e-09
0.00840004
5.39253e-09
0.00840005
1.28601e-08
0.00840007
3.04526e-08
0.00840013
7.3779e-08
0.00840029
1.72333e-07
0.00840048
4.22241e-07
0.00840176
9.7848e-07
0.00840213
2.41315e-06
0.00841098
5.58856e-06
0.00841174
1.38882e-05
3.26337e-05
0.00846107
0.00840003
2.84316e-15
0.00840003
1.8509e-14
0.00840003
6.14015e-14
0.00840003
1.79824e-13
0.00840003
4.48147e-13
0.00840003
1.14979e-12
0.00840003
2.70362e-12
0.00840003
6.73085e-12
0.00840003
1.56279e-11
0.00840003
3.84718e-11
0.00840003
8.93608e-11
0.00840003
2.18167e-10
0.00840003
5.10805e-10
0.00840003
1.23226e-09
0.00840004
2.91168e-09
0.00840004
6.95713e-09
0.00840007
1.66004e-08
0.00840006
3.92449e-08
0.00840023
9.42881e-08
0.00840026
2.21678e-07
0.008401
5.35559e-07
0.00840169
1.25143e-06
0.00840469
3.03744e-06
0.00841107
7.11042e-06
1.7354e-05
0.00842594
0.00840003
1.49422e-15
0.00840003
9.60026e-15
0.00840003
3.42508e-14
0.00840003
9.42962e-14
0.00840003
2.49611e-13
0.00840003
6.0397e-13
0.00840003
1.49524e-12
0.00840003
3.55619e-12
0.00840003
8.52959e-12
0.00840003
2.04738e-11
0.00840003
4.80966e-11
0.00840003
1.16914e-10
0.00840003
2.7046e-10
0.00840003
6.64908e-10
0.00840003
1.52218e-09
0.00840003
3.76159e-09
0.00840005
8.60077e-09
0.00840005
2.11351e-08
0.00840014
4.87992e-08
0.00840012
1.1838e-07
0.00840069
2.76766e-07
0.00840059
6.61517e-07
0.00840362
1.57466e-06
0.00840379
3.69703e-06
8.9761e-06
0.00841892
0.00840003
9.58435e-16
0.00840003
5.09331e-15
0.00840003
1.8037e-14
0.00840003
4.99008e-14
0.00840003
1.30689e-13
0.00840003
3.18158e-13
0.00840003
7.88766e-13
0.00840003
1.84283e-12
0.00840003
4.53767e-12
0.00840003
1.04224e-11
0.00840003
2.56523e-11
0.00840003
5.87747e-11
0.00840003
1.43884e-10
0.00840003
3.31187e-10
0.00840003
8.02416e-10
0.00840004
1.86995e-09
0.00840003
4.45476e-09
0.00840006
1.05512e-08
0.00840006
2.46854e-08
0.00840017
5.93131e-08
0.00840021
1.36741e-07
0.00840068
3.325e-07
0.00840134
7.57296e-07
0.00840295
1.8558e-06
4.21491e-06
0.00840906
0.00840003
3.27239e-16
0.00840003
2.65838e-15
0.00840003
8.91781e-15
0.00840003
2.56008e-14
0.00840003
6.43679e-14
0.00840003
1.63254e-13
0.00840003
3.86178e-13
0.00840003
9.36737e-13
0.00840003
2.20671e-12
0.00840003
5.21547e-12
0.00840003
1.23742e-11
0.00840003
2.8877e-11
0.00840003
6.88657e-11
0.00840003
1.58794e-10
0.00840003
3.81967e-10
0.00840003
8.70542e-10
0.00840003
2.10175e-09
0.00840004
4.76151e-09
0.00840005
1.14748e-08
0.0084001
2.60179e-08
0.0084001
6.1809e-08
0.00840051
1.4205e-07
0.00840034
3.30098e-07
0.0084029
7.66405e-07
1.75719e-06
0.00840196
0.00840003
1.83366e-16
0.00840003
1.1885e-15
0.00840003
4.27837e-15
0.00840003
1.25616e-14
0.00840003
3.12023e-14
0.00840003
7.75501e-14
0.00840003
1.82884e-13
0.00840003
4.45985e-13
0.00840003
1.0092e-12
0.00840003
2.50605e-12
0.00840003
5.49078e-12
0.00840003
1.37854e-11
0.00840003
2.97086e-11
0.00840003
7.49859e-11
0.00840003
1.60208e-10
0.00840003
4.01614e-10
0.00840003
8.64885e-10
0.00840003
2.11305e-09
0.00840005
4.66596e-09
0.00840005
1.08954e-08
0.00840008
2.50503e-08
0.00840021
5.51114e-08
0.00840017
1.32749e-07
0.00840133
2.74336e-07
6.82306e-07
0.00840027
0.00840003
2.10335e-17
0.00840003
6.04822e-16
0.00840003
1.73597e-15
0.00840003
5.79116e-15
0.00840003
1.39394e-14
0.00840003
3.63542e-14
0.00840003
8.10489e-14
0.00840003
2.001e-13
0.00840003
4.6122e-13
0.00840003
1.05159e-12
0.00840003
2.58439e-12
0.00840003
5.36974e-12
0.00840003
1.44054e-11
0.00840003
2.71512e-11
0.00840003
7.82311e-11
0.00840003
1.37371e-10
0.00840003
4.13721e-10
0.00840004
7.05981e-10
0.00840003
2.10637e-09
0.00840006
3.69837e-09
0.00840001
1.03382e-08
0.0084002
1.95546e-08
0.0083999
4.82826e-08
0.0084009
1.02535e-07
2.14012e-07
0.00839939
0.00840003
1.48617e-16
0.00840003
2.97586e-16
0.00840003
1.09033e-15
0.00840003
2.21467e-15
0.00840003
6.00827e-15
0.00840003
1.37944e-14
0.00840003
3.20606e-14
0.00840003
7.69033e-14
0.00840003
1.69132e-13
0.00840003
4.14116e-13
0.00840003
8.83703e-13
0.00840003
2.24555e-12
0.00840003
4.57499e-12
0.00840003
1.14831e-11
0.00840003
2.42141e-11
0.00840003
5.80456e-11
0.00840003
1.27433e-10
0.00840003
2.7805e-10
0.00840004
6.82414e-10
0.00840001
1.30448e-09
0.00840009
3.5199e-09
0.00839994
5.76921e-09
0.00840032
1.76654e-08
0.00839955
2.45961e-08
7.73628e-08
0.00840128
0.00840003
0.00840003
0.00840003
0.00840003
0.00840003
0.00840003
0.00840003
0.00840003
0.00840003
0.00840003
0.00840003
0.00840003
0.00840003
0.00840003
0.00840003
0.00840003
0.00840003
0.00840003
0.00840004
0.00840001
0.00840008
0.0083999
0.00840037
0.00839922
0.0084019
0.00482861
0.00405552
0.00320949
0.00161917
0.00251642
0.00069325
0.00223994
0.000276673
0.00222319
1.6583e-05
0.00241436
-0.000190985
0.00263319
-0.000218606
0.00275547
-0.000122142
0.00279731
-4.16758e-05
0.00279208
5.43678e-06
0.00276974
2.25434e-05
0.00275675
1.30442e-05
0.00275383
2.95815e-06
0.00276179
-8.01015e-06
0.00277439
-1.27557e-05
0.00278309
-9.50025e-06
0.00278401
-2.91342e-06
0.00276752
1.14465e-05
0.0027242
3.2093e-05
0.00263514
6.5268e-05
0.00245188
0.000134876
0.00201549
0.000317495
0.00106815
0.000763348
0.000205635
0.000823908
-0.000504535
0.000704014
-0.00112321
0.000649201
-0.00160013
0.000504652
-0.00198814
0.00039802
-0.00226327
0.000269323
-0.00240001
0.000139949
-0.00249338
9.6244e-05
-0.00255204
6.15076e-05
-0.00256972
2.01908e-05
-0.00255083
-1.86844e-05
-0.00248274
-6.99185e-05
-0.00234581
-0.000142411
-0.002133
-0.000220395
-0.00185555
-0.000284176
-0.00153064
-0.000331977
-0.00117698
-0.000359817
-0.000817638
-0.000364575
-0.000458234
-0.00036427
-9.31423e-05
-0.00036986
0.000256665
-0.000354856
0.000574318
-0.000322988
0.000872169
-0.00030342
0.0011506
-0.000284364
0.00141078
-0.00026646
0.00165121
-0.000246866
0.00187514
-0.000230354
0.00208958
-0.000220914
0.00229558
-0.000211989
0.00248881
-0.000198966
0.00266826
-0.000184535
0.00283559
-0.000171898
0.00299175
-0.000159962
0.00313786
-0.000149455
0.00327429
-0.000139286
0.00340186
-0.000130284
0.00352067
-0.000121604
0.00363152
-0.000113925
0.0037344
-0.000106476
0.00383019
-9.98245e-05
0.0039189
-9.3287e-05
0.0040014
-8.73746e-05
0.00407776
-8.14987e-05