/*--------------------------------*- C++ -*----------------------------------*\
  =========                 |
  \\      /  F ield         | OpenFOAM: The Open Source CFD Toolbox
   \\    /   O peration     | Website:  https://openfoam.org
    \\  /    A nd           | Version:  10
     \\/     M anipulation  |
\*---------------------------------------------------------------------------*/
FoamFile
{
    format      ascii;
    class       volScalarField;
    location    "3.5";
    object      rho;
}
// * * * * * * * * * * * * * * * * * * * * * * * * * * * * * * * * * * * * * //

dimensions      [1 -3 0 0 0 0 0];

internalField   nonuniform List<scalar> 
5250
(
1.40001
1.40002
1.40006
1.40016
1.40035
1.40096
1.40214
1.4057
1.41307
1.43357
1.47688
1.58125
1.79402
2.2659
4.1615
5.95102
5.76866
5.64991
5.66874
5.75412
5.84489
5.89755
5.93755
5.95779
5.9816
1.40001
1.40002
1.40006
1.40015
1.40035
1.40094
1.40209
1.40573
1.41258
1.43355
1.47514
1.57884
1.78839
2.25201
4.10789
5.95883
5.77027
5.64728
5.66653
5.75247
5.84338
5.89626
5.93703
5.95804
5.98278
1.40001
1.40002
1.40006
1.40013
1.40038
1.4008
1.40227
1.40489
1.41351
1.42982
1.47662
1.56869
1.78085
2.22103
3.98891
5.97628
5.77384
5.63904
5.65764
5.74243
5.83252
5.88409
5.92562
5.94599
5.97052
1.40001
1.40002
1.40005
1.40015
1.40031
1.40089
1.40185
1.40536
1.41129
1.43118
1.46829
1.56604
1.75884
2.18123
3.80406
6.00259
5.78092
5.62591
5.64221
5.72393
5.81363
5.86261
5.90291
5.92239
5.94779
1.40001
1.40002
1.40005
1.40014
1.40029
1.40083
1.40172
1.40499
1.41048
1.42913
1.46348
1.55571
1.73657
2.12948
3.56292
6.03115
5.79314
5.61033
5.62071
5.6984
5.78391
5.83284
5.86895
5.88964
5.91551
1.40001
1.40002
1.40004
1.40013
1.40026
1.40076
1.4016
1.4045
1.40977
1.42636
1.45875
1.54309
1.71167
2.07327
3.27658
6.03943
5.80625
5.59491
5.60178
5.66215
5.74904
5.7893
5.82415
5.83892
5.86768
1.40001
1.40002
1.40005
1.4001
1.40028
1.40059
1.4017
1.40357
1.41011
1.4217
1.45758
1.52636
1.69177
2.01824
3.03114
5.96137
5.78523
5.56835
5.56908
5.62212
5.69568
5.73482
5.75913
5.77203
5.79829
1.40001
1.40002
1.40004
1.40011
1.40022
1.40063
1.40131
1.40383
1.40791
1.42249
1.44831
1.52176
1.66421
1.97509
2.84544
5.74623
5.69778
5.53217
5.5269
5.56178
5.63015
5.65637
5.67316
5.66938
5.69437
1.40001
1.40002
1.40003
1.4001
1.4002
1.40057
1.4012
1.4034
1.40737
1.42002
1.44464
1.51065
1.643
1.93075
2.67718
5.43368
5.58288
5.50666
5.47798
5.4902
5.54102
5.55644
5.55178
5.52861
5.52478
1.40001
1.40001
1.40004
1.40007
1.40021
1.40044
1.40124
1.40269
1.40737
1.41642
1.44285
1.49604
1.62469
1.8821
2.52073
5.04164
5.51986
5.47128
5.41114
5.41271
5.43461
5.42834
5.39822
5.32262
5.25311
1.40001
1.40001
1.40003
1.40007
1.40017
1.40041
1.40106
1.40242
1.40646
1.41443
1.43788
1.48514
1.60009
1.83277
2.37116
4.57328
5.48233
5.44066
5.3412
5.32509
5.31666
5.28458
5.19104
4.96285
4.29582
1.40001
1.40001
1.40003
1.40006
1.40014
1.40038
1.40082
1.40233
1.40488
1.41388
1.42981
1.47738
1.57002
1.78218
2.22498
4.02619
5.46876
5.41724
5.28502
5.23512
5.20201
5.13123
4.97624
4.65212
3.92782
1.40001
1.40001
1.40002
1.40005
1.40013
1.40028
1.4008
1.40165
1.40475
1.40998
1.42777
1.46015
1.54857
1.72015
2.09064
3.41471
5.45642
5.4041
5.25153
5.15417
5.09214
4.98636
4.7829
4.44446
3.85863
1.40001
1.40001
1.40002
1.40004
1.4001
1.40025
1.40058
1.40153
1.40339
1.40918
1.42026
1.45253
1.51711
1.66883
1.96785
2.82482
5.34704
5.34551
5.24574
5.09008
4.99029
4.86351
4.64458
4.32354
3.86732
1.40001
1.40001
1.40002
1.40003
1.40009
1.40019
1.40053
1.40109
1.40315
1.40657
1.4185
1.43988
1.50145
1.62043
1.88654
2.51936
4.92406
5.24771
5.18563
5.03494
4.90215
4.76105
4.54946
4.25447
3.87752
1.40001
1.40001
1.40001
1.40003
1.40006
1.40018
1.40036
1.40103
1.4022
1.40607
1.41336
1.43521
1.47879
1.58682
1.80237
2.28736
4.23068
5.14171
5.10681
4.99169
4.8328
4.67831
4.47709
4.20942
3.883
1.40001
1.40001
1.40001
1.40002
1.40006
1.40012
1.40034
1.4007
1.40199
1.40417
1.41179
1.42527
1.4663
1.5449
1.73022
2.09287
3.48417
5.08968
5.06855
4.97462
4.78418
4.61456
4.4214
4.177
3.88681
1.40001
1.40001
1.40001
1.40002
1.40005
1.40009
1.40025
1.40054
1.40148
1.40325
1.40867
1.41951
1.44967
1.51128
1.6558
1.93209
2.70273
4.9347
5.05065
4.96885
4.77627
4.57559
4.38082
4.15462
3.89219
1.40001
1.40001
1.40001
1.40002
1.40003
1.40008
1.40019
1.40042
1.40112
1.40244
1.40677
1.41449
1.43894
1.48538
1.60235
1.83065
2.36633
4.40818
4.95883
4.91028
4.76563
4.54977
4.35182
4.13915
3.89949
1.40001
1.40001
1.40001
1.40001
1.40003
1.40006
1.40013
1.40035
1.40075
1.40206
1.40452
1.41206
1.42713
1.46835
1.55184
1.74127
2.11621
3.60212
4.87137
4.84986
4.75643
4.54449
4.33395
4.12919
3.90784
1.40001
1.40001
1.40001
1.40001
1.40002
1.40005
1.40009
1.40026
1.40053
1.40151
1.40317
1.40884
1.41898
1.45015
1.50919
1.65413
1.91599
2.66772
4.69808
4.83516
4.76034
4.57334
4.33738
4.12855
3.92045
1.40001
1.40001
1.40001
1.40001
1.40002
1.40003
1.40007
1.40018
1.4004
1.40109
1.40228
1.40648
1.41357
1.43708
1.48004
1.59208
1.8044
2.29395
4.14232
4.75405
4.71577
4.59023
4.35603
4.13927
3.93736
1.40001
1.40001
1.40001
1.40001
1.40001
1.40003
1.40005
1.40013
1.40028
1.40078
1.40162
1.40464
1.40962
1.42678
1.45741
1.54182
1.70331
2.03725
3.26634
4.62568
4.64044
4.57504
4.39581
4.16803
3.96104
1.40001
1.40001
1.40001
1.40001
1.40001
1.40002
1.40004
1.40009
1.4002
1.40053
1.40115
1.40305
1.4069
1.4177
1.44046
1.49787
1.61573
1.8495
2.43508
4.29891
4.61604
4.56638
4.42991
4.20815
3.99243
1.40001
1.40001
1.40001
1.40001
1.40001
1.40002
1.40003
1.40007
1.40013
1.40037
1.40077
1.40215
1.40459
1.41248
1.42727
1.46968
1.55195
1.73965
2.10179
3.5265
4.53058
4.51608
4.44915
4.26966
4.03748
1.40001
1.40001
1.40001
1.40001
1.40001
1.40001
1.40002
1.40004
1.4001
1.40024
1.40052
1.40142
1.403
1.40835
1.41762
1.44689
1.50111
1.63536
1.86429
2.51303
4.29414
4.51242
4.46098
4.33313
4.09836
1.40001
1.40001
1.40001
1.40001
1.40001
1.40001
1.40002
1.40003
1.40007
1.40015
1.40039
1.40086
1.40219
1.40515
1.41262
1.43016
1.4713
1.56211
1.74956
2.13731
3.63253
4.43498
4.42361
4.35818
4.19183
1.40001
1.40001
1.40001
1.40001
1.40001
1.40001
1.40001
1.40002
1.40005
1.4001
1.40026
1.40054
1.40146
1.40324
1.40839
1.41909
1.44753
1.50653
1.64168
1.87928
2.61479
4.19895
4.40713
4.36633
4.25541
1.40001
1.40001
1.40001
1.40001
1.40001
1.40001
1.40001
1.40002
1.40003
1.40007
1.40016
1.40036
1.40095
1.40204
1.40564
1.41174
1.43219
1.4683
1.56614
1.74083
2.13327
3.56974
4.32164
4.32599
4.27406
1.40001
1.40001
1.40001
1.40001
1.40001
1.40001
1.40001
1.40001
1.40002
1.40005
1.4001
1.40025
1.40054
1.40146
1.40306
1.40851
1.41783
1.44742
1.50151
1.63495
1.85693
2.54636
4.06376
4.3058
4.27584
1.40001
1.40001
1.40001
1.40001
1.40001
1.40001
1.40001
1.40001
1.40001
1.40003
1.40006
1.40016
1.40033
1.40092
1.40192
1.40528
1.41132
1.42982
1.46521
1.55569
1.72138
2.08087
3.3987
4.20417
4.2417
1.40001
1.40001
1.40001
1.40001
1.40001
1.40001
1.40001
1.40001
1.40001
1.40002
1.40004
1.40009
1.40023
1.40052
1.40125
1.40305
1.40707
1.41769
1.44014
1.49584
1.60849
1.81239
2.35503
3.90823
4.2176
1.40001
1.40001
1.40001
1.40001
1.40001
1.40001
1.40001
1.40001
1.40001
1.40001
1.40003
1.40006
1.40015
1.4003
1.40083
1.40171
1.40472
1.40999
1.42672
1.45759
1.53979
1.68922
2.00065
3.14011
4.06824
1.40001
1.40001
1.40001
1.40001
1.40001
1.40001
1.40001
1.40001
1.40001
1.40001
1.40002
1.40004
1.40008
1.4002
1.40045
1.4011
1.40266
1.40621
1.41542
1.43516
1.48412
1.58443
1.77019
2.22879
3.67459
1.40001
1.40001
1.40001
1.40001
1.40001
1.40001
1.40001
1.40001
1.40001
1.40001
1.40001
1.40003
1.40005
1.40012
1.40026
1.4007
1.40146
1.404
1.40843
1.42261
1.4484
1.51919
1.6466
1.90095
2.75589
1.40001
1.40001
1.40001
1.40001
1.40001
1.40001
1.40001
1.40001
1.40001
1.40001
1.40001
1.40002
1.40003
1.40007
1.40017
1.40036
1.40098
1.40203
1.4056
1.41168
1.43132
1.46653
1.55887
1.716
2.08109
1.40001
1.40001
1.40001
1.40001
1.40001
1.40001
1.40001
1.40001
1.40001
1.40001
1.40001
1.40001
1.40002
1.40004
1.4001
1.40021
1.40056
1.40116
1.40314
1.40667
1.41758
1.43793
1.49333
1.59472
1.78456
1.40001
1.40001
1.40001
1.40001
1.40001
1.40001
1.40001
1.40001
1.40001
1.40001
1.40001
1.40001
1.40001
1.40003
1.40005
1.40014
1.40028
1.40076
1.40159
1.40432
1.40908
1.42424
1.45152
1.52619
1.65594
1.40001
1.40001
1.40001
1.40001
1.40001
1.40001
1.40001
1.40001
1.40001
1.40001
1.40001
1.40001
1.40001
1.40002
1.40003
1.40008
1.40016
1.40042
1.40091
1.40236
1.40527
1.41319
1.42988
1.47181
1.55613
1.40001
1.40001
1.40001
1.40001
1.40001
1.40001
1.40001
1.40001
1.40001
1.40001
1.40001
1.40001
1.40001
1.40001
1.40002
1.40005
1.40009
1.40024
1.4005
1.40132
1.40283
1.40734
1.41616
1.44018
1.48813
1.40001
1.40001
1.40001
1.40001
1.40001
1.40001
1.40001
1.40001
1.40001
1.40001
1.40001
1.40001
1.40001
1.40001
1.40001
1.40003
1.40006
1.40012
1.40031
1.40066
1.40173
1.40377
1.40961
1.42149
1.45244
1.40001
1.40001
1.40001
1.40001
1.40001
1.40001
1.40001
1.40001
1.40001
1.40001
1.40001
1.40001
1.40001
1.40001
1.40001
1.40002
1.40003
1.40008
1.40015
1.40041
1.40084
1.40226
1.40477
1.41265
1.42694
1.40001
1.40001
1.40001
1.40001
1.40001
1.40001
1.40001
1.40001
1.40001
1.40001
1.40001
1.40001
1.40001
1.40001
1.40001
1.40001
1.40002
1.40004
1.40009
1.4002
1.4005
1.40109
1.40284
1.40604
1.41588
1.40001
1.40001
1.40001
1.40001
1.40001
1.40001
1.40001
1.40001
1.40001
1.40001
1.40001
1.40001
1.40001
1.40001
1.40001
1.40001
1.40001
1.40003
1.40005
1.40012
1.40026
1.40063
1.40147
1.40339
1.40841
1.40001
1.40001
1.40001
1.40001
1.40001
1.40001
1.40001
1.40001
1.40001
1.40001
1.40001
1.40001
1.40001
1.40001
1.40001
1.40001
1.40001
1.40002
1.40003
1.40007
1.40014
1.40036
1.40077
1.40203
1.40424
1.40001
1.40001
1.40001
1.40001
1.40001
1.40001
1.40001
1.40001
1.40001
1.40001
1.40001
1.40001
1.40001
1.40001
1.40001
1.40001
1.40001
1.40001
1.40002
1.40004
1.4001
1.4002
1.40052
1.40114
1.40284
1.40001
1.40001
1.40001
1.40001
1.40001
1.40001
1.40001
1.40001
1.40001
1.40001
1.40001
1.40001
1.40001
1.40001
1.40001
1.40001
1.40001
1.40001
1.40002
1.40003
1.40007
1.40014
1.40039
1.40082
1.40225
1.40001
1.40001
1.40001
1.40001
1.40001
1.40001
1.40001
1.40001
1.40001
1.40001
1.40001
1.40001
1.40001
1.40001
1.40001
1.40001
1.40001
1.40001
1.40001
1.40003
1.40006
1.40013
1.40032
1.4008
1.40182
1.40001
1.40001
1.40001
1.40001
1.40001
1.40001
1.40001
1.40001
1.40001
1.40001
1.40001
1.40001
1.40001
1.40001
1.40001
1.40001
1.40001
1.40001
1.40001
1.40003
1.40005
1.40013
1.40031
1.40072
1.4019
1.40001
1.40001
1.40001
1.40001
1.40001
1.40001
1.40001
1.40001
1.40001
1.40001
1.40001
1.40001
1.40001
1.40001
1.40001
1.40001
1.40001
1.40001
1.40001
1.40003
1.40005
1.40013
1.40029
1.40076
1.40178
1.8923
1.03415
0.718288
0.642048
0.642433
0.675206
0.765156
0.8386
0.862122
0.861759
0.859202
0.858572
0.859
0.860922
0.865602
0.872209
0.877805
0.885144
0.900046
0.931212
0.996822
1.1441
1.45833
1.65086
1.68195
1.6676
1.61459
1.58667
1.58316
1.58353
1.58348
1.58687
1.59215
1.60712
1.63615
1.67836
1.73514
1.79559
1.85629
1.91396
1.9655
2.00915
2.0446
2.07536
2.1025
2.12014
2.13424
2.14143
2.14785
2.14906
2.15061
2.14407
2.14004
2.12994
2.12271
2.1097
2.09983
2.08454
2.07267
2.05564
2.0422
2.02378
2.00912
1.98963
1.97412
1.9539
1.93782
1.91726
1.90059
1.88028
1.86321
1.84298
1.8259
1.8058
1.78866
1.76883
1.75162
1.7321
1.71493
1.69577
1.6787
1.65994
1.64306
1.62468
1.60807
1.59009
1.57382
1.55627
1.54036
1.52329
1.5078
1.49118
1.47623
1.4601
1.44581
1.43061
1.41746
1.40404
1.3934
1.38594
2.33883
1.53233
1.17289
1.023
0.960985
0.916204
0.907489
0.911749
0.922091
0.947161
0.971737
0.982272
0.982175
0.981496
0.981575
0.982434
0.98517
0.991434
1.00477
1.03272
1.0891
1.21248
1.47251
1.69486
1.73029
1.70059
1.63873
1.58593
1.55892
1.54387
1.53338
1.53338
1.53883
1.55094
1.57871
1.62634
1.68905
1.76214
1.83869
1.91496
1.99572
2.05188
2.10918
2.14998
2.1916
2.21716
2.24282
2.2563
2.27018
2.27586
2.2837
2.2809
2.27965
2.27226
2.26807
2.2574
2.25011
2.23649
2.22667
2.21113
2.19909
2.18227
2.16831
2.15046
2.13511
2.11633
2.10004
2.08051
2.0636
2.04351
2.02624
2.00588
1.98836
1.96802
1.95029
1.93013
1.91227
1.8923
1.8744
1.8546
1.83679
1.81714
1.79951
1.78007
1.76268
1.7435
1.72637
1.70751
1.6907
1.67217
1.65576
1.63771
1.62187
1.60443
1.58923
1.57257
1.55844
1.54355
1.53185
1.52323
2.86117
2.13018
1.65817
1.357
1.16213
1.04178
0.964652
0.956253
0.960078
0.970976
0.997589
1.02326
1.0406
1.04906
1.05151
1.05225
1.05396
1.05819
1.06788
1.08934
1.13475
1.22145
1.43011
1.78144
1.8243
1.77288
1.74216
1.69732
1.64089
1.5965
1.55989
1.53946
1.53703
1.54488
1.57432
1.62562
1.70261
1.78795
1.8767
1.96242
2.03752
2.09947
2.1555
2.19959
2.24062
2.26897
2.29524
2.31079
2.3258
2.33358
2.34256
2.34306
2.3414
2.33542
2.33088
2.32195
2.31422
2.30216
2.29167
2.27732
2.26468
2.24881
2.23448
2.21751
2.20188
2.18395
2.16752
2.14868
2.13175
2.11217
2.09476
2.07475
2.0569
2.03682
2.01869
1.99876
1.98054
1.9608
1.9426
1.92299
1.90487
1.88532
1.86737
1.8479
1.83019
1.81096
1.79343
1.7746
1.7574
1.73907
1.72222
1.70432
1.68785
1.67048
1.65455
1.63792
1.623
1.60798
1.59531
1.58648
3.16316
2.51768
2.02357
1.67114
1.43088
1.267
1.16349
1.09831
1.05831
1.04816
1.0502
1.05635
1.07113
1.08928
1.10283
1.11097
1.11355
1.11631
1.12225
1.13589
1.16713
1.22521
1.38264
1.70755
1.88214
1.89054
1.86664
1.80172
1.74332
1.71436
1.6805
1.65223
1.63869
1.64569
1.67577
1.72712
1.8014
1.88324
1.96769
2.04698
2.12232
2.18475
2.2408
2.28629
2.32702
2.35749
2.3834
2.40059
2.41509
2.42373
2.43321
2.43454
2.43325
2.42563
2.42109
2.41125
2.40374
2.39094
2.38041
2.36491
2.35213
2.33455
2.32026
2.30132
2.28585
2.26603
2.24935
2.22895
2.21133
2.19062
2.17257
2.15172
2.13344
2.1125
2.09396
2.07303
2.05426
2.03357
2.01469
1.99434
1.97551
1.95541
1.93672
1.91673
1.89827
1.87856
1.86043
1.84108
1.8232
1.80434
1.78683
1.76854
1.75142
1.7337
1.71709
1.70008
1.68436
1.66883
1.65516
1.64558
3.34353
2.79595
2.32891
1.96519
1.69321
1.49224
1.34434
1.23739
1.16142
1.11284
1.08567
1.0859
1.08808
1.09386
1.10787
1.12181
1.13231
1.14071
1.14632
1.15731
1.1798
1.22618
1.31425
1.51699
1.90621
1.99027
1.94979
1.91178
1.88031
1.83468
1.80289
1.78686
1.78704
1.80665
1.83604
1.8778
1.93199
1.9934
2.05542
2.1163
2.18468
2.24663
2.30295
2.34716
2.38772
2.41613
2.44193
2.45713
2.47186
2.47879
2.48911
2.49231
2.49376
2.48488
2.47793
2.46635
2.45763
2.44472
2.43416
2.41926
2.40588
2.38845
2.37271
2.35392
2.33744
2.31834
2.30156
2.28187
2.26418
2.24355
2.2249
2.2039
2.1849
2.16413
2.14511
2.12446
2.10529
2.08445
2.06511
2.04419
2.02496
2.00437
1.98556
1.96566
1.94714
1.92773
1.90931
1.89023
1.87192
1.85299
1.835
1.81626
1.79876
1.78043
1.76355
1.74603
1.73002
1.71414
1.69984
1.68968
3.45736
3.00058
2.57964
2.2252
1.94053
1.71703
1.54341
1.41082
1.31017
1.23752
1.18449
1.15016
1.13057
1.13068
1.13231
1.13688
1.14769
1.16038
1.17244
1.1824
1.19751
1.22833
1.28798
1.42698
1.70138
1.99553
2.05849
2.03137
1.98808
1.95552
1.94276
1.93804
1.96428
1.99799
2.02313
2.05152
2.08491
2.11592
2.14819
2.19087
2.23894
2.29744
2.35487
2.40419
2.44553
2.47639
2.50218
2.51913
2.53358
2.53821
2.54556
2.54827
2.5513
2.54467
2.53789
2.52649
2.51597
2.50139
2.48906
2.47373
2.46099
2.44448
2.42945
2.41029
2.39259
2.37201
2.35367
2.33344
2.31539
2.29518
2.27655
2.25539
2.23576
2.21392
2.19412
2.17252
2.15323
2.13218
2.11315
2.09238
2.07347
2.05289
2.03388
2.01358
1.99466
1.97476
1.95615
1.93663
1.9184
1.89917
1.88129
1.86242
1.84483
1.82647
1.80916
1.79143
1.7747
1.75813
1.74293
1.7313
3.53352
3.14847
2.77622
2.4432
2.16052
1.92675
1.73701
1.58424
1.46217
1.36584
1.28986
1.23419
1.19228
1.16724
1.15501
1.15532
1.15705
1.1612
1.17153
1.18213
1.19513
1.21694
1.26013
1.33286
1.51438
1.89979
2.07712
2.10167
2.10223
2.08291
2.07832
2.12154
2.18309
2.22526
2.23728
2.25256
2.26167
2.24623
2.24293
2.26327
2.28881
2.32399
2.37692
2.42944
2.47358
2.50798
2.53422
2.55155
2.56467
2.57011
2.57589
2.57872
2.58313
2.57987
2.57339
2.56203
2.55202
2.5381
2.52555
2.50976
2.49597
2.47952
2.46504
2.44763
2.43154
2.41225
2.39422
2.37355
2.35478
2.33408
2.31548
2.29502
2.27611
2.25514
2.23521
2.21356
2.19302
2.17143
2.15147
2.13059
2.11133
2.09086
2.07194
2.05146
2.0325
2.01205
1.99305
1.97296
1.95416
1.9346
1.91613
1.89696
1.87886
1.85994
1.84225
1.82371
1.80664
1.78919
1.77351
1.76054
3.58753
3.25722
2.92761
2.62131
2.34891
2.11497
1.91693
1.7524
1.61558
1.50401
1.41262
1.34001
1.28248
1.23982
1.20799
1.1893
1.18016
1.18049
1.18233
1.18699
1.19727
1.21252
1.24017
1.29351
1.39044
1.61199
2.0302
2.15072
2.17038
2.19235
2.23902
2.34859
2.4389
2.47117
2.47597
2.47476
2.43978
2.37729
2.33784
2.32973
2.34339
2.36008
2.38654
2.43116
2.47656
2.51834
2.54936
2.57204
2.58785
2.59646
2.60246
2.60535
2.61027
2.61049
2.60688
2.59655
2.58721
2.57393
2.56204
2.54654
2.53305
2.51644
2.50191
2.48434
2.46855
2.44967
2.43232
2.41202
2.39328
2.37205
2.35262
2.3312
2.31168
2.29041
2.27073
2.24943
2.22948
2.20813
2.18786
2.16647
2.14619
2.12504
2.10517
2.08446
2.06506
2.04461
2.02538
2.00493
1.98566
1.96525
1.94607
1.926
1.90729
1.88781
1.86986
1.85098
1.83385
1.81583
1.79995
1.78552
3.62997
3.33966
3.04666
2.76575
2.50867
2.27981
2.08053
1.9095
1.76378
1.64091
1.53739
1.45138
1.37994
1.32223
1.27626
1.24152
1.21647
1.20159
1.19727
1.19789
1.20074
1.208
1.22379
1.25677
1.32162
1.45491
1.7431
2.10762
2.22792
2.30244
2.42176
2.61392
2.7276
2.72896
2.7258
2.69752
2.59937
2.50481
2.43771
2.40165
2.38971
2.39587
2.40744
2.42709
2.46522
2.50572
2.54558
2.57367
2.59504
2.60856
2.61773
2.62116
2.62717
2.62951
2.63056
2.62282
2.61501
2.60314
2.59243
2.57789
2.5649
2.54857
2.53416
2.51677
2.50125
2.48285
2.46611
2.44654
2.42846
2.40759
2.3882
2.3662
2.34589
2.32344
2.303
2.28117
2.26123
2.24004
2.22033
2.19926
2.17932
2.15792
2.13765
2.11598
2.09568
2.07413
2.05417
2.03302
2.01349
1.99277
1.97345
1.95304
1.93377
1.9137
1.89454
1.87504
1.85641
1.83797
1.8209
1.80574
3.66493
3.40578
3.14138
2.88491
2.64305
2.42385
2.22663
2.05432
1.90306
1.77336
1.66086
1.56543
1.48364
1.41501
1.3579
1.31077
1.27467
1.24595
1.22644
1.21474
1.21481
1.21681
1.22372
1.24082
1.27932
1.3498
1.52372
1.88143
2.20066
2.39177
2.66606
2.93111
3.00961
3.00102
2.96779
2.87254
2.7363
2.62252
2.53708
2.47849
2.44072
2.42624
2.42855
2.43807
2.45584
2.48606
2.52538
2.56154
2.59184
2.61398
2.63017
2.63779
2.64505
2.64868
2.65283
2.64912
2.64286
2.63198
2.62231
2.60885
2.59659
2.58058
2.56594
2.54807
2.53184
2.51287
2.49553
2.4757
2.45741
2.43675
2.41751
2.39596
2.37569
2.35349
2.33267
2.31017
2.2891
2.26665
2.24573
2.22358
2.20297
2.18114
2.16074
2.13908
2.11875
2.09717
2.07689
2.05542
2.03533
2.01411
1.99435
1.97353
1.95422
1.93389
1.91509
1.89533
1.87713
1.85819
1.84129
1.82493
3.69698
3.46166
3.22064
2.98402
2.75821
2.54833
2.35736
2.18539
2.0331
1.89826
1.78073
1.67744
1.58854
1.5107
1.44489
1.38772
1.34098
1.30152
1.27123
1.24884
1.23054
1.23054
1.23247
1.23968
1.2598
1.30579
1.39013
1.60554
2.0688
2.39908
2.97063
3.25703
3.26073
3.23701
3.16247
2.99717
2.84743
2.72607
2.62989
2.55415
2.50143
2.46748
2.45417
2.45618
2.46647
2.48362
2.50641
2.54436
2.58005
2.61114
2.63576
2.65068
2.66096
2.66509
2.67023
2.66998
2.6661
2.65582
2.6463
2.63292
2.62074
2.60473
2.59003
2.57211
2.55564
2.53641
2.51845
2.49809
2.47899
2.4578
2.43788
2.41605
2.39567
2.37362
2.35294
2.33065
2.30962
2.28709
2.26579
2.24316
2.22181
2.19932
2.17817
2.15601
2.13521
2.11343
2.09303
2.07159
2.05156
2.03044
2.01072
1.98993
1.97048
1.95004
1.93089
1.91086
1.89218
1.87279
1.8555
1.83819
3.72846
3.51076
3.28946
3.06986
2.85821
2.65869
2.47385
2.30537
2.15291
2.01661
1.89486
1.78728
1.69178
1.60829
1.53436
1.47076
1.4148
1.3678
1.32785
1.29485
1.27123
1.2503
1.25022
1.2528
1.26276
1.28969
1.35145
1.48686
1.75002
2.33892
3.25092
3.51155
3.48877
3.41772
3.25833
3.08486
2.93838
2.81659
2.71571
2.63423
2.573
2.53066
2.5041
2.49249
2.49297
2.50128
2.51479
2.5346
2.56458
2.59856
2.62796
2.65115
2.66717
2.67381
2.67902
2.68008
2.68075
2.67213
2.66255
2.64874
2.63616
2.6201
2.60545
2.5877
2.57152
2.55245
2.53469
2.51436
2.49517
2.47384
2.45358
2.43164
2.41084
2.3885
2.36737
2.34485
2.32362
2.30113
2.27997
2.25763
2.23656
2.21436
2.19339
2.17128
2.15044
2.12844
2.10781
2.08606
2.06574
2.04436
2.02439
2.00343
1.9838
1.96324
1.94395
1.92379
1.90498
1.88535
1.86796
1.84999
3.75931
3.55633
3.35
3.14629
2.94686
2.75733
2.57901
2.41454
2.26327
2.12672
2.00249
1.89202
1.79177
1.70387
1.62393
1.55488
1.4921
1.43884
1.39093
1.35128
1.31753
1.28988
1.27472
1.27557
1.28163
1.3006
1.3487
1.45702
1.65039
2.20146
3.36521
3.65096
3.61245
3.50643
3.32845
3.17275
3.04112
2.9223
2.8207
2.73688
2.67426
2.62639
2.58944
2.55994
2.54233
2.53757
2.53562
2.54628
2.55795
2.57613
2.60401
2.63062
2.65148
2.66683
2.67596
2.67817
2.68113
2.67856
2.67232
2.65974
2.64742
2.63163
2.61705
2.59978
2.58379
2.56513
2.54761
2.52744
2.50841
2.48704
2.467
2.4451
2.42443
2.40224
2.38117
2.35875
2.33737
2.31474
2.29319
2.27048
2.24898
2.22639
2.20518
2.18282
2.16198
2.13989
2.11942
2.09764
2.07752
2.05609
2.03628
2.01525
1.99571
1.97506
1.95578
1.93555
1.9167
1.89695
1.87952
1.86112
3.79422
3.60164
3.40829
3.21552
3.02834
2.84697
2.67562
2.51506
2.36633
2.22943
2.10481
1.9912
1.88871
1.79621
1.71259
1.63842
1.57077
1.51213
1.45836
1.41303
1.37207
1.33973
1.31283
1.31288
1.31752
1.33404
1.37667
1.47518
1.6602
2.18772
3.24529
3.79755
3.78983
3.72376
3.54525
3.35882
3.20789
3.08589
2.97442
2.87791
2.79758
2.73465
2.67938
2.63589
2.59974
2.57604
2.56421
2.55468
2.55678
2.56406
2.57616
2.59728
2.62235
2.6439
2.66038
2.67025
2.67347
2.67423
2.67408
2.66681
2.65592
2.64016
2.62552
2.60817
2.59221
2.57365
2.55618
2.53612
2.51709
2.49585
2.47591
2.45407
2.43363
2.4115
2.39068
2.36836
2.34715
2.32464
2.30322
2.28062
2.25929
2.23679
2.21579
2.1935
2.17286
2.15082
2.13047
2.10871
2.0886
2.06717
2.04731
2.02623
2.00666
1.98597
1.96673
1.94643
1.92765
1.90776
1.89038
1.87152
3.83617
3.6496
3.4655
3.28284
3.10262
2.93053
2.76387
2.60789
2.46202
2.32562
2.20152
2.08585
1.98161
1.88602
1.79912
1.72124
1.64947
1.58649
1.5282
1.47793
1.4325
1.39471
1.36601
1.36601
1.37157
1.39079
1.4381
1.5352
1.75777
2.21261
2.91749
3.75173
3.89438
3.86773
3.75097
3.54834
3.37473
3.23707
3.11043
2.99972
2.90873
2.8342
2.76979
2.71222
2.66468
2.62518
2.5973
2.58025
2.56882
2.56187
2.56713
2.57385
2.58691
2.60741
2.62841
2.64425
2.65571
2.65913
2.66092
2.65945
2.65542
2.64202
2.62866
2.61188
2.59622
2.578
2.5611
2.54185
2.52381
2.50354
2.48431
2.46313
2.44298
2.42115
2.40041
2.37809
2.357
2.33436
2.31315
2.29044
2.26926
2.24669
2.22567
2.20334
2.18254
2.16051
2.13996
2.11825
2.09799
2.07661
2.05671
2.03569
2.01614
1.99551
1.9763
1.95604
1.93727
1.91735
1.89997
1.88081
3.89323
3.70334
3.52399
3.3479
3.17488
3.00673
2.84832
2.693
2.55204
2.41574
2.2923
2.17674
2.07009
1.97361
1.88305
1.80312
1.72728
1.66144
1.59912
1.54509
1.49739
1.45391
1.43645
1.43757
1.44818
1.47945
1.54469
1.70794
2.05531
2.36876
2.65783
3.15434
3.68425
3.826
3.81272
3.7279
3.54903
3.39562
3.2527
3.12516
3.02316
2.93634
2.86204
2.79396
2.73603
2.68479
2.64348
2.60972
2.58853
2.57057
2.55888
2.56057
2.5648
2.5729
2.58833
2.60643
2.62338
2.635
2.64164
2.64263
2.64302
2.63871
2.62975
2.61496
2.59975
2.58175
2.56492
2.5463
2.52861
2.50889
2.48994
2.46902
2.4492
2.42754
2.40717
2.38504
2.36423
2.34184
2.32075
2.2983
2.27714
2.25474
2.23374
2.21152
2.1908
2.16885
2.14843
2.12673
2.10656
2.08516
2.06523
2.0442
2.0245
2.0039
1.98452
1.96433
1.94547
1.92564
1.90828
1.88903
3.95935
3.76503
3.5833
3.41172
3.24499
3.07977
2.9256
2.77602
2.63424
2.50322
2.37704
2.26395
2.15502
2.05792
1.96556
1.88263
1.80556
1.735
1.67204
1.61368
1.56542
1.52461
1.52327
1.5284
1.55115
1.60405
1.72969
2.04104
2.314
2.46238
2.60368
2.80558
3.13621
3.56377
3.74315
3.73735
3.68334
3.56791
3.42208
3.271
3.14962
3.04648
2.95695
2.87895
2.81089
2.75054
2.69747
2.65332
2.61659
2.5917
2.56973
2.55609
2.54867
2.55266
2.55726
2.56666
2.58256
2.59898
2.61095
2.62006
2.62173
2.62192
2.62054
2.61322
2.60032
2.58302
2.56662
2.54814
2.53081
2.51161
2.49327
2.47316
2.45379
2.43283
2.41269
2.39103
2.3704
2.34823
2.3273
2.30489
2.2839
2.26158
2.24074
2.21867
2.1981
2.17627
2.15598
2.13434
2.11425
2.09286
2.07291
2.0519
2.03217
2.01167
1.9923
1.97224
1.95343
1.93361
1.91633
1.89679
4.03133
3.82439
3.64679
3.47299
3.31262
3.15252
2.99879
2.85396
2.71462
2.58352
2.46104
2.34457
2.23878
2.13726
2.04673
1.95955
1.88227
1.809
1.74367
1.68679
1.63417
1.62168
1.62331
1.63982
1.6881
1.79376
2.07469
2.35383
2.49986
2.55599
2.61901
2.69212
2.81423
3.04145
3.39779
3.63617
3.65931
3.64714
3.58282
3.43746
3.30077
3.17535
3.0664
2.97446
2.89266
2.82322
2.75921
2.70578
2.65829
2.62059
2.59043
2.56697
2.5481
2.53583
2.53671
2.5397
2.54565
2.5571
2.57142
2.5853
2.59503
2.59955
2.6005
2.59903
2.59486
2.58231
2.56739
2.54892
2.53159
2.51232
2.49454
2.47477
2.45617
2.43559
2.41602
2.3948
2.37449
2.35292
2.33218
2.31046
2.28962
2.26782
2.24715
2.22534
2.20498
2.18322
2.1631
2.14151
2.12153
2.10023
2.08037
2.0594
2.03975
2.01915
1.99983
1.97963
1.96089
1.94098
1.92382
1.90414
4.1327
3.90441
3.71064
3.5402
3.37708
3.22411
3.07317
2.92887
2.79258
2.66281
2.54009
2.42556
2.31716
2.21743
2.12277
2.03742
1.9559
1.88374
1.81717
1.75985
1.72931
1.7293
1.74223
1.78743
1.88465
2.13807
2.43886
2.58962
2.63671
2.64608
2.65288
2.66646
2.70389
2.78003
2.95514
3.23245
3.50468
3.61142
3.60897
3.56235
3.45767
3.33245
3.20081
3.08909
2.99158
2.90636
2.83232
2.76717
2.7113
2.66194
2.62116
2.58731
2.56154
2.53847
2.52393
2.51742
2.52053
2.52381
2.53067
2.54307
2.55741
2.5674
2.57468
2.57541
2.57483
2.57132
2.56365
2.54773
2.53101
2.51196
2.49411
2.47466
2.45644
2.43645
2.41759
2.39694
2.37741
2.35619
2.33614
2.31457
2.29425
2.27256
2.25221
2.23059
2.21038
2.18898
2.16892
2.14774
2.12777
2.10676
2.08685
2.06605
2.0463
2.02583
2.00644
1.9863
1.96756
1.94762
1.93054
1.9107
4.1882
3.98544
3.78317
3.60539
3.44552
3.29126
3.14594
3.00417
2.86795
2.74002
2.6185
2.5031
2.39593
2.29407
2.20045
2.11144
2.03195
1.95769
1.89413
1.84916
1.84709
1.8561
1.89423
1.9844
2.21315
2.54293
2.71237
2.7442
2.74768
2.73878
2.68956
2.672
2.67872
2.70356
2.7614
2.88222
3.09662
3.3663
3.5356
3.5396
3.52668
3.47491
3.34986
3.23117
3.11318
3.01046
2.92034
2.84147
2.77451
2.71451
2.66332
2.61921
2.5832
2.55439
2.52903
2.50998
2.49904
2.49851
2.50029
2.50482
2.51367
2.52513
2.53785
2.54519
2.54789
2.54762
2.54558
2.53944
2.527
2.50982
2.4924
2.47312
2.45494
2.43534
2.4169
2.39699
2.37808
2.35759
2.33803
2.31699
2.29707
2.27577
2.25581
2.23446
2.21461
2.19329
2.1735
2.15228
2.13248
2.11152
2.09171
2.07116
2.0515
2.03135
2.01207
1.99224
1.97366
1.95395
1.93708
1.91738
4.20143
4.08853
3.87097
3.68132
3.514
3.36235
3.21522
3.07802
2.94346
2.81568
2.69439
2.58051
2.47187
2.37092
2.27588
2.18798
2.10662
2.03786
1.97891
1.97496
1.98083
2.01389
2.10637
2.31888
2.67059
2.85676
2.8822
2.88579
2.8682
2.80273
2.73965
2.69014
2.68353
2.68705
2.70456
2.7461
2.82879
2.97909
3.20302
3.39507
3.47732
3.47608
3.44243
3.36288
3.25099
3.13696
3.02819
2.93514
2.85207
2.77998
2.71756
2.66363
2.61658
2.57731
2.54533
2.51724
2.4942
2.47984
2.47317
2.47492
2.47742
2.48281
2.49354
2.50461
2.51375
2.51879
2.51877
2.51734
2.51324
2.50282
2.48806
2.46971
2.45187
2.43255
2.41445
2.39506
2.37671
2.35693
2.33805
2.31767
2.29829
2.27748
2.25788
2.23689
2.21726
2.19628
2.17664
2.15586
2.13625
2.11577
2.09627
2.07601
2.05676
2.03666
2.01781
1.99794
1.97977
1.96017
1.94366
1.92442
4.19732
4.1302
3.96933
3.76601
3.59035
3.43329
3.28862
3.14905
3.01819
2.89108
2.77034
2.65557
2.54829
2.44603
2.35238
2.26414
2.18907
2.11967
2.11261
2.11474
2.14232
2.23212
2.42376
2.81088
3.01632
3.03846
3.04136
3.01644
2.93886
2.86119
2.79858
2.74798
2.71158
2.69614
2.69823
2.70496
2.72845
2.7804
2.8792
3.0441
3.23596
3.3749
3.40018
3.39427
3.35479
3.26071
3.1564
3.05031
2.94964
2.86278
2.78638
2.71994
2.6624
2.61205
2.56925
2.53381
2.50334
2.47768
2.45952
2.44882
2.44796
2.44907
2.45269
2.4601
2.46989
2.48057
2.48699
2.48754
2.48692
2.48428
2.47804
2.46322
2.44739
2.42876
2.41098
2.39168
2.37361
2.35424
2.33592
2.31627
2.29754
2.27751
2.25843
2.23809
2.21884
2.19837
2.17908
2.15864
2.13939
2.11907
2.09996
2.07984
2.06098
2.04115
2.02272
2.00328
1.98556
1.96654
1.95045
1.93226
4.17186
4.13991
4.05195
3.85317
3.66889
3.50785
3.36027
3.22292
3.09017
2.96593
2.84534
2.73185
2.62327
2.52276
2.42862
2.3473
2.27309
2.25595
2.25685
2.28317
2.3703
2.56269
2.97105
3.18956
3.20981
3.20988
3.18056
3.08854
3.00237
2.93049
2.87046
2.81907
2.77339
2.73553
2.71252
2.70023
2.70075
2.70938
2.73704
2.79762
2.90587
3.06752
3.22159
3.32067
3.32118
3.30556
3.26231
3.16632
3.06575
2.96572
2.87369
2.79239
2.72129
2.65975
2.60611
2.5601
2.52095
2.48918
2.46065
2.43903
2.42566
2.41933
2.4199
2.42188
2.42597
2.43508
2.44404
2.45229
2.45504
2.45484
2.45306
2.44814
2.43816
2.42237
2.40581
2.38695
2.36922
2.3502
2.33232
2.31328
2.2951
2.27577
2.25725
2.23753
2.21881
2.19883
2.18009
2.16006
2.14137
2.12146
2.10286
2.08316
2.0648
2.0454
2.02754
2.0086
1.99159
1.97351
1.9581
1.94223
4.11522
4.11477
4.0724
3.96021
3.7628
3.58856
3.43615
3.296
3.16482
3.03918
2.92045
2.80721
2.70063
2.60035
2.51271
2.43346
2.4096
2.40904
2.43445
2.52138
2.72067
3.15396
3.38188
3.39389
3.39106
3.35426
3.25181
3.15717
3.07657
3.01125
2.95065
2.89686
2.84476
2.79654
2.75439
2.71964
2.70301
2.68645
2.68744
2.69834
2.72919
2.79539
2.90692
3.05286
3.17788
3.2421
3.24141
3.22106
3.17034
3.07503
2.97858
2.88445
2.79828
2.72311
2.6567
2.60005
2.55035
2.50848
2.4739
2.44375
2.4193
2.40173
2.39156
2.38889
2.38961
2.39219
2.39698
2.40691
2.41509
2.42127
2.42132
2.42043
2.41756
2.41066
2.39739
2.38069
2.36388
2.34543
2.32788
2.30926
2.29164
2.27282
2.25501
2.23584
2.21777
2.19835
2.1801
2.16064
2.14238
2.12305
2.10497
2.0858
2.06817
2.04926
2.0324
2.01424
1.99855
1.98219
1.96825
1.95646
3.88565
4.0856
4.06911
4.00797
3.85988
3.67542
3.51457
3.37136
3.23911
3.11435
2.99559
2.88367
2.77882
2.6856
2.6012
2.57276
2.57089
2.59623
2.68642
2.8997
3.35233
3.58822
3.59646
3.58546
3.5366
3.42744
3.32294
3.23645
3.16318
3.09726
3.03629
2.97629
2.9203
2.86427
2.81313
2.76485
2.72385
2.69732
2.67403
2.65973
2.66157
2.67424
2.70646
2.77445
2.88636
3.01223
3.11751
3.15812
3.15604
3.13347
3.0796
2.98791
2.89452
2.8055
2.72526
2.65435