/*--------------------------------*- C++ -*----------------------------------*\
  =========                 |
  \\      /  F ield         | OpenFOAM: The Open Source CFD Toolbox
   \\    /   O peration     | Website:  https://openfoam.org
    \\  /    A nd           | Version:  10
     \\/     M anipulation  |
\*---------------------------------------------------------------------------*/
FoamFile
{
    format      ascii;
    class       volVectorField;
    location    "3.5";
    object      U;
}
// * * * * * * * * * * * * * * * * * * * * * * * * * * * * * * * * * * * * * //

dimensions      [0 1 -1 0 0 0 0];

internalField   nonuniform List<vector> 
5250
(
(3 6.48245e-09 0)
(2.99999 1.03089e-07 0)
(2.99997 1.12312e-07 0)
(2.99991 1.05164e-06 0)
(2.99978 1.21439e-06 0)
(2.99947 6.04861e-06 0)
(2.99869 1.125e-05 0)
(2.99679 3.0138e-05 0)
(2.992 8.33846e-05 0)
(2.9801 0.000170725 0)
(2.94907 0.000489672 0)
(2.86445 0.00122718 0)
(2.61912 0.00338343 0)
(1.89768 0.00970847 0)
(0.881403 0.0265564 0)
(0.432997 0.0243498 0)
(0.533179 0.0243703 0)
(0.561026 0.0261976 0)
(0.506087 0.0280525 0)
(0.415025 0.0299534 0)
(0.330229 0.0321883 0)
(0.261682 0.0348188 0)
(0.19329 0.0375984 0)
(0.115713 0.0408254 0)
(0.0487365 0.0445728 0)
(3 1.48493e-08 0)
(2.99999 3.20886e-07 0)
(2.99997 4.77521e-07 0)
(2.99992 3.11093e-06 0)
(2.99979 4.04077e-06 0)
(2.99948 1.95569e-05 0)
(2.99871 2.84601e-05 0)
(2.99685 0.000116191 0)
(2.99211 0.000191199 0)
(2.98043 0.000661927 0)
(2.94999 0.00132083 0)
(2.86674 0.00399541 0)
(2.62643 0.0103066 0)
(1.91605 0.0301919 0)
(0.892295 0.0809496 0)
(0.429839 0.0703941 0)
(0.533414 0.0671926 0)
(0.562437 0.0701487 0)
(0.507183 0.0732079 0)
(0.416101 0.0764513 0)
(0.331217 0.0800188 0)
(0.262021 0.0839506 0)
(0.192569 0.0875789 0)
(0.113764 0.091073 0)
(0.0464208 0.0935646 0)
(3 6.66361e-08 0)
(2.99999 3.53141e-07 0)
(2.99997 1.42883e-06 0)
(2.99992 3.4775e-06 0)
(2.9998 1.05589e-05 0)
(2.99949 2.36515e-05 0)
(2.99877 6.56879e-05 0)
(2.99692 0.000150974 0)
(2.99245 0.000395796 0)
(2.98103 0.000952482 0)
(2.95189 0.00246451 0)
(2.87186 0.00634392 0)
(2.64122 0.0176559 0)
(1.95807 0.0508415 0)
(0.918125 0.138618 0)
(0.428045 0.119701 0)
(0.53791 0.113003 0)
(0.569604 0.118091 0)
(0.514168 0.123881 0)
(0.423295 0.130631 0)
(0.338278 0.137418 0)
(0.268176 0.144548 0)
(0.197255 0.151388 0)
(0.116465 0.157538 0)
(0.0468479 0.160785 0)
(3 1.03052e-07 0)
(2.99999 4.35651e-07 0)
(2.99997 2.04702e-06 0)
(2.99992 4.32282e-06 0)
(2.99981 1.5057e-05 0)
(2.99953 2.92394e-05 0)
(2.99882 9.49041e-05 0)
(2.99712 0.000183025 0)
(2.99278 0.000577215 0)
(2.98215 0.00118885 0)
(2.95447 0.00347075 0)
(2.87947 0.00836892 0)
(2.66369 0.0239769 0)
(2.02153 0.0686725 0)
(0.960117 0.191292 0)
(0.430046 0.168256 0)
(0.547786 0.158376 0)
(0.583532 0.165375 0)
(0.52814 0.174016 0)
(0.437522 0.184889 0)
(0.351853 0.195397 0)
(0.280455 0.206305 0)
(0.207476 0.217124 0)
(0.123408 0.226785 0)
(0.0494817 0.231356 0)
(3 9.30294e-08 0)
(2.99999 6.06193e-07 0)
(2.99997 2.08262e-06 0)
(2.99993 5.90056e-06 0)
(2.99982 1.55686e-05 0)
(2.99956 3.97708e-05 0)
(2.9989 9.85485e-05 0)
(2.99733 0.00025128 0)
(2.99329 0.000610061 0)
(2.98345 0.00156482 0)
(2.95786 0.00388885 0)
(2.88902 0.0102438 0)
(2.69191 0.0282046 0)
(2.1043 0.0818792 0)
(1.0194 0.234641 0)
(0.442595 0.218259 0)
(0.565117 0.206883 0)
(0.605109 0.214277 0)
(0.549984 0.224624 0)
(0.459592 0.239233 0)
(0.372555 0.253674 0)
(0.299243 0.268845 0)
(0.223428 0.284363 0)
(0.134611 0.298568 0)
(0.0542419 0.3055 0)
(3 8.20931e-08 0)
(2.99999 6.77965e-07 0)
(2.99997 1.95947e-06 0)
(2.99993 6.61072e-06 0)
(2.99983 1.47379e-05 0)
(2.9996 4.43591e-05 0)
(2.99899 9.36292e-05 0)
(2.99755 0.00027934 0)
(2.99388 0.000585952 0)
(2.98489 0.00171012 0)
(2.96169 0.00385228 0)
(2.89986 0.0107234 0)
(2.72386 0.0285631 0)
(2.2027 0.0831652 0)
(1.10453 0.243937 0)
(0.483178 0.260064 0)
(0.5966 0.257359 0)
(0.637231 0.265307 0)
(0.582117 0.276888 0)
(0.49189 0.295128 0)
(0.402643 0.3142 0)
(0.326362 0.334534 0)
(0.246724 0.356079 0)
(0.151453 0.376872 0)
(0.0619701 0.388534 0)
(3 9.49122e-08 0)
(2.99999 6.17587e-07 0)
(2.99998 2.03378e-06 0)
(2.99994 6.0318e-06 0)
(2.99985 1.5109e-05 0)
(2.99963 3.95927e-05 0)
(2.99909 9.66226e-05 0)
(2.99774 0.000241605 0)
(2.99448 0.000601064 0)
(2.98617 0.00147081 0)
(2.96538 0.00372741 0)
(2.90969 0.00948862 0)
(2.75258 0.0257035 0)
(2.28969 0.0729167 0)
(1.19879 0.215744 0)
(0.526251 0.294228 0)
(0.622718 0.312121 0)
(0.664358 0.318145 0)
(0.614437 0.329993 0)
(0.528924 0.352439 0)
(0.439872 0.377385 0)
(0.361783 0.404311 0)
(0.278803 0.433844 0)
(0.176408 0.464636 0)
(0.0745107 0.486137 0)
(3 1.03743e-07 0)
(2.99999 5.21471e-07 0)
(2.99998 2.14376e-06 0)
(2.99995 5.10279e-06 0)
(2.99986 1.58602e-05 0)
(2.99967 3.39119e-05 0)
(2.99916 9.94234e-05 0)
(2.99797 0.000208289 0)
(2.9949 0.000599536 0)
(2.98749 0.00129121 0)
(2.96839 0.00357185 0)
(2.91812 0.00851611 0)
(2.77675 0.0234174 0)
(2.35914 0.0650084 0)
(1.30468 0.192116 0)
(0.57898 0.337278 0)
(0.635574 0.371375 0)
(0.673958 0.369194 0)
(0.63849 0.381705 0)
(0.564765 0.408419 0)
(0.480709 0.441429 0)
(0.404233 0.477387 0)
(0.320963 0.518206 0)
(0.213324 0.564424 0)
(0.0957168 0.607149 0)
(3 7.59961e-08 0)
(2.99999 6.10646e-07 0)
(2.99998 1.77119e-06 0)
(2.99995 5.94797e-06 0)
(2.99987 1.3296e-05 0)
(2.9997 3.90796e-05 0)
(2.99924 8.30934e-05 0)
(2.99815 0.00024002 0)
(2.99538 0.000509397 0)
(2.98865 0.00144525 0)
(2.97139 0.00324439 0)
(2.92621 0.00880527 0)
(2.79946 0.0226554 0)
(2.42748 0.064021 0)
(1.43502 0.18819 0)
(0.661902 0.38582 0)
(0.643374 0.416085 0)
(0.672908 0.413559 0)
(0.657655 0.431084 0)
(0.599762 0.461132 0)
(0.525425 0.50357 0)
(0.454571 0.551213 0)
(0.376212 0.606706 0)
(0.27088 0.678562 0)
(0.134169 0.766565 0)
(3 8.68727e-08 0)
(2.99999 6.02644e-07 0)
(2.99998 1.93587e-06 0)
(2.99995 5.87324e-06 0)
(2.99989 1.42373e-05 0)
(2.99972 3.88919e-05 0)
(2.99933 8.87849e-05 0)
(2.99832 0.000240296 0)
(2.9959 0.000541702 0)
(2.98977 0.00146329 0)
(2.97452 0.00338333 0)
(2.93426 0.00899437 0)
(2.82268 0.0231988 0)
(2.49636 0.0653023 0)
(1.58876 0.190496 0)
(0.763929 0.43437 0)
(0.650895 0.448967 0)
(0.679045 0.451481 0)
(0.677904 0.475431 0)
(0.635272 0.509972 0)
(0.575435 0.560784 0)
(0.514602 0.62068 0)
(0.451125 0.697746 0)
(0.366414 0.814883 0)
(0.206813 1.02635 0)
(3 1.03851e-07 0)
(2.99999 5.71417e-07 0)
(2.99998 2.1683e-06 0)
(2.99996 5.60154e-06 0)
(2.9999 1.59945e-05 0)
(2.99976 3.70102e-05 0)
(2.99941 0.000101174 0)
(2.99853 0.000227067 0)
(2.9964 0.00061901 0)
(2.99102 0.0014 0)
(2.97766 0.00375669 0)
(2.94273 0.00902104 0)
(2.84635 0.024401 0)
(2.56709 0.0670703 0)
(1.76351 0.195367 0)
(0.884623 0.48307 0)
(0.660906 0.484046 0)
(0.692478 0.48648 0)
(0.704034 0.511911 0)
(0.674739 0.552416 0)
(0.630889 0.60888 0)
(0.58896 0.680213 0)
(0.560061 0.777849 0)
(0.560588 0.926797 0)
(0.60302 1.17838 0)
(3 9.17308e-08 0)
(2.99999 6.21979e-07 0)
(2.99999 2.01303e-06 0)
(2.99997 6.10256e-06 0)
(2.99992 1.51482e-05 0)
(2.99979 4.03363e-05 0)
(2.99949 9.66352e-05 0)
(2.99876 0.000248043 0)
(2.99688 0.000599989 0)
(2.99239 0.00151314 0)
(2.98087 0.00373244 0)
(2.95147 0.00950795 0)
(2.87112 0.0247208 0)
(2.63926 0.0687072 0)
(1.96034 0.198665 0)
(1.02763 0.525943 0)
(0.682754 0.523589 0)
(0.715317 0.52411 0)
(0.737703 0.543677 0)
(0.720574 0.587345 0)
(0.69244 0.647217 0)
(0.673288 0.72618 0)
(0.680743 0.832728 0)
(0.744283 0.979365 0)
(0.900413 1.17205 0)
(3 9.06077e-08 0)
(3 5.84182e-07 0)
(2.99999 1.99003e-06 0)
(2.99997 5.71796e-06 0)
(2.99993 1.48336e-05 0)
(2.99983 3.84958e-05 0)
(2.99958 9.37113e-05 0)
(2.99895 0.000241302 0)
(2.99746 0.000578663 0)
(2.99363 0.0014844 0)
(2.98433 0.00362603 0)
(2.96021 0.00926123 0)
(2.89587 0.0240008 0)
(2.71283 0.0660627 0)
(2.17212 0.191113 0)
(1.20432 0.537863 0)
(0.738461 0.565381 0)
(0.755891 0.571961 0)
(0.781795 0.578501 0)
(0.77587 0.618165 0)
(0.760218 0.678184 0)
(0.760872 0.756982 0)
(0.79412 0.858265 0)
(0.884469 0.981278 0)
(1.06345 1.10296 0)
(3 8.28501e-08 0)
(3 5.06787e-07 0)
(2.99999 1.78617e-06 0)
(2.99998 4.94349e-06 0)
(2.99994 1.32447e-05 0)
(2.99986 3.27888e-05 0)
(2.99966 8.37005e-05 0)
(2.99916 0.000203078 0)
(2.99792 0.000511961 0)
(2.99493 0.00124465 0)
(2.98735 0.00313541 0)
(2.96847 0.00777526 0)
(2.91856 0.0200262 0)
(2.77956 0.0539833 0)
(2.37637 0.153709 0)
(1.42308 0.455689 0)
(0.840194 0.589531 0)
(0.814963 0.615463 0)
(0.831872 0.621574 0)
(0.838772 0.650742 0)
(0.832604 0.704408 0)
(0.84477 0.775538 0)
(0.891629 0.861797 0)
(0.988105 0.957314 0)
(1.1574 1.03526 0)
(3 6.97165e-08 0)
(3 4.2545e-07 0)
(2.99999 1.51414e-06 0)
(2.99998 4.13685e-06 0)
(2.99995 1.11786e-05 0)
(2.99989 2.72534e-05 0)
(2.99972 6.95317e-05 0)
(2.99931 0.000167975 0)
(2.99833 0.000416873 0)
(2.99581 0.00102284 0)
(2.98977 0.00250564 0)
(2.97429 0.00623025 0)
(2.9343 0.0156674 0)
(2.82353 0.041139 0)
(2.50307 0.114138 0)
(1.64109 0.339023 0)
(0.941238 0.624815 0)
(0.855074 0.656469 0)
(0.870776 0.668774 0)
(0.890915 0.685206 0)
(0.8991 0.727717 0)
(0.920032 0.787202 0)
(0.972512 0.856558 0)
(1.0666 0.928281 0)
(1.21778 0.981778 0)
(3 5.99254e-08 0)
(3 3.7102e-07 0)
(2.99999 1.29251e-06 0)
(2.99999 3.61939e-06 0)
(2.99996 9.59151e-06 0)
(2.99991 2.38563e-05 0)
(2.99977 6.02671e-05 0)
(2.99945 0.000145998 0)
(2.99863 0.00036635 0)
(2.99667 0.000885076 0)
(2.99169 0.00221899 0)
(2.97944 0.00543836 0)
(2.94751 0.0137511 0)
(2.86068 0.0357708 0)
(2.61071 0.0985717 0)
(1.89542 0.287074 0)
(1.09366 0.665359 0)
(0.885963 0.691788 0)
(0.898243 0.704715 0)
(0.928981 0.712878 0)
(0.954746 0.74574 0)
(0.98448 0.79441 0)
(1.03909 0.849464 0)
(1.12783 0.903136 0)
(1.26043 0.941332 0)
(3 4.82095e-08 0)
(3 3.37522e-07 0)
(3 1.07628e-06 0)
(2.99999 3.30256e-06 0)
(2.99997 8.05164e-06 0)
(2.99993 2.18601e-05 0)
(2.99982 5.09763e-05 0)
(2.99956 0.000134383 0)
(2.99894 0.000313487 0)
(2.99736 0.00081605 0)
(2.99357 0.00193451 0)
(2.9839 0.00499038 0)
(2.95956 0.012251 0)
(2.89391 0.0322837 0)
(2.70791 0.0878294 0)
(2.16096 0.254492 0)
(1.29233 0.674957 0)
(0.939912 0.723095 0)
(0.934297 0.732829 0)
(0.965749 0.736856 0)
(1.00446 0.758346 0)
(1.04089 0.797561 0)
(1.09523 0.841955 0)
(1.17732 0.882968 0)
(1.29317 0.910896 0)
(3 4.45412e-08 0)
(3 2.63782e-07 0)
(3 9.53757e-07 0)
(2.99999 2.57894e-06 0)
(2.99998 7.04065e-06 0)
(2.99994 1.71318e-05 0)
(2.99987 4.41838e-05 0)
(2.99967 0.00010565 0)
(2.9992 0.000268877 0)
(2.99802 0.000644804 0)
(2.99517 0.00162744 0)
(2.98803 0.00397214 0)
(2.97028 0.0100046 0)
(2.92359 0.0255087 0)
(2.79552 0.0685868 0)
(2.42417 0.195557 0)
(1.56293 0.567627 0)
(1.05164 0.730904 0)
(0.994501 0.75566 0)
(1.0115 0.765095 0)
(1.05281 0.77429 0)
(1.09425 0.801957 0)
(1.14599 0.83643 0)
(1.22004 0.867818 0)
(1.32091 0.888343 0)
(3 3.57921e-08 0)
(3 2.06403e-07 0)
(3 7.59219e-07 0)
(2.99999 2.00892e-06 0)
(2.99998 5.58434e-06 0)
(2.99996 1.32462e-05 0)
(2.9999 3.47617e-05 0)
(2.99975 8.09972e-05 0)
(2.99939 0.000209071 0)
(2.99849 0.000489287 0)
(2.99634 0.00124687 0)
(2.99088 0.0029605 0)
(2.97749 0.00749507 0)
(2.94263 0.0184369 0)
(2.84778 0.0485713 0)
(2.5769 0.132831 0)
(1.83556 0.395362 0)
(1.17522 0.737315 0)
(1.04291 0.776616 0)
(1.04982 0.793841 0)
(1.09069 0.796074 0)
(1.13914 0.810651 0)
(1.19047 0.834981 0)
(1.25759 0.85818 0)
(1.34578 0.872791 0)
(3 2.73767e-08 0)
(3 1.70136e-07 0)
(3 5.8547e-07 0)
(2.99999 1.66326e-06 0)
(2.99999 4.35095e-06 0)
(2.99997 1.0923e-05 0)
(2.99992 2.75123e-05 0)
(2.99981 6.64418e-05 0)
(2.99954 0.000168194 0)
(2.99888 0.000398921 0)
(2.99723 0.00102382 0)
(2.99324 0.00241616 0)
(2.98315 0.00622278 0)
(2.95768 0.0151467 0)
(2.88899 0.0398563 0)
(2.69506 0.107764 0)
(2.12897 0.314517 0)
(1.3591 0.75622 0)
(1.09351 0.808773 0)
(1.08569 0.820435 0)
(1.12057 0.819069 0)
(1.17474 0.820954 0)
(1.22874 0.836045 0)
(1.29087 0.8526 0)
(1.36868 0.862614 0)
(3 2.03661e-08 0)
(3 1.351e-07 0)
(3 4.47244e-07 0)
(3 1.317e-06 0)
(2.99999 3.32318e-06 0)
(2.99998 8.68721e-06 0)
(2.99994 2.09203e-05 0)
(2.99987 5.30849e-05 0)
(2.99967 0.000127543 0)
(2.9992 0.000319015 0)
(2.99802 0.000776414 0)
(2.99521 0.00192304 0)
(2.9881 0.00474966 0)
(2.97062 0.0118215 0)
(2.92469 0.0302401 0)
(2.79958 0.0810044 0)
(2.43674 0.231698 0)
(1.64133 0.644796 0)
(1.20192 0.808806 0)
(1.14336 0.834525 0)
(1.15933 0.841184 0)
(1.20934 0.835983 0)
(1.26516 0.841057 0)
(1.32273 0.850807 0)
(1.39134 0.856681 0)
(3 1.53712e-08 0)
(3 1.00577e-07 0)
(3 3.36369e-07 0)
(3 9.77514e-07 0)
(2.99999 2.48558e-06 0)
(2.99998 6.41185e-06 0)
(2.99996 1.54793e-05 0)
(2.9999 3.8993e-05 0)
(2.99976 9.33906e-05 0)
(2.99942 0.000232609 0)
(2.99857 0.000559661 0)
(2.99655 0.00138441 0)
(2.9914 0.00336456 0)
(2.97889 0.00833422 0)
(2.94644 0.0207558 0)
(2.85917 0.0539279 0)
(2.6116 0.147742 0)
(1.93911 0.435276 0)
(1.33292 0.794899 0)
(1.19558 0.845362 0)
(1.19599 0.864425 0)
(1.23751 0.859446 0)
(1.2952 0.852335 0)
(1.35144 0.853429 0)
(1.41347 0.8549 0)
(3 1.19482e-08 0)
(3 7.36449e-08 0)
(3 2.59325e-07 0)
(3 7.16615e-07 0)
(3 1.91306e-06 0)
(2.99999 4.73122e-06 0)
(2.99997 1.18842e-05 0)
(2.99993 2.90477e-05 0)
(2.99983 7.12509e-05 0)
(2.99959 0.000175935 0)
(2.99898 0.00042435 0)
(2.99755 0.00106105 0)
(2.99389 0.00255311 0)
(2.98509 0.00642477 0)
(2.96246 0.0157959 0)
(2.90286 0.0408084 0)
(2.73657 0.109699 0)
(2.25174 0.318137 0)
(1.5397 0.76616 0)
(1.26307 0.862538 0)
(1.23769 0.883073 0)
(1.26159 0.88284 0)
(1.31584 0.86914 0)
(1.37504 0.861507 0)
(1.43425 0.857883 0)
(3 8.70143e-09 0)
(3 5.51032e-08 0)
(3 1.89772e-07 0)
(3 5.35139e-07 0)
(3 1.40309e-06 0)
(2.99999 3.51482e-06 0)
(2.99998 8.752e-06 0)
(2.99995 2.15084e-05 0)
(2.99988 5.25838e-05 0)
(2.99972 0.000129883 0)
(2.9993 0.000313364 0)
(2.99832 0.000782238 0)
(2.99587 0.00188137 0)
(2.98993 0.0047187 0)
(2.97502 0.0115509 0)
(2.93689 0.0293881 0)
(2.83376 0.0776085 0)
(2.53737 0.218812 0)
(1.83952 0.612575 0)
(1.38331 0.854511 0)
(1.29518 0.888619 0)
(1.29751 0.900065 0)
(1.339 0.888264 0)
(1.39667 0.872641 0)
(1.45389 0.864026 0)
(3 6.08749e-09 0)
(3 4.05418e-08 0)
(3 1.33443e-07 0)
(3 3.94311e-07 0)
(3 9.86694e-07 0)
(2.99999 2.57781e-06 0)
(2.99999 6.1548e-06 0)
(2.99997 1.55832e-05 0)
(2.99992 3.71501e-05 0)
(2.99981 9.27527e-05 0)
(2.99952 0.000222701 0)
(2.99885 0.000549817 0)
(2.99717 0.00133487 0)
(2.99314 0.00327864 0)
(2.98298 0.00807413 0)
(2.95759 0.0200453 0)
(2.88977 0.0516188 0)
(2.7005 0.139594 0)
(2.16642 0.407823 0)
(1.5511 0.835155 0)
(1.35267 0.902466 0)
(1.33495 0.915459 0)
(1.35919 0.907937 0)
(1.4131 0.887408 0)
(1.47163 0.872442 0)
(3 4.30716e-09 0)
(3 2.81956e-08 0)
(3 9.49241e-08 0)
(3 2.73823e-07 0)
(3 7.00039e-07 0)
(3 1.80123e-06 0)
(2.99999 4.32648e-06 0)
(2.99998 1.09672e-05 0)
(2.99995 2.58717e-05 0)
(2.99987 6.5552e-05 0)
(2.99969 0.000154287 0)
(2.99925 0.000388988 0)
(2.99814 0.000922351 0)
(2.99554 0.00231495 0)
(2.98898 0.00556975 0)
(2.97299 0.0139907 0)
(2.93154 0.0350203 0)
(2.82021 0.0932925 0)
(2.49894 0.265769 0)
(1.83113 0.690412 0)
(1.45726 0.881389 0)
(1.38968 0.912974 0)
(1.39221 0.920655 0)
(1.43294 0.90477 0)
(1.48904 0.881926 0)
(3 3.03418e-09 0)
(3 1.89507e-08 0)
(3 6.58917e-08 0)
(3 1.83925e-07 0)
(3 4.84045e-07 0)
(3 1.20718e-06 0)
(2.99999 2.98255e-06 0)
(2.99999 7.34076e-06 0)
(2.99996 1.76843e-05 0)
(2.99991 4.37793e-05 0)
(2.99979 0.000104168 0)
(2.99949 0.00026002 0)
(2.99878 0.000613363 0)
(2.99701 0.00153984 0)
(2.99271 0.00364669 0)
(2.98207 0.00917032 0)
(2.95522 0.0223396 0)
(2.88394 0.0578783 0)
(2.68504 0.156179 0)
(2.14467 0.447615 0)
(1.5999 0.845465 0)
(1.44364 0.914173 0)
(1.42752 0.929675 0)
(1.45012 0.922443 0)
(1.50097 0.897297 0)
(3 2.13196e-09 0)
(3 1.26919e-08 0)
(3 4.55025e-08 0)
(3 1.23316e-07 0)
(3 3.33648e-07 0)
(3 8.0763e-07 0)
(3 2.06586e-06 0)
(2.99999 4.88619e-06 0)
(2.99998 1.22954e-05 0)
(2.99994 2.91342e-05 0)
(2.99987 7.24438e-05 0)
(2.99967 0.000173438 0)
(2.99921 0.000425934 0)
(2.99807 0.00103469 0)
(2.99533 0.00251483 0)
(2.98854 0.00621318 0)
(2.97182 0.0151918 0)
(2.92852 0.0386206 0)
(2.81226 0.101609 0)
(2.47609 0.289932 0)
(1.85495 0.719878 0)
(1.53256 0.896363 0)
(1.47422 0.928377 0)
(1.47701 0.935459 0)
(1.51533 0.918066 0)
(3 1.40019e-09 0)
(3 8.64047e-09 0)
(3 3.00553e-08 0)
(3 8.37983e-08 0)
(3 2.20408e-07 0)
(3 5.45581e-07 0)
(3 1.36678e-06 0)
(2.99999 3.27882e-06 0)
(2.99999 8.17216e-06 0)
(2.99996 1.93674e-05 0)
(2.99991 4.83239e-05 0)
(2.99979 0.000114316 0)
(2.99949 0.000284725 0)
(2.99875 0.000674995 0)
(2.99702 0.00168029 0)
(2.99263 0.00401356 0)
(2.98212 0.0100193 0)
(2.95517 0.0245173 0)
(2.8846 0.0635572 0)
(2.687 0.172156 0)
(2.16728 0.486431 0)
(1.67259 0.859679 0)
(1.52789 0.929782 0)
(1.5098 0.944942 0)
(1.52862 0.937757 0)
(3 8.95861e-10 0)
(3 5.82331e-09 0)
(3 1.94219e-08 0)
(3 5.64698e-08 0)
(3 1.42789e-07 0)
(3 3.66843e-07 0)
(3 8.85916e-07 0)
(3 2.19622e-06 0)
(2.99999 5.30282e-06 0)
(2.99998 1.28921e-05 0)
(2.99995 3.15226e-05 0)
(2.99987 7.54778e-05 0)
(2.99968 0.000186674 0)
(2.99923 0.000441938 0)
(2.99811 0.00110646 0)
(2.99549 0.00260419 0)
(2.98887 0.00656994 0)
(2.97284 0.0157753 0)
(2.93144 0.0403352 0)
(2.82067 0.105445 0)
(2.5034 0.300558 0)
(1.92421 0.723024 0)
(1.61679 0.906484 0)
(1.55537 0.941396 0)
(1.55408 0.949027 0)
(3 5.98049e-10 0)
(3 3.70511e-09 0)
(3 1.29131e-08 0)
(3 3.58939e-08 0)
(3 9.4557e-08 0)
(3 2.3418e-07 0)
(3 5.79935e-07 0)
(3 1.4113e-06 0)
(2.99999 3.4262e-06 0)
(2.99999 8.36518e-06 0)
(2.99997 2.00655e-05 0)
(2.99992 4.92848e-05 0)
(2.9998 0.000117415 0)
(2.99952 0.000290256 0)
(2.99882 0.000687428 0)
(2.99718 0.00170831 0)
(2.99308 0.00406637 0)
(2.98321 0.0101244 0)
(2.95816 0.0247652 0)
(2.89306 0.0635387 0)
(2.7114 0.171857 0)
(2.23666 0.477889 0)
(1.76122 0.85941 0)
(1.60962 0.938282 0)
(1.5865 0.955013 0)
(3 3.77944e-10 0)
(3 2.39206e-09 0)
(3 8.25658e-09 0)
(3 2.30925e-08 0)
(3 6.04842e-08 0)
(3 1.5025e-07 0)
(3 3.70216e-07 0)
(3 9.05616e-07 0)
(3 2.17854e-06 0)
(2.99999 5.36712e-06 0)
(2.99998 1.27048e-05 0)
(2.99995 3.15858e-05 0)
(2.99988 7.41969e-05 0)
(2.99971 0.000185356 0)
(2.99929 0.000433948 0)
(2.9983 0.00108613 0)
(2.99588 0.00255738 0)
(2.99005 0.00639238 0)
(2.97561 0.0153588 0)
(2.93918 0.0389613 0)
(2.84297 0.100997 0)
(2.56814 0.285633 0)
(2.025 0.692917 0)
(1.70586 0.901927 0)
(1.63493 0.945656 0)
(3 2.44808e-10 0)
(3 1.47591e-09 0)
(3 5.21614e-09 0)
(3 1.4284e-08 0)
(3 3.80439e-08 0)
(3 9.25911e-08 0)
(3 2.3394e-07 0)
(3 5.52728e-07 0)
(3 1.38049e-06 0)
(2.99999 3.23922e-06 0)
(2.99999 8.05481e-06 0)
(2.99997 1.89591e-05 0)
(2.99993 4.6732e-05 0)
(2.99982 0.000110915 0)
(2.99957 0.000270687 0)
(2.99895 0.000648924 0)
(2.9975 0.0015686 0)
(2.99387 0.00380883 0)
(2.9852 0.00920413 0)
(2.96326 0.0227319 0)
(2.90697 0.0571159 0)
(2.75209 0.152553 0)
(2.33756 0.421601 0)
(1.86332 0.821543 0)
(1.69101 0.928806 0)
(3 1.45958e-10 0)
(3 9.46079e-10 0)
(3 3.15667e-09 0)
(3 9.14979e-09 0)
(3 2.30827e-08 0)
(3 5.90205e-08 0)
(3 1.42353e-07 0)
(3 3.50422e-07 0)
(3 8.44604e-07 0)
(3 2.0385e-06 0)
(2.99999 4.96793e-06 0)
(2.99998 1.18156e-05 0)
(2.99996 2.91093e-05 0)
(2.99989 6.84933e-05 0)
(2.99974 0.000170268 0)
(2.99938 0.000398432 0)
(2.99852 0.000993208 0)
(2.99641 0.00233392 0)
(2.99134 0.00582457 0)
(2.97884 0.0139298 0)
(2.94753 0.035155 0)
(2.86561 0.0899163 0)
(2.63318 0.249923 0)
(2.1358 0.632059 0)
(1.79675 0.88889 0)
(3 9.02155e-11 0)
(3 5.71479e-10 0)
(3 1.96167e-09 0)
(3 5.52957e-09 0)
(3 1.42868e-08 0)
(3 3.59012e-08 0)
(3 8.6986e-08 0)
(3 2.144e-07 0)
(3 5.10362e-07 0)
(3 1.25496e-06 0)
(3 2.96662e-06 0)
(2.99999 7.29324e-06 0)
(2.99997 1.72554e-05 0)
(2.99994 4.22671e-05 0)
(2.99985 0.000100198 0)
(2.99964 0.000244774 0)
(2.99911 0.000583094 0)
(2.99789 0.0014167 0)
(2.99485 0.00340377 0)
(2.98763 0.00828547 0)
(2.96947 0.020215 0)
(2.92362 0.0507555 0)
(2.79956 0.133265 0)
(2.45969 0.37084 0)
(1.9896 0.772145 0)
(3 5.65758e-11 0)
(3 3.41402e-10 0)
(3 1.21186e-09 0)
(3 3.29924e-09 0)
(3 8.82108e-09 0)
(3 2.14485e-08 0)
(3 5.37022e-08 0)
(3 1.28123e-07 0)
(3 3.13827e-07 0)
(3 7.52365e-07 0)
(3 1.81584e-06 0)
(2.99999 4.39414e-06 0)
(2.99998 1.04854e-05 0)
(2.99996 2.56584e-05 0)
(2.99991 6.05147e-05 0)
(2.99979 0.000149447 0)
(2.99949 0.000350785 0)
(2.99876 0.000868585 0)
(2.99706 0.00204278 0)
(2.99282 0.0050701 0)
(2.98272 0.0121028 0)
(2.95723 0.03031 0)
(2.89154 0.0765048 0)
(2.70862 0.208607 0)
(2.27671 0.544961 0)
(3 3.21e-11 0)
(3 2.11533e-10 0)
(3 6.99058e-10 0)
(3 2.03905e-09 0)
(3 5.11695e-09 0)
(3 1.31144e-08 0)
(3 3.13466e-08 0)
(3 7.7577e-08 0)
(3 1.84362e-07 0)
(3 4.49865e-07 0)
(3 1.0759e-06 0)
(3 2.59106e-06 0)
(2.99999 6.25645e-06 0)
(2.99998 1.49145e-05 0)
(2.99995 3.63869e-05 0)
(2.99988 8.57464e-05 0)
(2.99971 0.000211131 0)
(2.9993 0.000494761 0)
(2.99835 0.0012236 0)
(2.996 0.00286958 0)
(2.99046 0.00712589 0)
(2.97671 0.017003 0)
(2.94274 0.0427893 0)
(2.85327 0.110231 0)
(2.60502 0.305901 0)
(3 1.91648e-11 0)
(3 1.24065e-10 0)
(3 4.14277e-10 0)
(3 1.19621e-09 0)
(3 3.02167e-09 0)
(3 7.68038e-09 0)
(3 1.84401e-08 0)
(3 4.53257e-08 0)
(3 1.08151e-07 0)
(3 2.61561e-07 0)
(3 6.28054e-07 0)
(3 1.49972e-06 0)
(2.99999 3.63509e-06 0)
(2.99999 8.58428e-06 0)
(2.99997 2.09806e-05 0)
(2.99993 4.91423e-05 0)
(2.99983 0.000120703 0)
(2.99961 0.000281795 0)
(2.99904 0.000691543 0)
(2.99773 0.00162116 0)
(2.99448 0.00396769 0)
(2.98679 0.00941299 0)
(2.96751 0.0231743 0)
(2.919 0.0572503 0)
(2.78757 0.151261 0)
(3 1.15808e-11 0)
(3 7.10912e-11 0)
(3 2.48384e-10 0)
(3 6.85138e-10 0)
(3 1.80215e-09 0)
(3 4.41742e-09 0)
(3 1.09387e-08 0)
(3 2.616e-08 0)
(3 6.36696e-08 0)
(3 1.51639e-07 0)
(3 3.66769e-07 0)
(3 8.76152e-07 0)
(3 2.10407e-06 0)
(2.99999 5.05083e-06 0)
(2.99998 1.20676e-05 0)
(2.99996 2.91242e-05 0)
(2.99991 6.91267e-05 0)
(2.99978 0.000167774 0)
(2.99947 0.000397172 0)
(2.99873 0.000965977 0)
(2.99694 0.00228897 0)
(2.99268 0.0055941 0)
(2.98224 0.0134188 0)
(2.95658 0.0332287 0)
(2.89012 0.084021 0)
(3 6.56822e-12 0)
(3 4.10449e-11 0)
(3 1.42245e-10 0)
(3 3.94676e-10 0)
(3 1.0322e-09 0)
(3 2.5396e-09 0)
(3 6.24292e-09 0)
(3 1.50217e-08 0)
(3 3.62085e-08 0)
(3 8.71872e-08 0)
(3 2.073e-07 0)
(3 5.03263e-07 0)
(3 1.185e-06 0)
(3 2.89518e-06 0)
(2.99999 6.77489e-06 0)
(2.99998 1.66168e-05 0)
(2.99995 3.87957e-05 0)
(2.99988 9.50856e-05 0)
(2.99971 0.000222703 0)
(2.99931 0.00054327 0)
(2.99833 0.00128061 0)
(2.99605 0.00311507 0)
(2.99048 0.00742255 0)
(2.9771 0.0181563 0)
(2.94362 0.0445887 0)
(3 3.75464e-12 0)
(3 2.32514e-11 0)
(3 8.0791e-11 0)
(3 2.23779e-10 0)
(3 5.8584e-10 0)
(3 1.43819e-09 0)
(3 3.53856e-09 0)
(3 8.48205e-09 0)
(3 2.04801e-08 0)
(3 4.90484e-08 0)
(3 1.17097e-07 0)
(3 2.81386e-07 0)
(3 6.67968e-07 0)
(3 1.61225e-06 0)
(3 3.80066e-06 0)
(2.99999 9.21159e-06 0)
(2.99997 2.16627e-05 0)
(2.99993 5.24704e-05 0)
(2.99984 0.000123458 0)
(2.99961 0.000298333 0)
(2.99909 0.000703655 0)
(2.9978 0.00169601 0)
(2.99476 0.00402454 0)
(2.98733 0.00971442 0)
(2.96932 0.0234592 0)
(3 2.07364e-12 0)
(3 1.34214e-11 0)
(3 4.50566e-11 0)
(3 1.28875e-10 0)
(3 3.27327e-10 0)
(3 8.23603e-10 0)
(3 1.98407e-09 0)
(3 4.82291e-09 0)
(3 1.15242e-08 0)
(3 2.76283e-08 0)
(3 6.62649e-08 0)
(3 1.57236e-07 0)
(3 3.79716e-07 0)
(3 8.93746e-07 0)
(3 2.17275e-06 0)
(2.99999 5.07969e-06 0)
(2.99998 1.2401e-05 0)
(2.99996 2.8961e-05 0)
(2.99991 7.0557e-05 0)
(2.99979 0.000165396 0)
(2.9995 0.000401205 0)
(2.99882 0.000945827 0)
(2.99715 0.00228638 0)
(2.99326 0.00544827 0)
(2.98364 0.0132002 0)
(3 1.19153e-12 0)
(3 7.31819e-12 0)
(3 2.55579e-11 0)
(3 7.02349e-11 0)
(3 1.84605e-10 0)
(3 4.50334e-10 0)
(3 1.1129e-09 0)
(3 2.6428e-09 0)
(3 6.42535e-09 0)
(3 1.51656e-08 0)
(3 3.66637e-08 0)
(3 8.66905e-08 0)
(3 2.08282e-07 0)
(3 4.94204e-07 0)
(3 1.18187e-06 0)
(3 2.81897e-06 0)
(2.99999 6.69326e-06 0)
(2.99998 1.60743e-05 0)
(2.99995 3.79076e-05 0)
(2.99989 9.15714e-05 0)
(2.99974 0.000215116 0)
(2.99937 0.00052067 0)
(2.99851 0.001223 0)
(2.99642 0.00297103 0)
(2.99154 0.00701516 0)
(3 6.29991e-13 0)
(3 4.06304e-12 0)
(3 1.37071e-11 0)
(3 3.9183e-11 0)
(3 9.94361e-11 0)
(3 2.49774e-10 0)
(3 5.97148e-10 0)
(3 1.4633e-09 0)
(3 3.43201e-09 0)
(3 8.38011e-09 0)
(3 1.95115e-08 0)
(3 4.76095e-08 0)
(3 1.10827e-07 0)
(3 2.6937e-07 0)
(3 6.28495e-07 0)
(3 1.52058e-06 0)
(3 3.57009e-06 0)
(2.99999 8.55573e-06 0)
(2.99997 2.02542e-05 0)
(2.99994 4.81178e-05 0)
(2.99986 0.000114854 0)
(2.99966 0.000270148 0)
(2.9992 0.000650551 0)
(2.99808 0.00151963 0)
(2.99546 0.00368575 0)
(3 3.54261e-13 0)
(3 2.11575e-12 0)
(3 7.46586e-12 0)
(3 2.04954e-11 0)
(3 5.40398e-11 0)
(3 1.3071e-10 0)
(3 3.23998e-10 0)
(3 7.64813e-10 0)
(3 1.85199e-09 0)
(3 4.37521e-09 0)
(3 1.04447e-08 0)
(3 2.487e-08 0)
(3 5.86287e-08 0)
(3 1.40966e-07 0)
(3 3.28708e-07 0)
(3 7.96711e-07 0)
(3 1.84473e-06 0)
(2.99999 4.48092e-06 0)
(2.99999 1.03793e-05 0)
(2.99997 2.51154e-05 0)
(2.99992 5.83768e-05 0)
(2.99981 0.000140407 0)
(2.99955 0.000329065 0)
(2.99895 0.000782996 0)
(2.99747 0.00185612 0)
(3 1.84418e-13 0)
(3 1.11485e-12 0)
(3 3.84509e-12 0)
(3 1.06871e-11 0)
(3 2.75425e-11 0)
(3 6.79348e-11 0)
(3 1.65678e-10 0)
(3 3.91499e-10 0)
(3 9.49922e-10 0)
(3 2.1983e-09 0)
(3 5.34845e-09 0)
(3 1.23022e-08 0)
(3 2.98744e-08 0)
(3 6.86315e-08 0)
(3 1.65983e-07 0)
(3 3.83124e-07 0)
(3 9.16414e-07 0)
(3 2.13612e-06 0)
(2.99999 5.03826e-06 0)
(2.99998 1.1872e-05 0)
(2.99995 2.7556e-05 0)
(2.99989 6.58217e-05 0)
(2.99973 0.00015015 0)
(2.99935 0.000361965 0)
(2.99846 0.000818884 0)
(3 7.10656e-14 0)
(3 5.47226e-13 0)
(3 1.85889e-12 0)
(3 5.36026e-12 0)
(3 1.33521e-11 0)
(3 3.36427e-11 0)
(3 7.91966e-11 0)
(3 1.92446e-10 0)
(3 4.46061e-10 0)
(3 1.07089e-09 0)
(3 2.46926e-09 0)
(3 5.89381e-09 0)
(3 1.3573e-08 0)
(3 3.21424e-08 0)
(3 7.43253e-08 0)
(3 1.73881e-07 0)
(3 4.04523e-07 0)
(3 9.32591e-07 0)
(2.99999 2.1857e-06 0)
(2.99999 4.95956e-06 0)
(2.99997 1.16485e-05 0)
(2.99992 2.61697e-05 0)
(2.9998 6.1251e-05 0)
(2.99951 0.000135829 0)
(2.99882 0.000316577 0)
(3 2.32625e-14 0)
(3 2.48531e-13 0)
(3 8.22429e-13 0)
(3 2.51778e-12 0)
(3 6.20365e-12 0)
(3 1.56844e-11 0)
(3 3.6164e-11 0)
(3 8.864e-11 0)
(3 2.00652e-10 0)
(3 4.85944e-10 0)
(3 1.09794e-09 0)
(3 2.5995e-09 0)
(3 5.97261e-09 0)
(3 1.37761e-08 0)
(3 3.21063e-08 0)
(3 7.21254e-08 0)
(3 1.71036e-07 0)
(3 3.73242e-07 0)
(3 8.9607e-07 0)
(2.99999 1.90421e-06 0)
(2.99997 4.61363e-06 0)
(2.99993 9.54048e-06 0)
(2.99982 2.30527e-05 0)
(2.99957 4.70206e-05 0)
(2.99893 0.000110099 0)
(3 2.17487e-14 0)
(3 1.28617e-13 0)
(3 3.98764e-13 0)
(3 1.09912e-12 0)
(3 2.75305e-12 0)
(3 6.92234e-12 0)
(3 1.54856e-11 0)
(3 3.7829e-11 0)
(3 8.56746e-11 0)
(3 1.97836e-10 0)
(3 4.68753e-10 0)
(3 1.0164e-09 0)
(3 2.55313e-09 0)
(3 5.09032e-09 0)
(3 1.37153e-08 0)
(3 2.54279e-08 0)
(3 7.176e-08 0)
(3 1.25941e-07 0)
(3 3.6371e-07 0)
(2.99999 6.2534e-07 0)
(2.99997 1.7578e-06 0)
(2.99993 3.05856e-06 0)
(2.99983 7.98118e-06 0)
(2.99958 1.45916e-05 0)
(2.99897 3.23848e-05 0)
(3 2.69553e-14 0)
(3 5.08446e-14 0)
(3 1.66335e-13 0)
(3 3.34301e-13 0)
(3 8.75496e-13 0)
(3 1.94702e-12 0)
(3 4.44459e-12 0)
(3 1.05958e-11 0)
(3 2.29427e-11 0)
(3 5.62808e-11 0)
(3 1.18425e-10 0)
(3 3.03703e-10 0)
(3 6.07508e-10 0)
(3 1.53578e-09 0)
(3 3.21376e-09 0)
(3 7.6708e-09 0)
(3 1.68465e-08 0)
(3 3.57732e-08 0)
(3 8.98531e-08 0)
(2.99999 1.60449e-07 0)
(2.99997 4.58407e-07 0)
(2.99993 6.37912e-07 0)
(2.99983 2.29529e-06 0)
(2.99959 2.12892e-06 0)
(2.99897 9.71347e-06 0)
(1.27871 1.08328 0)
(1.69056 0.882971 0)
(1.87447 0.618759 0)
(1.9019 0.355074 0)
(1.85238 0.135341 0)
(1.75843 -0.00917044 0)
(1.66247 -0.045308 0)
(1.61419 -0.0148067 0)
(1.60625 0.0255924 0)
(1.60923 0.0455332 0)
(1.61227 0.0434133 0)
(1.61272 0.032279 0)
(1.61083 0.0218478 0)
(1.60693 0.0138881 0)
(1.60068 0.0101904 0)
(1.59353 0.0114417 0)
(1.5847 0.0153221 0)
(1.56825 0.0200554 0)
(1.53299 0.0257935 0)
(1.45575 0.0340923 0)
(1.28463 0.049643 0)
(0.920354 0.0833444 0)
(0.465412 0.147009 0)
(0.130748 0.162029 0)
(-0.0427677 0.133148 0)
(-0.245887 0.0981893 0)
(-0.416437 0.0516392 0)
(-0.569613 0.0165923 0)
(-0.683265 -0.00330972 0)
(-0.749696 -0.00377563 0)
(-0.784068 0.00862625 0)
(-0.801805 0.0144068 0)
(-0.808977 0.0135956 0)
(-0.80107 0.00765343 0)
(-0.770583 -0.00288853 0)
(-0.715136 -0.0143274 0)
(-0.637439 -0.0243794 0)
(-0.545148 -0.0329634 0)
(-0.444858 -0.040615 0)
(-0.342163 -0.0469533 0)
(-0.244369 -0.0492258 0)
(-0.150903 -0.0503788 0)
(-0.0665672 -0.0530674 0)
(0.0266491 -0.0503604 0)
(0.103267 -0.0429134 0)
(0.174639 -0.0396737 0)
(0.240081 -0.036751 0)
(0.300942 -0.0342667 0)
(0.355705 -0.0314601 0)
(0.406611 -0.0293475 0)
(0.4587 -0.0285504 0)
(0.510602 -0.0278369 0)
(0.559202 -0.0262035 0)
(0.604782 -0.02436 0)
(0.648167 -0.0227776 0)
(0.689688 -0.021389 0)
(0.729619 -0.0201572 0)
(0.768035 -0.0189971 0)
(0.805098 -0.0179378 0)
(0.840847 -0.0169419 0)
(0.87541 -0.0160326 0)
(0.908818 -0.0151716 0)
(0.941178 -0.0143747 0)
(0.972526 -0.0136084 0)
(1.00296 -0.0128884 0)
(1.03252 -0.0121881 0)
(1.06129 -0.0115277 0)
(1.08931 -0.0108833 0)
(1.11667 -0.0102781 0)
(1.14338 -0.00968951 0)
(1.1695 -0.00913444 0)
(1.19507 -0.00859675 0)
(1.22013 -0.00808847 0)
(1.24469 -0.00759482 0)
(1.26881 -0.00712593 0)
(1.29249 -0.00666963 0)
(1.31576 -0.00623467 0)
(1.33861 -0.00581208 0)
(1.36107 -0.00540961 0)
(1.38313 -0.00502047 0)
(1.40479 -0.00465137 0)
(1.42605 -0.00429589 0)
(1.44691 -0.00395914 0)
(1.46737 -0.00363342 0)
(1.48744 -0.00332364 0)
(1.50713 -0.00302177 0)
(1.52645 -0.00272949 0)
(1.54542 -0.00244234 0)
(1.56405 -0.00216247 0)
(1.58237 -0.00187844 0)
(1.60037 -0.00160642 0)
(1.61806 -0.00134961 0)
(1.63543 -0.00111874 0)
(1.65242 -0.000920931 0)
(1.66896 -0.000703205 0)
(1.6849 -0.000439475 0)
(1.69989 -0.000117235 0)
(1.71335 0.000295151 0)
(1.72382 0.000877728 0)
(1.73133 0.00155177 0)
(1.37232 0.994202 0)
(1.68608 0.71115 0)
(1.85992 0.398132 0)
(1.94438 0.130174 0)
(1.99466 -0.0613765 0)
(2.02455 -0.162407 0)
(2.03363 -0.168583 0)
(2.03211 -0.128243 0)
(2.01841 -0.0801021 0)
(1.99624 -0.0417028 0)
(1.97874 -0.0203496 0)
(1.97318 -0.0135973 0)
(1.97346 -0.0154853 0)
(1.97391 -0.0201966 0)
(1.97364 -0.0230098 0)
(1.97208 -0.0221529 0)
(1.96734 -0.0186994 0)
(1.95508 -0.0128081 0)
(1.92806 -0.00272911 0)
(1.87092 0.0153537 0)
(1.74779 0.050136 0)
(1.47604 0.119926 0)