/*--------------------------------*- C++ -*----------------------------------*\
  =========                 |
  \\      /  F ield         | OpenFOAM: The Open Source CFD Toolbox
   \\    /   O peration     | Website:  https://openfoam.org
    \\  /    A nd           | Version:  10
     \\/     M anipulation  |
\*---------------------------------------------------------------------------*/
FoamFile
{
    format      ascii;
    class       volScalarField;
    location    "0.88";
    object      beta;
}
// * * * * * * * * * * * * * * * * * * * * * * * * * * * * * * * * * * * * * //

dimensions      [0 0 0 0 0 0 0];

internalField   uniform 0;

boundaryField
{
    frontAndBack
    {
        type            empty;
    }
    inlet
    {
        type            calculated;
        value           uniform 0;
    }
    outlet
    {
        type            calculated;
        value           uniform 0;
    }
    substrate
    {
        type            calculated;
        value           nonuniform List<scalar> 
400
(
0.00265327
0.00287575
0.00308653
0.00329101
0.00349175
0.00368999
0.00388634
0.00408104
0.00427412
0.00446548
0.00465494
0.00484226
0.00502719
0.00520947
0.00538884
0.00556503
0.00573782
0.00590698
0.00607232
0.00623366
0.00639085
0.00654378
0.00669234
0.00683645
0.00697607
0.00711115
0.0072417
0.0073677
0.00748919
0.00760621
0.0077188
0.00782704
0.00793098
0.00803073
0.00812636
0.00821798
0.0083057
0.00838961
0.00846983
0.00854648
0.00861967
0.00868952
0.00875614
0.00881965
0.00888017
0.00893782
0.00899269
0.00904492
0.0090946
0.00914184
0.00918675
0.00922943
0.00926998
0.00930849
0.00934505
0.00937976
0.00941269
0.00944394
0.00947358
0.00950169
0.00952835
0.00955362
0.00957757
0.00960026
0.00962177
0.00964214
0.00966144
0.00967972
0.00969703
0.00971343
0.00972895
0.00974364
0.00975755
0.00977071
0.00978317
0.00979496
0.00980611
0.00981667
0.00982666
0.0098361
0.00984504
0.0098535
0.0098615
0.00986906
0.00987621
0.00988298
0.00988938
0.00989543
0.00990115
0.00990656
0.00991168
0.00991652
0.00992109
0.00992541
0.0099295
0.00993337
0.00993702
0.00994048
0.00994374
0.00994683
0.00994975
0.0099525
0.00995511
0.00995758
0.0099599
0.00996211
0.00996419
0.00996615
0.00996801
0.00996977
0.00997143
0.009973
0.00997449
0.00997589
0.00997721
0.00997847
0.00997965
0.00998077
0.00998183
0.00998283
0.00998377
0.00998466
0.00998551
0.0099863
0.00998706
0.00998777
0.00998844
0.00998908
0.00998968
0.00999025
0.00999078
0.00999129
0.00999177
0.00999222
0.00999265
0.00999305
0.00999344
0.0099938
0.00999414
0.00999446
0.00999477
0.00999505
0.00999533
0.00999558
0.00999583
0.00999606
0.00999627
0.00999648
0.00999667
0.00999685
0.00999703
0.00999719
0.00999735
0.00999749
0.00999763
0.00999776
0.00999788
0.009998
0.00999811
0.00999821
0.00999831
0.00999841
0.00999849
0.00999858
0.00999865
0.00999873
0.0099988
0.00999886
0.00999893
0.00999899
0.00999904
0.00999909
0.00999914
0.00999919
0.00999924
0.00999928
0.00999932
0.00999936
0.00999939
0.00999942
0.00999946
0.00999949
0.00999951
0.00999954
0.00999957
0.00999959
0.00999961
0.00999963
0.00999965
0.00999967
0.00999969
0.00999971
0.00999972
0.00999974
0.00999975
0.00999977
0.00999978
0.00999979
0.0099998
0.00999981
0.00999982
0.00999983
0.00999984
0.00999985
0.00999986
0.00999987
0.00999988
0.00999988
0.00999989
0.00999989
0.0099999
0.00999991
0.00999991
0.00999992
0.00999992
0.00999992
0.00999993
0.00999993
0.00999994
0.00999994
0.00999994
0.00999995
0.00999995
0.00999995
0.00999995
0.00999996
0.00999996
0.00999996
0.00999996
0.00999997
0.00999997
0.00999997
0.00999997
0.00999997
0.00999997
0.00999998
0.00999998
0.00999998
0.00999998
0.00999998
0.00999998
0.00999998
0.00999998
0.00999998
0.00999999
0.00999999
0.00999999
0.00999999
0.00999999
0.00999999
0.00999999
0.00999999
0.00999999
0.00999999
0.00999999
0.00999999
0.00999999
0.00999999
0.00999999
0.00999999
0.00999999
0.00999999
0.00999999
0.01
0.01
0.01
0.01
0.01
0.01
0.01
0.01
0.01
0.01
0.01
0.01
0.01
0.01
0.01
0.01
0.01
0.01
0.01
0.01
0.01
0.01
0.01
0.01
0.01
0.01
0.01
0.01
0.01
0.01
0.01
0.01
0.01
0.01
0.01
0.01
0.01
0.01
0.01
0.01
0.01
0.01
0.01
0.01
0.01
0.01
0.01
0.01
0.01
0.01
0.01
0.01
0.01
0.01
0.01
0.01
0.01
0.01
0.01
0.01
0.01
0.01
0.01
0.01
0.01
0.01
0.01
0.01
0.01
0.01
0.01
0.01
0.01
0.01
0.01
0.01
0.01
0.01
0.01
0.01
0.01
0.01
0.01
0.01
0.01
0.01
0.01
0.01
0.01
0.01
0.01
0.01
0.01
0.01
0.01
0.01
0.01
0.01
0.01
0.01
0.01
0.01
0.01
0.01
0.01
0.01
0.01
0.01
0.01
0.01
0.01
0.01
0.01
0.01
0.01
0.01
0.01
0.01
0.01
0.01
0.01
0.01
0.01
0.01
0.01
0.01
0.01
0.01
0.01
0.01
0.01
0.01
0.01
0.01
0.01
0.01
0.01
)
;
    }
    Wall
    {
        type            calculated;
        value           nonuniform List<scalar> 
400
(
0.00265327
0.00287576
0.00308653
0.00329101
0.00349174
0.00368999
0.00388634
0.00408105
0.00427413
0.00446549
0.00465494
0.00484226
0.00502719
0.00520947
0.00538883
0.00556502
0.0057378
0.00590696
0.00607229
0.00623363
0.00639082
0.00654375
0.0066923
0.00683641
0.00697603
0.00711111
0.00724165
0.00736766
0.00748915
0.00760616
0.00771876
0.00782699
0.00793093
0.00803068
0.00812631
0.00821793
0.00830565
0.00838956
0.00846978
0.00854643
0.00861962
0.00868947
0.00875609
0.00881961
0.00888013
0.00893777
0.00899265
0.00904488
0.00909456
0.0091418
0.00918672
0.0092294
0.00926994
0.00930845
0.00934502
0.00937972
0.00941266
0.00944391
0.00947355
0.00950167
0.00952832
0.00955359
0.00957754
0.00960024
0.00962175
0.00964212
0.00966142
0.0096797
0.00969702
0.00971341
0.00972893
0.00974362
0.00975753
0.0097707
0.00978315
0.00979494
0.0098061
0.00981666
0.00982665
0.0098361
0.00984503
0.00985349
0.00986149
0.00986905
0.00987621
0.00988297
0.00988937
0.00989542
0.00990115
0.00990656
0.00991167
0.00991651
0.00992109
0.00992541
0.0099295
0.00993336
0.00993702
0.00994047
0.00994374
0.00994682
0.00994974
0.0099525
0.00995511
0.00995757
0.0099599
0.0099621
0.00996419
0.00996615
0.00996801
0.00996977
0.00997143
0.009973
0.00997449
0.00997589
0.00997721
0.00997847
0.00997965
0.00998077
0.00998183
0.00998282
0.00998377
0.00998466
0.00998551
0.0099863
0.00998706
0.00998777
0.00998844
0.00998908
0.00998968
0.00999024
0.00999078
0.00999129
0.00999177
0.00999222
0.00999265
0.00999305
0.00999344
0.0099938
0.00999414
0.00999446
0.00999477
0.00999505
0.00999533
0.00999558
0.00999583
0.00999606
0.00999627
0.00999648
0.00999667
0.00999685
0.00999703
0.00999719
0.00999735
0.00999749
0.00999763
0.00999776
0.00999788
0.009998
0.00999811
0.00999821
0.00999831
0.00999841
0.00999849
0.00999858
0.00999865
0.00999873
0.0099988
0.00999886
0.00999893
0.00999899
0.00999904
0.00999909
0.00999914
0.00999919
0.00999924
0.00999928
0.00999932
0.00999936
0.00999939
0.00999942
0.00999946
0.00999949
0.00999951
0.00999954
0.00999957
0.00999959
0.00999961
0.00999963
0.00999965
0.00999967
0.00999969
0.00999971
0.00999972
0.00999974
0.00999975
0.00999977
0.00999978
0.00999979
0.0099998
0.00999981
0.00999982
0.00999983
0.00999984
0.00999985
0.00999986
0.00999987
0.00999988
0.00999988
0.00999989
0.00999989
0.0099999
0.00999991
0.00999991
0.00999992
0.00999992
0.00999992
0.00999993
0.00999993
0.00999994
0.00999994
0.00999994
0.00999995
0.00999995
0.00999995
0.00999995
0.00999996
0.00999996
0.00999996
0.00999996
0.00999997
0.00999997
0.00999997
0.00999997
0.00999997
0.00999997
0.00999998
0.00999998
0.00999998
0.00999998
0.00999998
0.00999998
0.00999998
0.00999998
0.00999998
0.00999999
0.00999999
0.00999999
0.00999999
0.00999999
0.00999999
0.00999999
0.00999999
0.00999999
0.00999999
0.00999999
0.00999999
0.00999999
0.00999999
0.00999999
0.00999999
0.00999999
0.00999999
0.00999999
0.01
0.01
0.01
0.01
0.01
0.01
0.01
0.01
0.01
0.01
0.01
0.01
0.01
0.01
0.01
0.01
0.01
0.01
0.01
0.01
0.01
0.01
0.01
0.01
0.01
0.01
0.01
0.01
0.01
0.01
0.01
0.01
0.01
0.01
0.01
0.01
0.01
0.01
0.01
0.01
0.01
0.01
0.01
0.01
0.01
0.01
0.01
0.01
0.01
0.01
0.01
0.01
0.01
0.01
0.01
0.01
0.01
0.01
0.01
0.01
0.01
0.01
0.01
0.01
0.01
0.01
0.01
0.01
0.01
0.01
0.01
0.01
0.01
0.01
0.01
0.01
0.01
0.01
0.01
0.01
0.01
0.01
0.01
0.01
0.01
0.01
0.01
0.01
0.01
0.01
0.01
0.01
0.01
0.01
0.01
0.01
0.01
0.01
0.01
0.01
0.01
0.01
0.01
0.01
0.01
0.01
0.01
0.01
0.01
0.01
0.01
0.01
0.01
0.01
0.01
0.01
0.01
0.01
0.01
0.01
0.01
0.01
0.01
0.01
0.01
0.01
0.01
0.01
0.01
0.01
0.01
0.01
0.01
0.01
0.01
0.01
0.01
)
;
    }
}


// ************************************************************************* //
