/*--------------------------------*- C++ -*----------------------------------*\
  =========                 |
  \\      /  F ield         | OpenFOAM: The Open Source CFD Toolbox
   \\    /   O peration     | Website:  https://openfoam.org
    \\  /    A nd           | Version:  10
     \\/     M anipulation  |
\*---------------------------------------------------------------------------*/
FoamFile
{
    format      ascii;
    class       volScalarField;
    location    "0.88";
    object      N1;
}
// * * * * * * * * * * * * * * * * * * * * * * * * * * * * * * * * * * * * * //

dimensions      [0 0 0 0 0 0 0];

internalField   nonuniform List<scalar> 
8000
(
1.70803e-14
5.11719e-14
8.5081e-14
1.18715e-13
1.51994e-13
1.84848e-13
2.17217e-13
2.49047e-13
2.80291e-13
3.10908e-13
3.40865e-13
3.70131e-13
3.98683e-13
4.26501e-13
4.53572e-13
4.79883e-13
5.0543e-13
5.30207e-13
5.54214e-13
5.77456e-13
5.99935e-13
6.2166e-13
6.4264e-13
6.62886e-13
6.8241e-13
7.01225e-13
7.19346e-13
7.36788e-13
7.53568e-13
7.69702e-13
7.85206e-13
8.00098e-13
8.14395e-13
8.28114e-13
8.41272e-13
8.53887e-13
8.65974e-13
8.77552e-13
8.88634e-13
8.99239e-13
9.09381e-13
9.19075e-13
9.28337e-13
9.37179e-13
9.45617e-13
9.53664e-13
9.61332e-13
9.68634e-13
9.75582e-13
9.82188e-13
9.88463e-13
9.94418e-13
1.00006e-12
1.00541e-12
1.01046e-12
1.01523e-12
1.01973e-12
1.02397e-12
1.02795e-12
1.03168e-12
1.03517e-12
1.03843e-12
1.04145e-12
1.04426e-12
1.04685e-12
1.04924e-12
1.05142e-12
1.0534e-12
1.05519e-12
1.0568e-12
1.05822e-12
1.05946e-12
1.06053e-12
1.06143e-12
1.06217e-12
1.06274e-12
1.06316e-12
1.06342e-12
1.06353e-12
1.06349e-12
1.06331e-12
1.06299e-12
1.06253e-12
1.06193e-12
1.0612e-12
1.06035e-12
1.05936e-12
1.05825e-12
1.05702e-12
1.05567e-12
1.0542e-12
1.05261e-12
1.05091e-12
1.04911e-12
1.04719e-12
1.04516e-12
1.04303e-12
1.0408e-12
1.03846e-12
1.03603e-12
1.0335e-12
1.03087e-12
1.02815e-12
1.02533e-12
1.02243e-12
1.01944e-12
1.01635e-12
1.01319e-12
1.00994e-12
1.0066e-12
1.00319e-12
9.99692e-13
9.96119e-13
9.92469e-13
9.88745e-13
9.84946e-13
9.81076e-13
9.77134e-13
9.73124e-13
9.69045e-13
9.649e-13
9.6069e-13
9.56416e-13
9.5208e-13
9.47683e-13
9.43226e-13
9.38711e-13
9.34139e-13
9.29512e-13
9.2483e-13
9.20096e-13
9.15309e-13
9.10473e-13
9.05588e-13
9.00655e-13
8.95676e-13
8.90651e-13
8.85583e-13
8.80473e-13
8.75321e-13
8.70129e-13
8.64898e-13
8.5963e-13
8.54326e-13
8.48987e-13
8.43614e-13
8.38208e-13
8.32772e-13
8.27305e-13
8.21809e-13
8.16285e-13
8.10735e-13
8.0516e-13
7.9956e-13
7.93937e-13
7.88293e-13
7.82628e-13
7.76943e-13
7.7124e-13
7.65519e-13
7.59782e-13
7.5403e-13
7.48264e-13
7.42486e-13
7.36695e-13
7.30893e-13
7.25082e-13
7.19262e-13
7.13435e-13
7.07601e-13
7.01761e-13
6.95917e-13
6.90069e-13
6.84218e-13
6.78366e-13
6.72514e-13
6.66661e-13
6.6081e-13
6.54961e-13
6.49115e-13
6.43273e-13
6.37436e-13
6.31604e-13
6.2578e-13
6.19962e-13
6.14154e-13
6.08354e-13
6.02564e-13
5.96786e-13
5.91019e-13
5.85264e-13
5.79522e-13
5.73795e-13
5.68082e-13
5.62385e-13
5.56704e-13
5.51039e-13
5.45393e-13
5.39764e-13
5.34155e-13
5.28565e-13
5.22995e-13
5.17447e-13
5.1192e-13
5.06415e-13
5.00933e-13
4.95474e-13
4.90039e-13
4.84628e-13
4.79243e-13
4.73883e-13
4.68549e-13
4.63241e-13
4.57961e-13
4.52708e-13
4.47483e-13
4.42287e-13
4.3712e-13
4.31982e-13
4.26874e-13
4.21796e-13
4.16748e-13
4.11732e-13
4.06747e-13
4.01793e-13
3.96872e-13
3.91983e-13
3.87126e-13
3.82303e-13
3.77513e-13
3.72757e-13
3.68034e-13
3.63346e-13
3.58692e-13
3.54073e-13
3.49488e-13
3.44939e-13
3.40425e-13
3.35946e-13
3.31503e-13
3.27096e-13
3.22725e-13
3.1839e-13
3.14092e-13
3.0983e-13
3.05604e-13
3.01415e-13
2.97263e-13
2.93148e-13
2.8907e-13
2.85029e-13
2.81026e-13
2.77059e-13
2.7313e-13
2.69238e-13
2.65383e-13
2.61566e-13
2.57786e-13
2.54043e-13
2.50338e-13
2.4667e-13
2.4304e-13
2.39447e-13
2.35891e-13
2.32373e-13
2.28891e-13
2.25447e-13
2.2204e-13
2.1867e-13
2.15337e-13
2.12041e-13
2.08782e-13
2.05559e-13
2.02373e-13
1.99224e-13
1.96111e-13
1.93034e-13
1.89994e-13
1.86989e-13
1.84021e-13
1.81088e-13
1.78191e-13
1.75329e-13
1.72503e-13
1.69712e-13
1.66956e-13
1.64234e-13
1.61548e-13
1.58896e-13
1.56278e-13
1.53695e-13
1.51145e-13
1.4863e-13
1.46148e-13
1.43699e-13
1.41284e-13
1.38902e-13
1.36552e-13
1.34235e-13
1.31951e-13
1.29699e-13
1.27479e-13
1.25291e-13
1.23134e-13
1.21009e-13
1.18915e-13
1.16852e-13
1.14819e-13
1.12817e-13
1.10846e-13
1.08904e-13
1.06993e-13
1.05111e-13
1.03258e-13
1.01435e-13
9.96404e-14
9.78747e-14
9.61375e-14
9.44286e-14
9.27478e-14
9.10948e-14
8.94694e-14
8.78713e-14
8.63005e-14
8.47566e-14
8.32394e-14
8.17487e-14
8.02842e-14
7.88458e-14
7.74333e-14
7.60463e-14
7.46847e-14
7.33483e-14
7.20369e-14
7.07502e-14
6.9488e-14
6.82502e-14
6.70365e-14
6.58467e-14
6.46806e-14
6.3538e-14
6.24187e-14
6.13224e-14
6.02491e-14
5.91985e-14
5.81704e-14
5.71646e-14
5.6181e-14
5.52193e-14
5.42793e-14
5.33609e-14
5.2464e-14
5.15882e-14
5.07336e-14
4.98998e-14
4.90867e-14
4.82942e-14
4.7522e-14
4.67701e-14
4.60383e-14
4.53264e-14
4.46343e-14
4.39618e-14
4.33087e-14
4.26751e-14
4.20606e-14
4.14652e-14
4.08888e-14
4.03312e-14
3.97922e-14
3.92719e-14
3.877e-14
3.82865e-14
3.78212e-14
3.73741e-14
3.6945e-14
3.65338e-14
3.61404e-14
3.57649e-14
3.5407e-14
3.50666e-14
3.47438e-14
3.44384e-14
3.41504e-14
3.38797e-14
3.36261e-14
3.33898e-14
3.31706e-14
3.29684e-14
3.27833e-14
3.26151e-14
3.24638e-14
3.23295e-14
3.2212e-14
3.21113e-14
3.20275e-14
3.19604e-14
3.19101e-14
3.18766e-14
3.18599e-14
1.72552e-14
5.17116e-14
8.60141e-14
1.20074e-13
1.53812e-13
1.87159e-13
2.20053e-13
2.52439e-13
2.84267e-13
3.15496e-13
3.46089e-13
3.76013e-13
4.05244e-13
4.33759e-13
4.6154e-13
4.88575e-13
5.14855e-13
5.40373e-13
5.65127e-13
5.89116e-13
6.12345e-13
6.34817e-13
6.56541e-13
6.77525e-13
6.9778e-13
7.17317e-13
7.3615e-13
7.54294e-13
7.71762e-13
7.8857e-13
8.04734e-13
8.20271e-13
8.35197e-13
8.49529e-13
8.63283e-13
8.76477e-13
8.89126e-13
9.01247e-13
9.12856e-13
9.23969e-13
9.34602e-13
9.4477e-13
9.54488e-13
9.6377e-13
9.7263e-13
9.81082e-13
9.89139e-13
9.96814e-13
1.00412e-12
1.01107e-12
1.01767e-12
1.02394e-12
1.02988e-12
1.03551e-12
1.04083e-12
1.04586e-12
1.0506e-12
1.05507e-12
1.05927e-12
1.0632e-12
1.06689e-12
1.07033e-12
1.07353e-12
1.0765e-12
1.07925e-12
1.08177e-12
1.08409e-12
1.08619e-12
1.0881e-12
1.08981e-12
1.09133e-12
1.09266e-12
1.09381e-12
1.09478e-12
1.09558e-12
1.09621e-12
1.09668e-12
1.09699e-12
1.09713e-12
1.09713e-12
1.09697e-12
1.09667e-12
1.09622e-12
1.09563e-12
1.09491e-12
1.09404e-12
1.09305e-12
1.09193e-12
1.09067e-12
1.0893e-12
1.0878e-12
1.08618e-12
1.08444e-12
1.08259e-12
1.08063e-12
1.07855e-12
1.07636e-12
1.07407e-12
1.07167e-12
1.06917e-12
1.06657e-12
1.06386e-12
1.06106e-12
1.05817e-12
1.05518e-12
1.05209e-12
1.04892e-12
1.04566e-12
1.04231e-12
1.03887e-12
1.03536e-12
1.03175e-12
1.02807e-12
1.02431e-12
1.02047e-12
1.01655e-12
1.01256e-12
1.0085e-12
1.00436e-12
1.00015e-12
9.95879e-13
9.91537e-13
9.87128e-13
9.82655e-13
9.78119e-13
9.73521e-13
9.68863e-13
9.64147e-13
9.59372e-13
9.54542e-13
9.49657e-13
9.44718e-13
9.39728e-13
9.34687e-13
9.29597e-13
9.24459e-13
9.19274e-13
9.14044e-13
9.0877e-13
9.03454e-13
8.98096e-13
8.92698e-13
8.87262e-13
8.81788e-13
8.76277e-13
8.70732e-13
8.65154e-13
8.59543e-13
8.539e-13
8.48228e-13
8.42528e-13
8.368e-13
8.31045e-13
8.25266e-13
8.19463e-13
8.13637e-13
8.0779e-13
8.01923e-13
7.96037e-13
7.90132e-13
7.84211e-13
7.78275e-13
7.72324e-13
7.66359e-13
7.60383e-13
7.54395e-13
7.48397e-13
7.4239e-13
7.36375e-13
7.30354e-13
7.24326e-13
7.18294e-13
7.12258e-13
7.0622e-13
7.0018e-13
6.94139e-13
6.88098e-13
6.82059e-13
6.76022e-13
6.69988e-13
6.63958e-13
6.57933e-13
6.51915e-13
6.45903e-13
6.39899e-13
6.33903e-13
6.27917e-13
6.21941e-13
6.15977e-13
6.10024e-13
6.04084e-13
5.98158e-13
5.92247e-13
5.8635e-13
5.8047e-13
5.74606e-13
5.68759e-13
5.62931e-13
5.57122e-13
5.51332e-13
5.45562e-13
5.39814e-13
5.34087e-13
5.28382e-13
5.227e-13
5.17041e-13
5.11407e-13
5.05797e-13
5.00213e-13
4.94654e-13
4.89122e-13
4.83616e-13
4.78138e-13
4.72688e-13
4.67266e-13
4.61874e-13
4.5651e-13
4.51177e-13
4.45874e-13
4.40601e-13
4.3536e-13
4.3015e-13
4.24972e-13
4.19827e-13
4.14714e-13
4.09634e-13
4.04588e-13
3.99576e-13
3.94597e-13
3.89653e-13
3.84744e-13
3.7987e-13
3.7503e-13
3.70227e-13
3.65459e-13
3.60727e-13
3.56031e-13
3.51372e-13
3.46749e-13
3.42164e-13
3.37615e-13
3.33103e-13
3.28629e-13
3.24192e-13
3.19793e-13
3.15432e-13
3.11108e-13
3.06823e-13
3.02576e-13
2.98366e-13
2.94195e-13
2.90063e-13
2.85969e-13
2.81913e-13
2.77896e-13
2.73917e-13
2.69977e-13
2.66076e-13
2.62213e-13
2.58389e-13
2.54603e-13
2.50856e-13
2.47147e-13
2.43477e-13
2.39845e-13
2.36252e-13
2.32697e-13
2.29181e-13
2.25702e-13
2.22262e-13
2.1886e-13
2.15496e-13
2.1217e-13
2.08881e-13
2.05631e-13
2.02418e-13
1.99242e-13
1.96104e-13
1.93002e-13
1.89938e-13
1.86911e-13
1.83921e-13
1.80967e-13
1.7805e-13
1.75169e-13
1.72325e-13
1.69516e-13
1.66743e-13
1.64006e-13
1.61304e-13
1.58637e-13
1.56006e-13
1.53409e-13
1.50848e-13
1.4832e-13
1.45827e-13
1.43369e-13
1.40944e-13
1.38552e-13
1.36194e-13
1.3387e-13
1.31578e-13
1.2932e-13
1.27094e-13
1.249e-13
1.22739e-13
1.20609e-13
1.18512e-13
1.16445e-13
1.1441e-13
1.12407e-13
1.10433e-13
1.08491e-13
1.06579e-13
1.04697e-13
1.02845e-13
1.01022e-13
9.92291e-14
9.74653e-14
9.57304e-14
9.40242e-14
9.23465e-14
9.06971e-14
8.90758e-14
8.74822e-14
8.59162e-14
8.43776e-14
8.2866e-14
8.13814e-14
7.99234e-14
7.84918e-14
7.70865e-14
7.57071e-14
7.43535e-14
7.30254e-14
7.17227e-14
7.0445e-14
6.91923e-14
6.79642e-14
6.67606e-14
6.55812e-14
6.44259e-14
6.32945e-14
6.21866e-14
6.11022e-14
6.00411e-14
5.90029e-14
5.79876e-14
5.6995e-14
5.60248e-14
5.50769e-14
5.41511e-14
5.32472e-14
5.23651e-14
5.15045e-14
5.06652e-14
4.98472e-14
4.90502e-14
4.82742e-14
4.75188e-14
4.6784e-14
4.60696e-14
4.53755e-14
4.47015e-14
4.40474e-14
4.34132e-14
4.27987e-14
4.22037e-14
4.16281e-14
4.10719e-14
4.05348e-14
4.00168e-14
3.95177e-14
3.90375e-14
3.85759e-14
3.8133e-14
3.77086e-14
3.73027e-14
3.6915e-14
3.65456e-14
3.61943e-14
3.58611e-14
3.55459e-14
3.52486e-14
3.49692e-14
3.47075e-14
3.44636e-14
3.42373e-14
3.40286e-14
3.38375e-14
3.36639e-14
3.35078e-14
3.33691e-14
3.32478e-14
3.31439e-14
3.30574e-14
3.29882e-14
3.29363e-14
3.29017e-14
3.28844e-14
1.74267e-14
5.22337e-14
8.69045e-14
1.21356e-13
1.55512e-13
1.89303e-13
2.22668e-13
2.5555e-13
2.87899e-13
3.19673e-13
3.50832e-13
3.81342e-13
4.11176e-13
4.4031e-13
4.68724e-13
4.96402e-13
5.23334e-13
5.49511e-13
5.74928e-13
5.99584e-13
6.23479e-13
6.46618e-13
6.69004e-13
6.90646e-13
7.11553e-13
7.31735e-13
7.51204e-13
7.69973e-13
7.88056e-13
8.05467e-13
8.22222e-13
8.38336e-13
8.53825e-13
8.68705e-13
8.82993e-13
8.96705e-13
9.09857e-13
9.22466e-13
9.34548e-13
9.46117e-13
9.57191e-13
9.67785e-13
9.77912e-13
9.87589e-13
9.96828e-13
1.00564e-12
1.01405e-12
1.02206e-12
1.02969e-12
1.03694e-12
1.04384e-12
1.05039e-12
1.0566e-12
1.06248e-12
1.06805e-12
1.07331e-12
1.07827e-12
1.08294e-12
1.08734e-12
1.09146e-12
1.09533e-12
1.09893e-12
1.10229e-12
1.10541e-12
1.10829e-12
1.11094e-12
1.11338e-12
1.1156e-12
1.1176e-12
1.11941e-12
1.12102e-12
1.12243e-12
1.12365e-12
1.12469e-12
1.12555e-12
1.12623e-12
1.12675e-12
1.12709e-12
1.12728e-12
1.1273e-12
1.12717e-12
1.12688e-12
1.12644e-12
1.12586e-12
1.12514e-12
1.12427e-12
1.12327e-12
1.12213e-12
1.12086e-12
1.11946e-12
1.11794e-12
1.11629e-12
1.11452e-12
1.11263e-12
1.11062e-12
1.1085e-12
1.10626e-12
1.10391e-12
1.10146e-12
1.0989e-12
1.09623e-12
1.09346e-12
1.09059e-12
1.08762e-12
1.08455e-12
1.08139e-12
1.07814e-12
1.07479e-12
1.07135e-12
1.06783e-12
1.06421e-12
1.06052e-12
1.05673e-12
1.05287e-12
1.04893e-12
1.04491e-12
1.04081e-12
1.03663e-12
1.03238e-12
1.02806e-12
1.02367e-12
1.01921e-12
1.01468e-12
1.01008e-12
1.00542e-12
1.0007e-12
9.95913e-13
9.91067e-13
9.86161e-13
9.81197e-13
9.76177e-13
9.71102e-13
9.65974e-13
9.60793e-13
9.55562e-13
9.50281e-13
9.44953e-13
9.39577e-13
9.34157e-13
9.28693e-13
9.23186e-13
9.17638e-13
9.1205e-13
9.06424e-13
9.00761e-13
8.95061e-13
8.89327e-13
8.8356e-13
8.7776e-13
8.7193e-13
8.66071e-13
8.60183e-13
8.54268e-13
8.48328e-13
8.42363e-13
8.36375e-13
8.30364e-13
8.24333e-13
8.18283e-13
8.12214e-13
8.06128e-13
8.00025e-13
7.93908e-13
7.87777e-13
7.81633e-13
7.75478e-13
7.69313e-13
7.63139e-13
7.56956e-13
7.50766e-13
7.4457e-13
7.3837e-13
7.32165e-13
7.25958e-13
7.19749e-13
7.1354e-13
7.0733e-13
7.01122e-13
6.94917e-13
6.88714e-13
6.82516e-13
6.76323e-13
6.70136e-13
6.63956e-13
6.57784e-13
6.51621e-13
6.45467e-13
6.39325e-13
6.33193e-13
6.27075e-13
6.20969e-13
6.14877e-13
6.088e-13
6.02739e-13
5.96694e-13
5.90666e-13
5.84657e-13
5.78666e-13
5.72694e-13
5.66742e-13
5.60811e-13
5.54902e-13
5.49015e-13
5.43151e-13
5.3731e-13
5.31493e-13
5.25701e-13
5.19935e-13
5.14194e-13
5.0848e-13
5.02793e-13
4.97134e-13
4.91503e-13
4.859e-13
4.80327e-13
4.74784e-13
4.6927e-13
4.63788e-13
4.58336e-13
4.52917e-13
4.47529e-13
4.42173e-13
4.36851e-13
4.31562e-13
4.26306e-13
4.21084e-13
4.15897e-13
4.10744e-13
4.05627e-13
4.00545e-13
3.95498e-13
3.90487e-13
3.85513e-13
3.80575e-13
3.75674e-13
3.7081e-13
3.65983e-13
3.61193e-13
3.56441e-13
3.51727e-13
3.47052e-13
3.42414e-13
3.37815e-13
3.33254e-13
3.28732e-13
3.24249e-13
3.19804e-13
3.15399e-13
3.11033e-13
3.06706e-13
3.02419e-13
2.98171e-13
2.93962e-13
2.89793e-13
2.85664e-13
2.81574e-13
2.77524e-13
2.73513e-13
2.69542e-13
2.65611e-13
2.61719e-13
2.57867e-13
2.54055e-13
2.50282e-13
2.46549e-13
2.42856e-13
2.39201e-13
2.35586e-13
2.32011e-13
2.28475e-13
2.24977e-13
2.21519e-13
2.181e-13
2.1472e-13
2.11378e-13
2.08075e-13
2.04811e-13
2.01585e-13
1.98397e-13
1.95247e-13
1.92136e-13
1.89062e-13
1.86026e-13
1.83027e-13
1.80066e-13
1.77141e-13
1.74254e-13
1.71404e-13
1.6859e-13
1.65813e-13
1.63072e-13
1.60367e-13
1.57697e-13
1.55064e-13
1.52466e-13
1.49903e-13
1.47376e-13
1.44883e-13
1.42425e-13
1.40001e-13
1.37612e-13
1.35256e-13
1.32935e-13
1.30646e-13
1.28391e-13
1.2617e-13
1.23981e-13
1.21824e-13
1.197e-13
1.17608e-13
1.15548e-13
1.1352e-13
1.11523e-13
1.09558e-13
1.07623e-13
1.05719e-13
1.03846e-13
1.02003e-13
1.0019e-13
9.84062e-14
9.66523e-14
9.49278e-14
9.32322e-14
9.15656e-14
8.99275e-14
8.83177e-14
8.6736e-14
8.51822e-14
8.36561e-14
8.21573e-14
8.06858e-14
7.92411e-14
7.78232e-14
7.64318e-14
7.50666e-14
7.37274e-14
7.24141e-14
7.11263e-14
6.98639e-14
6.86266e-14
6.74143e-14
6.62267e-14
6.50636e-14
6.39248e-14
6.28101e-14
6.17193e-14
6.06521e-14
5.96085e-14
5.85881e-14
5.75908e-14
5.66164e-14
5.56647e-14
5.47356e-14
5.38287e-14
5.29441e-14
5.20814e-14
5.12405e-14
5.04213e-14
4.96235e-14
4.8847e-14
4.80917e-14
4.73573e-14
4.66438e-14
4.59509e-14
4.52786e-14
4.46267e-14
4.39949e-14
4.33833e-14
4.27917e-14
4.22199e-14
4.16678e-14
4.11353e-14
4.06223e-14
4.01286e-14
3.96542e-14
3.91989e-14
3.87627e-14
3.83453e-14
3.79468e-14
3.75671e-14
3.7206e-14
3.68635e-14
3.65395e-14
3.62339e-14
3.59466e-14
3.56776e-14
3.54269e-14
3.51943e-14
3.49798e-14
3.47833e-14
3.46049e-14
3.44444e-14
3.43018e-14
3.41772e-14
3.40704e-14
3.39814e-14
3.39103e-14
3.38569e-14
3.38214e-14
3.38036e-14
1.75869e-14
5.27186e-14
8.77259e-14
1.22531e-13
1.57059e-13
1.91245e-13
2.25025e-13
2.58345e-13
2.91153e-13
3.23404e-13
3.55059e-13
3.86082e-13
4.16445e-13
4.4612e-13
4.75087e-13
5.03328e-13
5.30831e-13
5.57584e-13
5.83583e-13
6.08822e-13
6.33302e-13
6.57024e-13
6.79991e-13
7.02211e-13
7.2369e-13
7.44437e-13
7.64465e-13
7.83784e-13
8.02407e-13
8.20349e-13
8.37623e-13
8.54244e-13
8.70229e-13
8.85592e-13
9.00351e-13
9.1452e-13
9.28116e-13
9.41155e-13
9.53653e-13
9.65625e-13
9.77088e-13
9.88057e-13
9.98547e-13
1.00857e-12
1.01815e-12
1.02729e-12
1.036e-12
1.04431e-12
1.05222e-12
1.05975e-12
1.0669e-12
1.0737e-12
1.08015e-12
1.08625e-12
1.09204e-12
1.0975e-12
1.10266e-12
1.10752e-12
1.11209e-12
1.11638e-12
1.12039e-12
1.12414e-12
1.12764e-12
1.13089e-12
1.13389e-12
1.13666e-12
1.1392e-12
1.14152e-12
1.14362e-12
1.14551e-12
1.14719e-12
1.14868e-12
1.14997e-12
1.15106e-12
1.15198e-12
1.15271e-12
1.15326e-12
1.15364e-12
1.15386e-12
1.15391e-12
1.15379e-12
1.15352e-12
1.1531e-12
1.15252e-12
1.1518e-12
1.15093e-12
1.14992e-12
1.14877e-12
1.14749e-12
1.14607e-12
1.14452e-12
1.14285e-12
1.14104e-12
1.13912e-12
1.13708e-12
1.13491e-12
1.13263e-12
1.13024e-12
1.12773e-12
1.12512e-12
1.12239e-12
1.11957e-12
1.11663e-12
1.1136e-12
1.11047e-12
1.10723e-12
1.10391e-12
1.10048e-12
1.09697e-12
1.09336e-12
1.08967e-12
1.08589e-12
1.08202e-12
1.07807e-12
1.07403e-12
1.06992e-12
1.06572e-12
1.06145e-12
1.0571e-12
1.05268e-12
1.04819e-12
1.04362e-12
1.03898e-12
1.03428e-12
1.02951e-12
1.02467e-12
1.01977e-12
1.01481e-12
1.00979e-12
1.00471e-12
9.9957e-13
9.94375e-13
9.89125e-13
9.83821e-13
9.78465e-13
9.73059e-13
9.67604e-13
9.621e-13
9.56551e-13
9.50956e-13
9.45318e-13
9.39638e-13
9.33917e-13
9.28156e-13
9.22357e-13
9.16522e-13
9.10651e-13
9.04745e-13
8.98807e-13
8.92838e-13
8.86838e-13
8.80809e-13
8.74753e-13
8.68671e-13
8.62563e-13
8.56431e-13
8.50277e-13
8.44102e-13
8.37906e-13
8.31692e-13
8.2546e-13
8.19212e-13
8.12948e-13
8.0667e-13
8.00379e-13
7.94077e-13
7.87764e-13
7.81441e-13
7.7511e-13
7.68772e-13
7.62428e-13
7.56079e-13
7.49726e-13
7.4337e-13
7.37012e-13
7.30653e-13
7.24295e-13
7.17938e-13
7.11584e-13
7.05232e-13
6.98886e-13
6.92544e-13
6.86209e-13
6.79881e-13
6.73561e-13
6.6725e-13
6.60949e-13
6.54659e-13
6.48381e-13
6.42115e-13
6.35863e-13
6.29625e-13
6.23403e-13
6.17196e-13
6.11006e-13
6.04834e-13
5.9868e-13
5.92545e-13
5.8643e-13
5.80336e-13
5.74263e-13
5.68212e-13
5.62183e-13
5.56178e-13
5.50198e-13
5.44241e-13
5.38311e-13
5.32406e-13
5.26527e-13
5.20676e-13
5.14853e-13
5.09058e-13
5.03292e-13
4.97555e-13
4.91848e-13
4.86172e-13
4.80526e-13
4.74912e-13
4.6933e-13
4.6378e-13
4.58263e-13
4.52779e-13
4.47329e-13
4.41913e-13
4.36531e-13
4.31184e-13
4.25873e-13
4.20596e-13
4.15356e-13
4.10152e-13
4.04984e-13
3.99854e-13
3.9476e-13
3.89703e-13
3.84685e-13
3.79704e-13
3.74761e-13
3.69857e-13
3.64991e-13
3.60164e-13
3.55376e-13
3.50627e-13
3.45917e-13
3.41247e-13
3.36617e-13
3.32026e-13
3.27475e-13
3.22964e-13
3.18493e-13
3.14063e-13
3.09672e-13
3.05323e-13
3.01013e-13
2.96744e-13
2.92515e-13
2.88328e-13
2.8418e-13
2.80073e-13
2.76007e-13
2.71982e-13
2.67997e-13
2.64053e-13
2.60149e-13
2.56286e-13
2.52463e-13
2.48681e-13
2.44939e-13
2.41237e-13
2.37576e-13
2.33955e-13
2.30374e-13
2.26833e-13
2.23331e-13
2.1987e-13
2.16448e-13
2.13066e-13
2.09724e-13
2.0642e-13
2.03156e-13
1.99931e-13
1.96744e-13
1.93597e-13
1.90488e-13
1.87417e-13
1.84385e-13
1.8139e-13
1.78434e-13
1.75515e-13
1.72634e-13
1.6979e-13
1.66983e-13
1.64213e-13
1.6148e-13
1.58783e-13
1.56123e-13
1.53499e-13
1.50911e-13
1.48358e-13
1.45841e-13
1.43359e-13
1.40913e-13
1.38501e-13
1.36123e-13
1.3378e-13
1.31471e-13
1.29196e-13
1.26954e-13
1.24746e-13
1.22571e-13
1.20429e-13
1.1832e-13
1.16243e-13
1.14198e-13
1.12186e-13
1.10205e-13
1.08255e-13
1.06337e-13
1.04449e-13
1.02593e-13
1.00767e-13
9.89706e-14
9.72047e-14
9.54685e-14
9.37618e-14
9.20844e-14
9.04361e-14
8.88165e-14
8.72254e-14
8.56627e-14
8.4128e-14
8.26211e-14
8.11418e-14
7.96899e-14
7.8265e-14
7.68671e-14
7.54958e-14
7.4151e-14
7.28323e-14
7.15397e-14
7.02727e-14
6.90313e-14
6.78152e-14
6.66242e-14
6.54581e-14
6.43167e-14
6.31997e-14
6.21069e-14
6.10382e-14
5.99934e-14
5.89722e-14
5.79744e-14
5.69999e-14
5.60485e-14
5.51199e-14
5.4214e-14
5.33306e-14
5.24696e-14
5.16307e-14
5.08138e-14
5.00187e-14
4.92452e-14
4.84932e-14
4.77626e-14
4.70531e-14
4.63647e-14
4.56971e-14
4.50502e-14
4.44239e-14
4.38181e-14
4.32326e-14
4.26673e-14
4.2122e-14
4.15967e-14
4.10912e-14
4.06053e-14
4.01391e-14
3.96924e-14
3.92651e-14
3.8857e-14
3.84682e-14
3.80984e-14
3.77477e-14
3.74159e-14
3.7103e-14
3.68088e-14
3.65334e-14
3.62766e-14
3.60384e-14
3.58188e-14
3.56176e-14
3.54349e-14
3.52706e-14
3.51246e-14
3.49969e-14
3.48876e-14
3.47965e-14
3.47236e-14
3.4669e-14
3.46326e-14
3.46144e-14
1.77307e-14
5.31529e-14
8.84591e-14
1.23575e-13
1.58429e-13
1.92957e-13
2.27098e-13
2.60794e-13
2.93996e-13
3.26658e-13
3.58739e-13
3.90203e-13
4.21018e-13
4.51158e-13
4.80599e-13
5.09323e-13
5.37315e-13
5.64564e-13
5.91061e-13
6.16801e-13
6.41782e-13
6.66005e-13
6.89472e-13
7.12187e-13
7.34158e-13
7.55392e-13
7.75899e-13
7.95691e-13
8.1478e-13
8.33177e-13
8.50899e-13
8.67958e-13
8.84369e-13
9.00149e-13
9.15313e-13
9.29876e-13
9.43855e-13
9.57265e-13
9.70122e-13
9.82443e-13
9.94242e-13
1.00553e-12
1.01634e-12
1.02666e-12
1.03653e-12
1.04594e-12
1.05493e-12
1.06349e-12
1.07165e-12
1.07941e-12
1.08679e-12
1.0938e-12
1.10045e-12
1.10676e-12
1.11273e-12
1.11837e-12
1.12369e-12
1.12871e-12
1.13343e-12
1.13787e-12
1.14202e-12
1.1459e-12
1.14951e-12
1.15287e-12
1.15598e-12
1.15885e-12
1.16148e-12
1.16389e-12
1.16607e-12
1.16803e-12
1.16978e-12
1.17133e-12
1.17267e-12
1.17382e-12
1.17478e-12
1.17555e-12
1.17614e-12
1.17656e-12
1.1768e-12
1.17687e-12
1.17677e-12
1.17652e-12
1.1761e-12
1.17553e-12
1.17481e-12
1.17394e-12
1.17292e-12
1.17176e-12
1.17047e-12
1.16903e-12
1.16747e-12
1.16577e-12
1.16394e-12
1.16199e-12
1.15991e-12
1.15771e-12
1.15539e-12
1.15296e-12
1.15041e-12
1.14775e-12
1.14498e-12
1.1421e-12
1.13911e-12
1.13602e-12
1.13283e-12
1.12954e-12
1.12615e-12
1.12266e-12
1.11908e-12
1.1154e-12
1.11164e-12
1.10778e-12
1.10384e-12
1.09981e-12
1.0957e-12
1.0915e-12
1.08723e-12
1.08287e-12
1.07844e-12
1.07393e-12
1.06935e-12
1.06469e-12
1.05996e-12
1.05516e-12
1.0503e-12
1.04537e-12
1.04037e-12
1.03531e-12
1.03019e-12
1.025e-12
1.01976e-12
1.01446e-12
1.00911e-12
1.0037e-12
9.98235e-13
9.9272e-13
9.87155e-13
9.81542e-13
9.75881e-13
9.70174e-13
9.64422e-13
9.58628e-13
9.52791e-13
9.46915e-13
9.40999e-13
9.35046e-13
9.29057e-13
9.23032e-13
9.16975e-13
9.10885e-13
9.04764e-13
8.98614e-13
8.92436e-13
8.8623e-13
8.79999e-13
8.73744e-13
8.67466e-13
8.61166e-13
8.54845e-13
8.48505e-13
8.42148e-13
8.35773e-13
8.29383e-13
8.22978e-13
8.1656e-13
8.1013e-13
8.0369e-13
7.9724e-13
7.90781e-13
7.84315e-13
7.77842e-13
7.71365e-13
7.64883e-13
7.58399e-13
7.51913e-13
7.45426e-13
7.38939e-13
7.32454e-13
7.25971e-13
7.19491e-13
7.13016e-13
7.06546e-13
7.00083e-13
6.93627e-13
6.87179e-13
6.80741e-13
6.74312e-13
6.67895e-13
6.6149e-13
6.55098e-13
6.48719e-13
6.42355e-13
6.36007e-13
6.29675e-13
6.2336e-13
6.17063e-13
6.10785e-13
6.04526e-13
5.98287e-13
5.9207e-13
5.85874e-13
5.797e-13
5.7355e-13
5.67424e-13
5.61322e-13
5.55246e-13
5.49195e-13
5.43171e-13
5.37173e-13
5.31204e-13
5.25263e-13
5.19351e-13
5.13468e-13
5.07615e-13
5.01793e-13
4.96002e-13
4.90242e-13
4.84514e-13
4.78819e-13
4.73157e-13
4.67529e-13
4.61934e-13
4.56374e-13
4.50848e-13
4.45358e-13
4.39903e-13
4.34483e-13
4.29101e-13
4.23754e-13
4.18445e-13
4.13173e-13
4.07938e-13
4.02742e-13
3.97583e-13
3.92463e-13
3.87381e-13
3.82339e-13
3.77335e-13
3.72371e-13
3.67446e-13
3.62561e-13
3.57716e-13
3.52912e-13
3.48147e-13
3.43423e-13
3.38739e-13
3.34096e-13
3.29494e-13
3.24933e-13
3.20413e-13
3.15934e-13
3.11496e-13
3.07099e-13
3.02744e-13
2.9843e-13
2.94157e-13
2.89926e-13
2.85736e-13
2.81588e-13
2.77481e-13
2.73416e-13
2.69392e-13
2.65409e-13
2.61468e-13
2.57568e-13
2.53709e-13
2.49891e-13
2.46115e-13
2.4238e-13
2.38685e-13
2.35032e-13
2.31419e-13
2.27847e-13
2.24316e-13
2.20825e-13
2.17374e-13
2.13964e-13
2.10594e-13
2.07264e-13
2.03973e-13
2.00722e-13
1.97511e-13
1.94339e-13
1.91206e-13
1.88113e-13
1.85058e-13
1.82042e-13
1.79064e-13
1.76124e-13
1.73223e-13
1.70359e-13
1.67533e-13
1.64745e-13
1.61994e-13
1.5928e-13
1.56603e-13
1.53962e-13
1.51358e-13
1.4879e-13
1.46258e-13
1.43762e-13
1.41301e-13
1.38875e-13
1.36485e-13
1.34129e-13
1.31808e-13
1.29521e-13
1.27269e-13
1.2505e-13
1.22864e-13
1.20712e-13
1.18593e-13
1.16507e-13
1.14454e-13
1.12433e-13
1.10444e-13
1.08487e-13
1.06561e-13
1.04667e-13
1.02804e-13
1.00972e-13
9.91701e-14
9.73988e-14
9.56576e-14
9.39463e-14
9.22646e-14
9.06123e-14
8.89891e-14
8.73947e-14
8.5829e-14
8.42916e-14
8.27824e-14
8.13011e-14
7.98475e-14
7.84213e-14
7.70223e-14
7.56503e-14
7.4305e-14
7.29861e-14
7.16936e-14
7.04271e-14
6.91864e-14
6.79713e-14
6.67816e-14
6.56171e-14
6.44775e-14
6.33627e-14
6.22724e-14
6.12064e-14
6.01646e-14
5.91466e-14
5.81524e-14
5.71817e-14
5.62344e-14
5.53102e-14
5.44089e-14
5.35305e-14
5.26746e-14
5.18412e-14
5.103e-14
5.02409e-14
4.94737e-14
4.87283e-14
4.80045e-14
4.73021e-14
4.6621e-14
4.59611e-14
4.53222e-14
4.47041e-14
4.41067e-14
4.353e-14
4.29737e-14
4.24377e-14
4.1922e-14
4.14264e-14
4.09507e-14
4.0495e-14
4.0059e-14
3.96427e-14
3.9246e-14
3.88687e-14
3.85109e-14
3.81724e-14
3.78532e-14
3.75531e-14
3.72721e-14
3.70101e-14
3.67671e-14
3.6543e-14
3.63378e-14
3.61514e-14
3.59837e-14
3.58348e-14
3.57045e-14
3.5593e-14
3.55e-14
3.54257e-14
3.537e-14
3.53329e-14
3.53143e-14
1.78547e-14
5.35271e-14
8.90892e-14
1.2447e-13
1.59601e-13
1.94417e-13
2.2886e-13
2.62873e-13
2.96405e-13
3.2941e-13
3.61846e-13
3.93677e-13
4.2487e-13
4.55397e-13
4.85234e-13
5.14361e-13
5.42761e-13
5.70422e-13
5.97335e-13
6.23493e-13
6.48892e-13
6.73533e-13
6.97416e-13
7.20546e-13
7.42927e-13
7.64567e-13
7.85476e-13
8.05663e-13
8.2514e-13
8.4392e-13
8.62015e-13
8.7944e-13
8.96209e-13
9.12338e-13
9.27841e-13
9.42734e-13
9.57034e-13
9.70755e-13
9.83913e-13
9.96525e-13
1.00861e-12
1.02017e-12
1.03124e-12
1.04181e-12
1.05192e-12
1.06157e-12
1.07078e-12
1.07956e-12
1.08792e-12
1.09588e-12
1.10345e-12
1.11064e-12
1.11747e-12
1.12394e-12
1.13006e-12
1.13585e-12
1.14132e-12
1.14647e-12
1.15132e-12
1.15587e-12
1.16014e-12
1.16413e-12
1.16784e-12
1.1713e-12
1.1745e-12
1.17745e-12
1.18016e-12
1.18263e-12
1.18488e-12
1.1869e-12
1.18871e-12
1.19031e-12
1.1917e-12
1.1929e-12
1.19389e-12
1.1947e-12
1.19532e-12
1.19576e-12
1.19602e-12
1.19611e-12
1.19603e-12
1.19579e-12
1.19538e-12
1.19481e-12
1.19409e-12
1.19322e-12
1.1922e-12
1.19104e-12
1.18973e-12
1.18828e-12
1.1867e-12
1.18498e-12
1.18313e-12
1.18115e-12
1.17905e-12
1.17682e-12
1.17447e-12
1.172e-12
1.16942e-12
1.16672e-12
1.16391e-12
1.16099e-12
1.15796e-12
1.15482e-12
1.15158e-12
1.14824e-12
1.14479e-12
1.14125e-12
1.13761e-12
1.13388e-12
1.13006e-12
1.12614e-12
1.12213e-12
1.11804e-12
1.11386e-12
1.1096e-12
1.10525e-12
1.10083e-12
1.09632e-12
1.09174e-12
1.08708e-12
1.08235e-12
1.07755e-12
1.07267e-12
1.06773e-12
1.06271e-12
1.05764e-12
1.05249e-12
1.04729e-12
1.04202e-12
1.03669e-12
1.0313e-12
1.02586e-12
1.02036e-12
1.01481e-12
1.0092e-12
1.00355e-12
9.97839e-13
9.92084e-13
9.86283e-13
9.80437e-13
9.74546e-13
9.68614e-13
9.6264e-13
9.56626e-13
9.50575e-13
9.44486e-13
9.38362e-13
9.32204e-13
9.26013e-13
9.19791e-13
9.13539e-13
9.07258e-13
9.0095e-13
8.94616e-13
8.88257e-13
8.81875e-13
8.7547e-13
8.69045e-13
8.626e-13
8.56136e-13
8.49656e-13
8.4316e-13
8.36649e-13
8.30125e-13
8.23588e-13
8.1704e-13
8.10483e-13
8.03917e-13
7.97344e-13
7.90764e-13
7.84179e-13
7.7759e-13
7.70998e-13
7.64404e-13
7.57809e-13
7.51215e-13
7.44622e-13
7.38031e-13
7.31444e-13
7.24861e-13
7.18284e-13
7.11713e-13
7.0515e-13
6.98595e-13
6.9205e-13
6.85515e-13
6.78991e-13
6.72479e-13
6.65981e-13
6.59497e-13
6.53027e-13
6.46573e-13
6.40136e-13
6.33716e-13
6.27314e-13
6.20932e-13
6.14569e-13
6.08227e-13
6.01906e-13
5.95607e-13
5.89331e-13
5.83079e-13
5.76851e-13
5.70648e-13
5.6447e-13
5.58319e-13
5.52195e-13
5.46098e-13
5.40029e-13
5.33989e-13
5.27979e-13
5.21998e-13
5.16048e-13
5.10129e-13
5.04242e-13
4.98387e-13
4.92564e-13
4.86774e-13
4.81018e-13
4.75296e-13
4.69608e-13
4.63956e-13
4.58338e-13
4.52757e-13
4.47211e-13
4.41702e-13
4.3623e-13
4.30794e-13
4.25397e-13
4.20037e-13
4.14716e-13
4.09433e-13
4.04188e-13
3.98983e-13
3.93817e-13
3.88691e-13
3.83604e-13
3.78557e-13
3.73551e-13
3.68585e-13
3.63659e-13
3.58775e-13
3.53931e-13
3.49128e-13
3.44367e-13
3.39647e-13
3.34968e-13
3.30331e-13
3.25736e-13
3.21183e-13
3.16671e-13
3.12201e-13
3.07774e-13
3.03388e-13
2.99044e-13
2.94743e-13
2.90483e-13
2.86266e-13
2.82091e-13
2.77958e-13
2.73867e-13
2.69818e-13
2.65811e-13
2.61847e-13
2.57924e-13
2.54043e-13
2.50204e-13
2.46406e-13
2.42651e-13
2.38936e-13
2.35264e-13
2.31632e-13
2.28042e-13
2.24494e-13
2.20986e-13
2.17519e-13
2.14093e-13
2.10707e-13
2.07362e-13
2.04057e-13
2.00792e-13
1.97568e-13
1.94383e-13
1.91238e-13
1.88132e-13
1.85066e-13
1.82039e-13
1.7905e-13
1.76101e-13
1.7319e-13
1.70317e-13
1.67482e-13
1.64685e-13
1.61926e-13
1.59204e-13
1.5652e-13
1.53873e-13
1.51262e-13
1.48688e-13
1.4615e-13
1.43648e-13
1.41183e-13
1.38752e-13
1.36358e-13
1.33998e-13
1.31673e-13
1.29383e-13
1.27127e-13
1.24906e-13
1.22718e-13
1.20564e-13
1.18443e-13
1.16355e-13
1.14301e-13
1.12279e-13
1.10289e-13
1.08332e-13
1.06406e-13
1.04512e-13
1.02649e-13
1.00818e-13
9.9017e-14
9.72469e-14
9.55071e-14
9.37975e-14
9.21177e-14
9.04675e-14
8.88466e-14
8.72549e-14
8.5692e-14
8.41578e-14
8.26518e-14
8.11741e-14
7.97242e-14
7.83019e-14
7.69071e-14
7.55394e-14
7.41987e-14
7.28847e-14
7.15971e-14
7.03359e-14
6.91006e-14
6.78911e-14
6.67073e-14
6.55487e-14
6.44154e-14
6.3307e-14
6.22233e-14
6.11641e-14
6.01293e-14
5.91185e-14
5.81317e-14
5.71686e-14
5.62291e-14
5.53129e-14
5.44198e-14
5.35497e-14
5.27025e-14
5.18778e-14
5.10756e-14
5.02957e-14
4.95379e-14
4.8802e-14
4.8088e-14
4.73956e-14
4.67247e-14
4.60751e-14
4.54468e-14
4.48395e-14
4.42532e-14
4.36876e-14
4.31428e-14
4.26185e-14
4.21146e-14
4.16311e-14
4.11677e-14
4.07245e-14
4.03013e-14
3.9898e-14
3.95145e-14
3.91507e-14
3.88066e-14
3.8482e-14
3.8177e-14
3.78913e-14
3.7625e-14
3.73779e-14
3.71501e-14
3.69415e-14
3.6752e-14
3.65815e-14
3.64301e-14
3.62977e-14
3.61843e-14
3.60898e-14
3.60142e-14
3.59576e-14
3.59199e-14
3.5901e-14
1.79565e-14
5.38339e-14
8.96052e-14
1.25201e-13
1.60556e-13
1.95606e-13
2.30293e-13
2.6456e-13
2.98357e-13
3.31637e-13
3.64358e-13
3.96484e-13
4.27979e-13
4.58816e-13
4.88969e-13
5.18418e-13
5.47145e-13
5.75136e-13
6.02381e-13
6.28874e-13
6.54608e-13
6.79584e-13
7.03801e-13
7.27262e-13
7.49972e-13
7.71939e-13
7.93169e-13
8.13673e-13
8.33462e-13
8.52548e-13
8.70943e-13
8.88662e-13
9.05718e-13
9.22127e-13
9.37902e-13
9.53061e-13
9.67618e-13
9.81589e-13
9.9499e-13
1.00784e-12
1.02014e-12
1.03193e-12
1.0432e-12
1.05398e-12
1.06429e-12
1.07413e-12
1.08352e-12
1.09247e-12
1.101e-12
1.10912e-12
1.11684e-12
1.12418e-12
1.13114e-12
1.13774e-12
1.14399e-12
1.1499e-12
1.15548e-12
1.16074e-12
1.16569e-12
1.17034e-12
1.1747e-12
1.17877e-12
1.18257e-12
1.1861e-12
1.18937e-12
1.19239e-12
1.19516e-12