/*--------------------------------*- C++ -*----------------------------------*\
  =========                 |
  \\      /  F ield         | OpenFOAM: The Open Source CFD Toolbox
   \\    /   O peration     | Website:  https://openfoam.org
    \\  /    A nd           | Version:  10
     \\/     M anipulation  |
\*---------------------------------------------------------------------------*/
FoamFile
{
    format      ascii;
    class       volScalarField;
    location    "0.9";
    object      Exp1;
}
// * * * * * * * * * * * * * * * * * * * * * * * * * * * * * * * * * * * * * //

dimensions      [0 0 0 0 0 0 0];

internalField   uniform 0;

boundaryField
{
    frontAndBack
    {
        type            empty;
    }
    inlet
    {
        type            calculated;
        value           uniform 0;
    }
    outlet
    {
        type            calculated;
        value           uniform 0;
    }
    substrate
    {
        type            calculated;
        value           nonuniform List<scalar> 
400
(
1.16023e-15
3.4746e-15
5.77488e-15
8.05485e-15
1.03092e-14
1.25332e-14
1.47228e-14
1.68744e-14
1.8985e-14
2.10518e-14
2.30726e-14
2.50454e-14
2.69688e-14
2.88416e-14
3.06628e-14
3.24318e-14
3.41483e-14
3.58121e-14
3.74233e-14
3.89822e-14
4.04892e-14
4.19448e-14
4.33499e-14
4.47052e-14
4.60115e-14
4.727e-14
4.84816e-14
4.96474e-14
5.07686e-14
5.18464e-14
5.28818e-14
5.38762e-14
5.48307e-14
5.57464e-14
5.66247e-14
5.74666e-14
5.82733e-14
5.9046e-14
5.97858e-14
6.04936e-14
6.11707e-14
6.18181e-14
6.24366e-14
6.30274e-14
6.35912e-14
6.41292e-14
6.4642e-14
6.51306e-14
6.55958e-14
6.60383e-14
6.64589e-14
6.68583e-14
6.72373e-14
6.75964e-14
6.79363e-14
6.82576e-14
6.85609e-14
6.88468e-14
6.91157e-14
6.93683e-14
6.9605e-14
6.98262e-14
7.00324e-14
7.0224e-14
7.04015e-14
7.05653e-14
7.07156e-14
7.08529e-14
7.09775e-14
7.10898e-14
7.119e-14
7.12785e-14
7.13556e-14
7.14214e-14
7.14764e-14
7.15207e-14
7.15546e-14
7.15783e-14
7.15921e-14
7.15961e-14
7.15907e-14
7.15759e-14
7.1552e-14
7.15191e-14
7.14775e-14
7.14273e-14
7.13687e-14
7.13019e-14
7.12269e-14
7.1144e-14
7.10534e-14
7.09551e-14
7.08493e-14
7.07361e-14
7.06157e-14
7.04882e-14
7.03537e-14
7.02124e-14
7.00643e-14
6.99097e-14
6.97485e-14
6.9581e-14
6.94072e-14
6.92273e-14
6.90413e-14
6.88494e-14
6.86516e-14
6.84482e-14
6.82391e-14
6.80244e-14
6.78044e-14
6.7579e-14
6.73484e-14
6.71126e-14
6.68719e-14
6.66262e-14
6.63756e-14
6.61203e-14
6.58603e-14
6.55957e-14
6.53267e-14
6.50533e-14
6.47756e-14
6.44937e-14
6.42076e-14
6.39176e-14
6.36235e-14
6.33257e-14
6.3024e-14
6.27187e-14
6.24098e-14
6.20973e-14
6.17815e-14
6.14623e-14
6.11398e-14
6.08142e-14
6.04855e-14
6.01537e-14
5.98191e-14
5.94816e-14
5.91413e-14
5.87984e-14
5.84529e-14
5.81048e-14
5.77543e-14
5.74015e-14
5.70464e-14
5.66891e-14
5.63297e-14
5.59682e-14
5.56048e-14
5.52395e-14
5.48724e-14
5.45036e-14
5.41331e-14
5.3761e-14
5.33874e-14
5.30124e-14
5.26361e-14
5.22584e-14
5.18796e-14
5.14996e-14
5.11186e-14
5.07366e-14
5.03536e-14
4.99698e-14
4.95852e-14
4.92e-14
4.8814e-14
4.84275e-14
4.80405e-14
4.76531e-14
4.72652e-14
4.68771e-14
4.64887e-14
4.61001e-14
4.57115e-14
4.53227e-14
4.4934e-14
4.45453e-14
4.41568e-14
4.37685e-14
4.33804e-14
4.29926e-14
4.26051e-14
4.22181e-14
4.18316e-14
4.14456e-14
4.10602e-14
4.06754e-14
4.02913e-14
3.9908e-14
3.95254e-14
3.91437e-14
3.87629e-14
3.83831e-14
3.80042e-14
3.76264e-14
3.72496e-14
3.6874e-14
3.64996e-14
3.61264e-14
3.57545e-14
3.53839e-14
3.50146e-14
3.46467e-14
3.42802e-14
3.39152e-14
3.35518e-14
3.31898e-14
3.28295e-14
3.24708e-14
3.21137e-14
3.17583e-14
3.14046e-14
3.10527e-14
3.07026e-14
3.03543e-14
3.00078e-14
2.96633e-14
2.93206e-14
2.89798e-14
2.86411e-14
2.83043e-14
2.79695e-14
2.76368e-14
2.73061e-14
2.69775e-14
2.6651e-14
2.63266e-14
2.60044e-14
2.56844e-14
2.53666e-14
2.50509e-14
2.47375e-14
2.44263e-14
2.41174e-14
2.38108e-14
2.35065e-14
2.32044e-14
2.29047e-14
2.26073e-14
2.23123e-14
2.20196e-14
2.17292e-14
2.14413e-14
2.11557e-14
2.08726e-14
2.05918e-14
2.03135e-14
2.00375e-14
1.9764e-14
1.9493e-14
1.92243e-14
1.89581e-14
1.86944e-14
1.84331e-14
1.81742e-14
1.79178e-14
1.76639e-14
1.74124e-14
1.71633e-14
1.69168e-14
1.66726e-14
1.6431e-14
1.61918e-14
1.5955e-14
1.57207e-14
1.54889e-14
1.52595e-14
1.50326e-14
1.4808e-14
1.4586e-14
1.43663e-14
1.41491e-14
1.39343e-14
1.37219e-14
1.35119e-14
1.33043e-14
1.30991e-14
1.28963e-14
1.26959e-14
1.24978e-14
1.23022e-14
1.21088e-14
1.19178e-14
1.17292e-14
1.15428e-14
1.13588e-14
1.11771e-14
1.09977e-14
1.08206e-14
1.06457e-14
1.04731e-14
1.03028e-14
1.01347e-14
9.96878e-15
9.80512e-15
9.64367e-15
9.48441e-15
9.32733e-15
9.17242e-15
9.01966e-15
8.86904e-15
8.72055e-15
8.57418e-15
8.42991e-15
8.28773e-15
8.14762e-15
8.00958e-15
7.87359e-15
7.73963e-15
7.60769e-15
7.47776e-15
7.34982e-15
7.22386e-15
7.09987e-15
6.97783e-15
6.85772e-15
6.73954e-15
6.62327e-15
6.50889e-15
6.3964e-15
6.28577e-15
6.177e-15
6.07006e-15
5.96495e-15
5.86165e-15
5.76015e-15
5.66043e-15
5.56248e-15
5.46629e-15
5.37184e-15
5.27911e-15
5.18811e-15
5.0988e-15
5.01118e-15
4.92524e-15
4.84096e-15
4.75833e-15
4.67733e-15
4.59796e-15
4.5202e-15
4.44403e-15
4.36945e-15
4.29644e-15
4.225e-15
4.1551e-15
4.08674e-15
4.0199e-15
3.95458e-15
3.89076e-15
3.82843e-15
3.76758e-15
3.7082e-15
3.65028e-15
3.5938e-15
3.53876e-15
3.48515e-15
3.43295e-15
3.38217e-15
3.33278e-15
3.28477e-15
3.23815e-15
3.1929e-15
3.149e-15
3.10646e-15
3.06527e-15
3.02541e-15
2.98687e-15
2.94966e-15
2.91376e-15
2.87917e-15
2.84587e-15
2.81387e-15
2.78315e-15
2.75371e-15
2.72554e-15
2.69864e-15
2.673e-15
2.64862e-15
2.62549e-15
2.6036e-15
2.58296e-15
2.56355e-15
2.54538e-15
2.52843e-15
2.51271e-15
2.49821e-15
2.48493e-15
2.47287e-15
2.46202e-15
2.45238e-15
2.44395e-15
2.43673e-15
2.43071e-15
2.4259e-15
2.4223e-15
2.41989e-15
2.41869e-15
)
;
    }
    Wall
    {
        type            calculated;
        value           nonuniform List<scalar> 
400
(
1.16023e-15
3.47461e-15
5.77489e-15
8.05486e-15
1.03092e-14
1.25332e-14
1.47228e-14
1.68744e-14
1.8985e-14
2.10518e-14
2.30726e-14
2.50454e-14
2.69688e-14
2.88416e-14
3.06628e-14
3.24318e-14
3.41483e-14
3.58121e-14
3.74233e-14
3.89822e-14
4.04892e-14
4.19448e-14
4.33499e-14
4.47051e-14
4.60115e-14
4.727e-14
4.84816e-14
4.96474e-14
5.07686e-14
5.18463e-14
5.28818e-14
5.38761e-14
5.48306e-14
5.57464e-14
5.66246e-14
5.74666e-14
5.82733e-14
5.9046e-14
5.97857e-14
6.04936e-14
6.11707e-14
6.1818e-14
6.24365e-14
6.30273e-14
6.35912e-14
6.41291e-14
6.46419e-14
6.51305e-14
6.55957e-14
6.60382e-14
6.64588e-14
6.68582e-14
6.72372e-14
6.75963e-14
6.79362e-14
6.82575e-14
6.85608e-14
6.88466e-14
6.91156e-14
6.93682e-14
6.96048e-14
6.9826e-14
7.00322e-14
7.02239e-14
7.04014e-14
7.05651e-14
7.07154e-14
7.08527e-14
7.09774e-14
7.10896e-14
7.11899e-14
7.12784e-14
7.13554e-14
7.14213e-14
7.14762e-14
7.15205e-14
7.15544e-14
7.15781e-14
7.15919e-14
7.15959e-14
7.15905e-14
7.15757e-14
7.15518e-14
7.15189e-14
7.14773e-14
7.14271e-14
7.13685e-14
7.13016e-14
7.12267e-14
7.11438e-14
7.10532e-14
7.09548e-14
7.0849e-14
7.07359e-14
7.06155e-14
7.0488e-14
7.03535e-14
7.02122e-14
7.00641e-14
6.99095e-14
6.97483e-14
6.95808e-14
6.9407e-14
6.92271e-14
6.90411e-14
6.88492e-14
6.86514e-14
6.84479e-14
6.82388e-14
6.80242e-14
6.78041e-14
6.75788e-14
6.73482e-14
6.71124e-14
6.68716e-14
6.66259e-14
6.63754e-14
6.61201e-14
6.58601e-14
6.55955e-14
6.53265e-14
6.50531e-14
6.47754e-14
6.44935e-14
6.42074e-14
6.39173e-14
6.36233e-14
6.33255e-14
6.30238e-14
6.27185e-14
6.24096e-14
6.20971e-14
6.17813e-14
6.14621e-14
6.11396e-14
6.0814e-14
6.04852e-14
6.01535e-14
5.98189e-14
5.94814e-14
5.91411e-14
5.87982e-14
5.84527e-14
5.81046e-14
5.77541e-14
5.74013e-14
5.70462e-14
5.66889e-14
5.63295e-14
5.5968e-14
5.56046e-14
5.52393e-14
5.48722e-14
5.45034e-14
5.41329e-14
5.37608e-14
5.33872e-14
5.30122e-14
5.26359e-14
5.22583e-14
5.18794e-14
5.14995e-14
5.11184e-14
5.07364e-14
5.03534e-14
4.99697e-14
4.95851e-14
4.91998e-14
4.88139e-14
4.84274e-14
4.80403e-14
4.76529e-14
4.72651e-14
4.68769e-14
4.64886e-14
4.61e-14
4.57113e-14
4.53226e-14
4.49338e-14
4.45452e-14
4.41567e-14
4.37683e-14
4.33802e-14
4.29924e-14
4.2605e-14
4.2218e-14
4.18315e-14
4.14455e-14
4.106e-14
4.06753e-14
4.02912e-14
3.99078e-14
3.95253e-14
3.91436e-14
3.87628e-14
3.83829e-14
3.80041e-14
3.76262e-14
3.72495e-14
3.68739e-14
3.64995e-14
3.61263e-14
3.57544e-14
3.53837e-14
3.50144e-14
3.46466e-14
3.42801e-14
3.39151e-14
3.35516e-14
3.31897e-14
3.28294e-14
3.24706e-14
3.21136e-14
3.17582e-14
3.14045e-14
3.10526e-14
3.07025e-14
3.03542e-14
3.00077e-14
2.96632e-14
2.93205e-14
2.89797e-14
2.8641e-14
2.83042e-14
2.79694e-14
2.76367e-14
2.7306e-14
2.69774e-14
2.66509e-14
2.63266e-14
2.60043e-14
2.56843e-14
2.53665e-14
2.50508e-14
2.47374e-14
2.44262e-14
2.41173e-14
2.38107e-14
2.35064e-14
2.32043e-14
2.29046e-14
2.26072e-14
2.23122e-14
2.20195e-14
2.17292e-14
2.14412e-14
2.11557e-14
2.08725e-14
2.05917e-14
2.03134e-14
2.00375e-14
1.9764e-14
1.94929e-14
1.92242e-14
1.8958e-14
1.86943e-14
1.8433e-14
1.81741e-14
1.79177e-14
1.76638e-14
1.74123e-14
1.71633e-14
1.69167e-14
1.66726e-14
1.64309e-14
1.61917e-14
1.5955e-14
1.57207e-14
1.54888e-14
1.52594e-14
1.50325e-14
1.4808e-14
1.45859e-14
1.43663e-14
1.4149e-14
1.39342e-14
1.37218e-14
1.35119e-14
1.33043e-14
1.30991e-14
1.28963e-14
1.26959e-14
1.24978e-14
1.23021e-14
1.21088e-14
1.19178e-14
1.17291e-14
1.15428e-14
1.13588e-14
1.11771e-14
1.09976e-14
1.08205e-14
1.06457e-14
1.04731e-14
1.03027e-14
1.01346e-14
9.96874e-15
9.80509e-15
9.64363e-15
9.48437e-15
9.32729e-15
9.17238e-15
9.01962e-15
8.86901e-15
8.72052e-15
8.57415e-15
8.42988e-15
8.2877e-15
8.14759e-15
8.00955e-15
7.87356e-15
7.7396e-15
7.60766e-15
7.47773e-15
7.34979e-15
7.22383e-15
7.09984e-15
6.9778e-15
6.8577e-15
6.73952e-15
6.62324e-15
6.50887e-15
6.39637e-15
6.28575e-15
6.17697e-15
6.07004e-15
5.96493e-15
5.86163e-15
5.76013e-15
5.66041e-15
5.56246e-15
5.46627e-15
5.37182e-15
5.27909e-15
5.18809e-15
5.09878e-15
5.01116e-15
4.92522e-15
4.84094e-15
4.75831e-15
4.67731e-15
4.59794e-15
4.52018e-15
4.44401e-15
4.36943e-15
4.29643e-15
4.22498e-15
4.15508e-15
4.08672e-15
4.01989e-15
3.95457e-15
3.89075e-15
3.82842e-15
3.76757e-15
3.70819e-15
3.65026e-15
3.59379e-15
3.53875e-15
3.48514e-15
3.43294e-15
3.38215e-15
3.33276e-15
3.28476e-15
3.23814e-15
3.19288e-15
3.14899e-15
3.10645e-15
3.06526e-15
3.0254e-15
2.98686e-15
2.94965e-15
2.91375e-15
2.87916e-15
2.84586e-15
2.81386e-15
2.78314e-15
2.7537e-15
2.72553e-15
2.69863e-15
2.673e-15
2.64861e-15
2.62548e-15
2.60359e-15
2.58295e-15
2.56354e-15
2.54537e-15
2.52842e-15
2.5127e-15
2.4982e-15
2.48492e-15
2.47286e-15
2.46201e-15
2.45237e-15
2.44394e-15
2.43672e-15
2.4307e-15
2.42589e-15
2.42229e-15
2.41989e-15
2.41868e-15
)
;
    }
}


// ************************************************************************* //
