/*--------------------------------*- C++ -*----------------------------------*\
  =========                 |
  \\      /  F ield         | OpenFOAM: The Open Source CFD Toolbox
   \\    /   O peration     | Website:  https://openfoam.org
    \\  /    A nd           | Version:  10
     \\/     M anipulation  |
\*---------------------------------------------------------------------------*/
FoamFile
{
    format      ascii;
    class       volScalarField;
    location    "0.9";
    object      N1;
}
// * * * * * * * * * * * * * * * * * * * * * * * * * * * * * * * * * * * * * //

dimensions      [0 0 0 0 0 0 0];

internalField   nonuniform List<scalar> 
8000
(
8.80722e-15
2.6386e-14
4.38708e-14
6.12137e-14
7.83738e-14
9.53153e-14
1.12007e-13
1.2842e-13
1.44532e-13
1.60322e-13
1.75771e-13
1.90864e-13
2.05589e-13
2.19937e-13
2.339e-13
2.47472e-13
2.6065e-13
2.73432e-13
2.85818e-13
2.97809e-13
3.09409e-13
3.2062e-13
3.31448e-13
3.41897e-13
3.51976e-13
3.61689e-13
3.71046e-13
3.80054e-13
3.8872e-13
3.97055e-13
4.05066e-13
4.12762e-13
4.20152e-13
4.27244e-13
4.34049e-13
4.40574e-13
4.46829e-13
4.52821e-13
4.58559e-13
4.64052e-13
4.69307e-13
4.74332e-13
4.79134e-13
4.83722e-13
4.88102e-13
4.92282e-13
4.96267e-13
5.00064e-13
5.0368e-13
5.0712e-13
5.1039e-13
5.13497e-13
5.16444e-13
5.19238e-13
5.21883e-13
5.24383e-13
5.26744e-13
5.2897e-13
5.31064e-13
5.33031e-13
5.34875e-13
5.36599e-13
5.38206e-13
5.39701e-13
5.41085e-13
5.42363e-13
5.43537e-13
5.4461e-13
5.45585e-13
5.46464e-13
5.47249e-13
5.47944e-13
5.4855e-13
5.49069e-13
5.49503e-13
5.49855e-13
5.50127e-13
5.5032e-13
5.50435e-13
5.50476e-13
5.50442e-13
5.50337e-13
5.50161e-13
5.49915e-13
5.49602e-13
5.49223e-13
5.48779e-13
5.4827e-13
5.477e-13
5.47068e-13
5.46375e-13
5.45624e-13
5.44815e-13
5.43949e-13
5.43027e-13
5.4205e-13
5.41019e-13
5.39936e-13
5.38801e-13
5.37614e-13
5.36378e-13
5.35092e-13
5.33758e-13
5.32377e-13
5.30949e-13
5.29475e-13
5.27956e-13
5.26393e-13
5.24787e-13
5.23138e-13
5.21447e-13
5.19715e-13
5.17943e-13
5.16131e-13
5.14281e-13
5.12392e-13
5.10466e-13
5.08504e-13
5.06505e-13
5.04472e-13
5.02403e-13
5.00302e-13
4.98166e-13
4.95999e-13
4.938e-13
4.9157e-13
4.89309e-13
4.87019e-13
4.84699e-13
4.82352e-13
4.79976e-13
4.77574e-13
4.75145e-13
4.72691e-13
4.70211e-13
4.67707e-13
4.65179e-13
4.62628e-13
4.60055e-13
4.57459e-13
4.54843e-13
4.52206e-13
4.49548e-13
4.46872e-13
4.44177e-13
4.41463e-13
4.38732e-13
4.35985e-13
4.3322e-13
4.30441e-13
4.27646e-13
4.24836e-13
4.22013e-13
4.19177e-13
4.16327e-13
4.13466e-13
4.10593e-13
4.07709e-13
4.04815e-13
4.0191e-13
3.98997e-13
3.96075e-13
3.93144e-13
3.90206e-13
3.87261e-13
3.84309e-13
3.81352e-13
3.78389e-13
3.75421e-13
3.72448e-13
3.69472e-13
3.66492e-13
3.63509e-13
3.60524e-13
3.57537e-13
3.54549e-13
3.5156e-13
3.4857e-13
3.4558e-13
3.42591e-13
3.39603e-13
3.36616e-13
3.33632e-13
3.30649e-13
3.27669e-13
3.24693e-13
3.2172e-13
3.18752e-13
3.15787e-13
3.12828e-13
3.09874e-13
3.06926e-13
3.03984e-13
3.01048e-13
2.9812e-13
2.95198e-13
2.92284e-13
2.89379e-13
2.86481e-13
2.83593e-13
2.80713e-13
2.77843e-13
2.74982e-13
2.72132e-13
2.69292e-13
2.66462e-13
2.63644e-13
2.60837e-13
2.58042e-13
2.55258e-13
2.52487e-13
2.49728e-13
2.46981e-13
2.44248e-13
2.41528e-13
2.38822e-13
2.36129e-13
2.3345e-13
2.30786e-13
2.28136e-13
2.255e-13
2.2288e-13
2.20274e-13
2.17684e-13
2.15109e-13
2.1255e-13
2.10007e-13
2.0748e-13
2.04969e-13
2.02474e-13
1.99996e-13
1.97535e-13
1.9509e-13
1.92663e-13
1.90252e-13
1.87859e-13
1.85483e-13
1.83125e-13
1.80785e-13
1.78462e-13
1.76157e-13
1.73869e-13
1.716e-13
1.69349e-13
1.67116e-13
1.64902e-13
1.62706e-13
1.60528e-13
1.58369e-13
1.56228e-13
1.54106e-13
1.52002e-13
1.49917e-13
1.47851e-13
1.45804e-13
1.43775e-13
1.41766e-13
1.39775e-13
1.37803e-13
1.3585e-13
1.33916e-13
1.32001e-13
1.30104e-13
1.28227e-13
1.26368e-13
1.24529e-13
1.22708e-13
1.20906e-13
1.19123e-13
1.17359e-13
1.15613e-13
1.13886e-13
1.12178e-13
1.10489e-13
1.08818e-13
1.07166e-13
1.05533e-13
1.03918e-13
1.02321e-13
1.00743e-13
9.91837e-14
9.76422e-14
9.6119e-14
9.4614e-14
9.31271e-14
9.16582e-14
9.02072e-14
8.87741e-14
8.73589e-14
8.59614e-14
8.45815e-14
8.32192e-14
8.18744e-14
8.0547e-14
7.92369e-14
7.79441e-14
7.66684e-14
7.54097e-14
7.4168e-14
7.29432e-14
7.17351e-14
7.05437e-14
6.93688e-14
6.82104e-14
6.70684e-14
6.59427e-14
6.48332e-14
6.37397e-14
6.26621e-14
6.16005e-14
6.05546e-14
5.95243e-14
5.85096e-14
5.75103e-14
5.65263e-14
5.55576e-14
5.4604e-14
5.36654e-14
5.27417e-14
5.18328e-14
5.09386e-14
5.00589e-14
4.91937e-14
4.83429e-14
4.75063e-14
4.66839e-14
4.58755e-14
4.50811e-14
4.43004e-14
4.35335e-14
4.27802e-14
4.20404e-14
4.1314e-14
4.06009e-14
3.99009e-14
3.92141e-14
3.85402e-14
3.78793e-14
3.72311e-14
3.65956e-14
3.59726e-14
3.53622e-14
3.47641e-14
3.41784e-14
3.36048e-14
3.30433e-14
3.24938e-14
3.19562e-14
3.14305e-14
3.09165e-14
3.04141e-14
2.99232e-14
2.94439e-14
2.89759e-14
2.85192e-14
2.80737e-14
2.76394e-14
2.72161e-14
2.68038e-14
2.64023e-14
2.60117e-14
2.56319e-14
2.52627e-14
2.49041e-14
2.45561e-14
2.42185e-14
2.38913e-14
2.35745e-14
2.32679e-14
2.29716e-14
2.26854e-14
2.24093e-14
2.21432e-14
2.18872e-14
2.1641e-14
2.14048e-14
2.11784e-14
2.09617e-14
2.07548e-14
2.05577e-14
2.03701e-14
2.01922e-14
2.00239e-14
1.98651e-14
1.97159e-14
1.95761e-14
1.94458e-14
1.93249e-14
1.92134e-14
1.91112e-14
1.90185e-14
1.8935e-14
1.88609e-14
1.87961e-14
1.87405e-14
1.86943e-14
1.86573e-14
1.86295e-14
1.8611e-14
1.86018e-14
8.89738e-15
2.66643e-14
4.43519e-14
6.19145e-14
7.93116e-14
9.65071e-14
1.13469e-13
1.30169e-13
1.46583e-13
1.62687e-13
1.78464e-13
1.93897e-13
2.08973e-13
2.2368e-13
2.38009e-13
2.51954e-13
2.65511e-13
2.78675e-13
2.91446e-13
3.03823e-13
3.15809e-13
3.27406e-13
3.38617e-13
3.49448e-13
3.59903e-13
3.6999e-13
3.79714e-13
3.89083e-13
3.98105e-13
4.06788e-13
4.1514e-13
4.23169e-13
4.30884e-13
4.38293e-13
4.45406e-13
4.5223e-13
4.58774e-13
4.65048e-13
4.71058e-13
4.76814e-13
4.82323e-13
4.87593e-13
4.92632e-13
4.97447e-13
5.02046e-13
5.06435e-13
5.10621e-13
5.14612e-13
5.18413e-13
5.22031e-13
5.25471e-13
5.28739e-13
5.31841e-13
5.34782e-13
5.37567e-13
5.40201e-13
5.42689e-13
5.45035e-13
5.47243e-13
5.49318e-13
5.51264e-13
5.53084e-13
5.54783e-13
5.56363e-13
5.57827e-13
5.5918e-13
5.60425e-13
5.61563e-13
5.62598e-13
5.63533e-13
5.64371e-13
5.65113e-13
5.65762e-13
5.66321e-13
5.66791e-13
5.67175e-13
5.67475e-13
5.67692e-13
5.67829e-13
5.67887e-13
5.67869e-13
5.67775e-13
5.67607e-13
5.67368e-13
5.67057e-13
5.66678e-13
5.66231e-13
5.65717e-13
5.65138e-13
5.64496e-13
5.6379e-13
5.63024e-13
5.62197e-13
5.6131e-13
5.60366e-13
5.59365e-13
5.58308e-13
5.57196e-13
5.5603e-13
5.54811e-13
5.5354e-13
5.52218e-13
5.50846e-13
5.49424e-13
5.47954e-13
5.46437e-13
5.44873e-13
5.43263e-13
5.41609e-13
5.3991e-13
5.38168e-13
5.36383e-13
5.34556e-13
5.32689e-13
5.30781e-13
5.28834e-13
5.26848e-13
5.24825e-13
5.22764e-13
5.20667e-13
5.18534e-13
5.16366e-13
5.14163e-13
5.11928e-13
5.09659e-13
5.07358e-13
5.05026e-13
5.02663e-13
5.0027e-13
4.97848e-13
4.95397e-13
4.92918e-13
4.90412e-13
4.8788e-13
4.85321e-13
4.82737e-13
4.80129e-13
4.77496e-13
4.7484e-13
4.72162e-13
4.69462e-13
4.6674e-13
4.63998e-13
4.61236e-13
4.58455e-13
4.55654e-13
4.52836e-13
4.5e-13
4.47147e-13
4.44279e-13
4.41394e-13
4.38495e-13
4.35581e-13
4.32653e-13
4.29713e-13
4.26759e-13
4.23794e-13
4.20818e-13
4.1783e-13
4.14833e-13
4.11826e-13
4.0881e-13
4.05785e-13
4.02753e-13
3.99713e-13
3.96667e-13
3.93614e-13
3.90556e-13
3.87492e-13
3.84424e-13
3.81352e-13
3.78277e-13
3.75198e-13
3.72117e-13
3.69034e-13
3.6595e-13
3.62864e-13
3.59779e-13
3.56693e-13
3.53608e-13
3.50523e-13
3.47441e-13
3.4436e-13
3.41282e-13
3.38206e-13
3.35134e-13
3.32066e-13
3.29002e-13
3.25942e-13
3.22888e-13
3.19839e-13
3.16796e-13
3.13759e-13
3.10729e-13
3.07706e-13
3.04691e-13
3.01684e-13
2.98684e-13
2.95694e-13
2.92712e-13
2.8974e-13
2.86778e-13
2.83825e-13
2.80883e-13
2.77952e-13
2.75031e-13
2.72122e-13
2.69225e-13
2.6634e-13
2.63467e-13
2.60606e-13
2.57758e-13
2.54924e-13
2.52103e-13
2.49295e-13
2.46502e-13
2.43722e-13
2.40958e-13
2.38207e-13
2.35472e-13
2.32752e-13
2.30047e-13
2.27358e-13
2.24684e-13
2.22027e-13
2.19385e-13
2.1676e-13
2.14152e-13
2.1156e-13
2.08985e-13
2.06428e-13
2.03887e-13
2.01364e-13
1.98859e-13
1.96371e-13
1.939e-13
1.91448e-13
1.89014e-13
1.86598e-13
1.84201e-13
1.81821e-13
1.79461e-13
1.77119e-13
1.74795e-13
1.72491e-13
1.70205e-13
1.67938e-13
1.6569e-13
1.63461e-13
1.61252e-13
1.59061e-13
1.5689e-13
1.54738e-13
1.52606e-13
1.50493e-13
1.48399e-13
1.46325e-13
1.4427e-13
1.42235e-13
1.40219e-13
1.38222e-13
1.36245e-13
1.34288e-13
1.3235e-13
1.30432e-13
1.28533e-13
1.26654e-13
1.24794e-13
1.22954e-13
1.21133e-13
1.19331e-13
1.17549e-13
1.15786e-13
1.14042e-13
1.12318e-13
1.10613e-13
1.08927e-13
1.0726e-13
1.05612e-13
1.03983e-13
1.02373e-13
1.00782e-13
9.92101e-14
9.76566e-14
9.61219e-14
9.46057e-14
9.31081e-14
9.1629e-14
9.01682e-14
8.87257e-14
8.73015e-14
8.58954e-14
8.45074e-14
8.31373e-14
8.17851e-14
8.04506e-14
7.91339e-14
7.78348e-14
7.65531e-14
7.52889e-14
7.40419e-14
7.28122e-14
7.15996e-14
7.0404e-14
6.92253e-14
6.80633e-14
6.69181e-14
6.57894e-14
6.46772e-14
6.35814e-14
6.25019e-14
6.14385e-14
6.03911e-14
5.93597e-14
5.83441e-14
5.73443e-14
5.636e-14
5.53912e-14
5.44378e-14
5.34996e-14
5.25767e-14
5.16687e-14
5.07757e-14
4.98975e-14
4.90341e-14
4.81852e-14
4.73508e-14
4.65308e-14
4.5725e-14
4.49335e-14
4.41559e-14
4.33923e-14
4.26426e-14
4.19065e-14
4.11841e-14
4.04752e-14
3.97796e-14
3.90974e-14
3.84284e-14
3.77724e-14
3.71295e-14
3.64994e-14
3.58821e-14
3.52775e-14
3.46855e-14
3.41059e-14
3.35388e-14
3.29839e-14
3.24412e-14
3.19107e-14
3.13921e-14
3.08855e-14
3.03907e-14
2.99077e-14
2.94363e-14
2.89765e-14
2.85282e-14
2.80913e-14
2.76657e-14
2.72514e-14
2.68482e-14
2.64562e-14
2.60751e-14
2.5705e-14
2.53458e-14
2.49973e-14
2.46596e-14
2.43326e-14
2.40162e-14
2.37103e-14
2.34149e-14
2.31299e-14
2.28553e-14
2.2591e-14
2.2337e-14
2.20931e-14
2.18594e-14
2.16358e-14
2.14223e-14
2.12188e-14
2.10252e-14
2.08416e-14
2.06679e-14
2.0504e-14
2.03499e-14
2.02056e-14
2.00711e-14
1.99463e-14
1.98312e-14
1.97258e-14
1.96301e-14
1.95439e-14
1.94674e-14
1.94005e-14
1.93432e-14
1.92954e-14
1.92572e-14
1.92286e-14
1.92095e-14
1.92e-14
8.98583e-15
2.69335e-14
4.48111e-14
6.25756e-14
8.01879e-14
9.76124e-14
1.14817e-13
1.31774e-13
1.48456e-13
1.64841e-13
1.8091e-13
1.96645e-13
2.12032e-13
2.27058e-13
2.41714e-13
2.55991e-13
2.69883e-13
2.83387e-13
2.965e-13
3.09222e-13
3.21552e-13
3.33492e-13
3.45045e-13
3.56215e-13
3.67007e-13
3.77426e-13
3.87479e-13
3.97171e-13
4.06511e-13
4.15505e-13
4.24161e-13
4.32488e-13
4.40494e-13
4.48186e-13
4.55575e-13
4.62667e-13
4.69472e-13
4.75997e-13
4.82252e-13
4.88243e-13
4.9398e-13
4.9947e-13
5.04721e-13
5.09741e-13
5.14536e-13
5.19114e-13
5.23482e-13
5.27647e-13
5.31615e-13
5.35392e-13
5.38984e-13
5.42398e-13
5.4564e-13
5.48713e-13
5.51625e-13
5.54379e-13
5.56981e-13
5.59435e-13
5.61747e-13
5.63919e-13
5.65957e-13
5.67864e-13
5.69644e-13
5.71301e-13
5.72838e-13
5.74259e-13
5.75566e-13
5.76764e-13
5.77854e-13
5.7884e-13
5.79724e-13
5.80509e-13
5.81198e-13
5.81792e-13
5.82295e-13
5.82707e-13
5.83033e-13
5.83273e-13
5.83429e-13
5.83504e-13
5.83499e-13
5.83415e-13
5.83256e-13
5.83021e-13
5.82714e-13
5.82334e-13
5.81885e-13
5.81366e-13
5.8078e-13
5.80128e-13
5.79412e-13
5.78631e-13
5.77788e-13
5.76884e-13
5.7592e-13
5.74897e-13
5.73816e-13
5.72679e-13
5.71485e-13
5.70237e-13
5.68935e-13
5.67581e-13
5.66174e-13
5.64717e-13
5.6321e-13
5.61654e-13
5.60049e-13
5.58398e-13
5.56699e-13
5.54956e-13
5.53168e-13
5.51335e-13
5.4946e-13
5.47543e-13
5.45584e-13
5.43584e-13
5.41545e-13
5.39466e-13
5.3735e-13
5.35195e-13
5.33004e-13
5.30777e-13
5.28514e-13
5.26217e-13
5.23886e-13
5.21522e-13
5.19126e-13
5.16698e-13
5.14239e-13
5.1175e-13
5.09232e-13
5.06684e-13
5.04109e-13
5.01506e-13
4.98876e-13
4.96221e-13
4.9354e-13
4.90835e-13
4.88105e-13
4.85353e-13
4.82577e-13
4.7978e-13
4.76962e-13
4.74123e-13
4.71264e-13
4.68385e-13
4.65489e-13
4.62574e-13
4.59642e-13
4.56693e-13
4.53728e-13
4.50748e-13
4.47753e-13
4.44744e-13
4.41721e-13
4.38685e-13
4.35637e-13
4.32578e-13
4.29507e-13
4.26426e-13
4.23335e-13
4.20235e-13
4.17126e-13
4.14009e-13
4.10884e-13
4.07753e-13
4.04615e-13
4.01471e-13
3.98322e-13
3.95168e-13
3.9201e-13
3.88849e-13
3.85684e-13
3.82517e-13
3.79348e-13
3.76178e-13
3.73006e-13
3.69834e-13
3.66662e-13
3.63491e-13
3.60321e-13
3.57152e-13
3.53985e-13
3.50821e-13
3.47659e-13
3.44501e-13
3.41347e-13
3.38197e-13
3.35052e-13
3.31913e-13
3.28779e-13
3.25651e-13
3.22529e-13
3.19414e-13
3.16307e-13
3.13207e-13
3.10116e-13
3.07033e-13
3.03959e-13
3.00894e-13
2.97839e-13
2.94793e-13
2.91758e-13
2.88734e-13
2.85721e-13
2.82719e-13
2.79728e-13
2.7675e-13
2.73784e-13
2.70831e-13
2.6789e-13
2.64963e-13
2.62049e-13
2.59149e-13
2.56263e-13
2.53392e-13
2.50535e-13
2.47693e-13
2.44866e-13
2.42054e-13
2.39258e-13
2.36477e-13
2.33713e-13
2.30964e-13
2.28233e-13
2.25517e-13
2.22819e-13
2.20138e-13
2.17474e-13
2.14827e-13
2.12198e-13
2.09586e-13
2.06993e-13
2.04417e-13
2.01859e-13
1.9932e-13
1.968e-13
1.94297e-13
1.91814e-13
1.89349e-13
1.86904e-13
1.84477e-13
1.82069e-13
1.79681e-13
1.77312e-13
1.74962e-13
1.72632e-13
1.70321e-13
1.6803e-13
1.65759e-13
1.63507e-13
1.61276e-13
1.59064e-13
1.56871e-13
1.54699e-13
1.52547e-13
1.50415e-13
1.48302e-13
1.4621e-13
1.44138e-13
1.42086e-13
1.40054e-13
1.38042e-13
1.3605e-13
1.34078e-13
1.32126e-13
1.30194e-13
1.28282e-13
1.2639e-13
1.24518e-13
1.22666e-13
1.20834e-13
1.19022e-13
1.1723e-13
1.15457e-13
1.13704e-13
1.11971e-13
1.10258e-13
1.08564e-13
1.0689e-13
1.05235e-13
1.03599e-13
1.01983e-13
1.00386e-13
9.88086e-14
9.72501e-14
9.57106e-14
9.41901e-14
9.26885e-14
9.12058e-14
8.97417e-14
8.82963e-14
8.68695e-14
8.54611e-14
8.40711e-14
8.26994e-14
8.13458e-14
8.00104e-14
7.86929e-14
7.73933e-14
7.61115e-14
7.48474e-14
7.36009e-14
7.23719e-14
7.11602e-14
6.99658e-14
6.87885e-14
6.76283e-14
6.64851e-14
6.53586e-14
6.42489e-14
6.31558e-14
6.20792e-14
6.10189e-14
5.99749e-14
5.89471e-14
5.79353e-14
5.69395e-14
5.59594e-14
5.4995e-14
5.40462e-14
5.31129e-14
5.2195e-14
5.12922e-14
5.04046e-14
4.9532e-14
4.86743e-14
4.78314e-14
4.70031e-14
4.61894e-14
4.53901e-14
4.46052e-14
4.38345e-14
4.30779e-14
4.23352e-14
4.16065e-14
4.08915e-14
4.01902e-14
3.95025e-14
3.88282e-14
3.81673e-14
3.75196e-14
3.6885e-14
3.62635e-14
3.5655e-14
3.50592e-14
3.44762e-14
3.39058e-14
3.3348e-14
3.28026e-14
3.22696e-14
3.17488e-14
3.12402e-14
3.07437e-14
3.02591e-14
2.97865e-14
2.93256e-14
2.88765e-14
2.8439e-14
2.80131e-14
2.75987e-14
2.71956e-14
2.68039e-14
2.64235e-14
2.60542e-14
2.5696e-14
2.53489e-14
2.50127e-14
2.46875e-14
2.4373e-14
2.40694e-14
2.37765e-14
2.34942e-14
2.32225e-14
2.29613e-14
2.27107e-14
2.24704e-14
2.22406e-14
2.20211e-14
2.18119e-14
2.16129e-14
2.14241e-14
2.12455e-14
2.10771e-14
2.09187e-14
2.07704e-14
2.06321e-14
2.05039e-14
2.03855e-14
2.02772e-14
2.01788e-14
2.00902e-14
2.00116e-14
1.99428e-14
1.98838e-14
1.98348e-14
1.97955e-14
1.97661e-14
1.97465e-14
1.97366e-14
9.06839e-15
2.71835e-14
4.52346e-14
6.31813e-14
8.0986e-14
9.86138e-14
1.16033e-13
1.33215e-13
1.50133e-13
1.66765e-13
1.8309e-13
1.9909e-13
2.14749e-13
2.30054e-13
2.44995e-13
2.59562e-13
2.73749e-13
2.87551e-13
3.00964e-13
3.13986e-13
3.26618e-13
3.38859e-13
3.50712e-13
3.6218e-13
3.73267e-13
3.83979e-13
3.94319e-13
4.04295e-13
4.13914e-13
4.23181e-13
4.32106e-13
4.40695e-13
4.48957e-13
4.56899e-13
4.6453e-13
4.71859e-13
4.78893e-13
4.85641e-13
4.9211e-13
4.9831e-13
5.04249e-13
5.09933e-13
5.15371e-13
5.20571e-13
5.2554e-13
5.30285e-13
5.34813e-13
5.39132e-13
5.43247e-13
5.47165e-13
5.50893e-13
5.54436e-13
5.578e-13
5.60991e-13
5.64014e-13
5.66875e-13
5.69578e-13
5.72129e-13
5.74531e-13
5.7679e-13
5.78909e-13
5.80893e-13
5.82746e-13
5.84471e-13
5.86072e-13
5.87553e-13
5.88917e-13
5.90166e-13
5.91305e-13
5.92336e-13
5.93262e-13
5.94085e-13
5.94809e-13
5.95435e-13
5.95966e-13
5.96405e-13
5.96753e-13
5.97013e-13
5.97187e-13
5.97276e-13
5.97283e-13
5.97209e-13
5.97057e-13
5.96827e-13
5.96522e-13
5.96143e-13
5.95691e-13
5.95169e-13
5.94577e-13
5.93916e-13
5.93189e-13
5.92397e-13
5.9154e-13
5.9062e-13
5.89639e-13
5.88597e-13
5.87495e-13
5.86335e-13
5.85117e-13
5.83844e-13
5.82515e-13
5.81131e-13
5.79695e-13
5.78206e-13
5.76666e-13
5.75075e-13
5.73435e-13
5.71747e-13
5.70011e-13
5.68228e-13
5.66399e-13
5.64525e-13
5.62607e-13
5.60645e-13
5.58641e-13
5.56595e-13
5.54508e-13
5.52382e-13
5.50215e-13
5.48011e-13
5.45768e-13
5.43489e-13
5.41173e-13
5.38822e-13
5.36436e-13
5.34017e-13
5.31564e-13
5.29078e-13
5.26561e-13
5.24013e-13
5.21435e-13
5.18827e-13
5.16191e-13
5.13526e-13
5.10834e-13
5.08115e-13
5.0537e-13
5.02601e-13
4.99806e-13
4.96988e-13
4.94146e-13
4.91282e-13
4.88397e-13
4.8549e-13
4.82563e-13
4.79616e-13
4.7665e-13
4.73665e-13
4.70663e-13
4.67644e-13
4.64608e-13
4.61556e-13
4.5849e-13
4.55409e-13
4.52313e-13
4.49205e-13
4.46084e-13
4.42952e-13
4.39807e-13
4.36652e-13
4.33487e-13
4.30313e-13
4.27129e-13
4.23938e-13
4.20738e-13
4.17532e-13
4.14319e-13
4.111e-13
4.07875e-13
4.04646e-13
4.01412e-13
3.98175e-13
3.94935e-13
3.91692e-13
3.88447e-13
3.852e-13
3.81953e-13
3.78704e-13
3.75456e-13
3.72209e-13
3.68963e-13
3.65718e-13
3.62475e-13
3.59235e-13
3.55998e-13
3.52764e-13
3.49534e-13
3.46309e-13
3.43089e-13
3.39874e-13
3.36664e-13
3.33461e-13
3.30265e-13
3.27076e-13
3.23894e-13
3.2072e-13
3.17554e-13
3.14397e-13
3.11249e-13
3.08111e-13
3.04982e-13
3.01864e-13
2.98756e-13
2.95659e-13
2.92574e-13
2.895e-13
2.86438e-13
2.83388e-13
2.80351e-13
2.77327e-13
2.74316e-13
2.71318e-13
2.68335e-13
2.65365e-13
2.6241e-13
2.5947e-13
2.56544e-13
2.53634e-13
2.50739e-13
2.4786e-13
2.44996e-13
2.42149e-13
2.39318e-13
2.36504e-13
2.33707e-13
2.30927e-13
2.28164e-13
2.25418e-13
2.2269e-13
2.1998e-13
2.17287e-13
2.14613e-13
2.11957e-13
2.0932e-13
2.06701e-13
2.04101e-13
2.0152e-13
1.98958e-13
1.96415e-13
1.93891e-13
1.91387e-13
1.88902e-13
1.86436e-13
1.83991e-13
1.81565e-13
1.79159e-13
1.76773e-13
1.74407e-13
1.72061e-13
1.69735e-13
1.67429e-13
1.65144e-13
1.62879e-13
1.60634e-13
1.5841e-13
1.56206e-13
1.54023e-13
1.5186e-13
1.49717e-13
1.47595e-13
1.45494e-13
1.43413e-13
1.41353e-13
1.39313e-13
1.37294e-13
1.35295e-13
1.33317e-13
1.31359e-13
1.29422e-13
1.27505e-13
1.25609e-13
1.23733e-13
1.21877e-13
1.20042e-13
1.18227e-13
1.16432e-13
1.14657e-13
1.12903e-13
1.11168e-13
1.09453e-13
1.07759e-13
1.06084e-13
1.04429e-13
1.02794e-13
1.01179e-13
9.95827e-14
9.80063e-14
9.64494e-14
9.49118e-14
9.33934e-14
9.18943e-14
9.04142e-14
8.89531e-14
8.75109e-14
8.60876e-14
8.4683e-14
8.3297e-14
8.19295e-14
8.05804e-14
7.92497e-14
7.79371e-14
7.66427e-14
7.53663e-14
7.41078e-14
7.2867e-14
7.1644e-14
7.04385e-14
6.92505e-14
6.80798e-14
6.69263e-14
6.579e-14
6.46706e-14
6.35682e-14
6.24825e-14
6.14135e-14
6.0361e-14
5.93249e-14
5.83052e-14
5.73016e-14
5.63141e-14
5.53426e-14
5.43869e-14
5.34469e-14
5.25225e-14
5.16136e-14
5.07201e-14
4.98418e-14
4.89787e-14
4.81305e-14
4.72973e-14
4.64789e-14
4.56751e-14
4.48859e-14
4.41111e-14
4.33507e-14
4.26045e-14
4.18723e-14
4.11542e-14
4.045e-14
3.97595e-14
3.90828e-14
3.84195e-14
3.77698e-14
3.71334e-14
3.65102e-14
3.59001e-14
3.53032e-14
3.47191e-14
3.41479e-14
3.35894e-14
3.30436e-14
3.25103e-14
3.19895e-14
3.14811e-14
3.09849e-14
3.05009e-14
3.0029e-14
2.95691e-14
2.91212e-14
2.8685e-14
2.82606e-14
2.7848e-14
2.74469e-14
2.70573e-14
2.66791e-14
2.63124e-14
2.59569e-14
2.56127e-14
2.52796e-14
2.49577e-14
2.46467e-14
2.43468e-14
2.40577e-14
2.37795e-14
2.35121e-14
2.32554e-14
2.30094e-14
2.2774e-14
2.25493e-14
2.2335e-14
2.21313e-14
2.1938e-14
2.17551e-14
2.15826e-14
2.14205e-14
2.12686e-14
2.1127e-14
2.09957e-14
2.08745e-14
2.07636e-14
2.06628e-14
2.05721e-14
2.04916e-14
2.04211e-14
2.03608e-14
2.03105e-14
2.02703e-14
2.02402e-14
2.02201e-14
2.02101e-14
9.14254e-15
2.74075e-14
4.56127e-14
6.37197e-14
8.16924e-14
9.94968e-14
1.17102e-13
1.34478e-13
1.516e-13
1.68443e-13
1.84988e-13
2.01214e-13
2.17107e-13
2.32652e-13
2.47838e-13
2.62654e-13
2.77094e-13
2.91151e-13
3.04821e-13
3.18101e-13
3.30991e-13
3.43491e-13
3.55602e-13
3.67326e-13
3.78667e-13
3.89629e-13
4.00217e-13
4.10437e-13
4.20296e-13
4.29799e-13
4.38955e-13
4.4777e-13
4.56252e-13
4.64409e-13
4.7225e-13
4.79782e-13
4.87014e-13
4.93954e-13
5.00609e-13
5.06989e-13
5.13101e-13
5.18953e-13
5.24553e-13
5.29909e-13
5.35028e-13
5.39917e-13
5.44584e-13
5.49035e-13
5.53278e-13
5.57318e-13
5.61163e-13
5.64817e-13
5.68288e-13
5.71581e-13
5.74701e-13
5.77654e-13
5.80445e-13
5.83079e-13
5.8556e-13
5.87893e-13
5.90083e-13
5.92134e-13
5.9405e-13
5.95834e-13
5.97491e-13
5.99024e-13
6.00436e-13
6.01731e-13
6.02912e-13
6.03982e-13
6.04944e-13
6.058e-13
6.06554e-13
6.07208e-13
6.07764e-13
6.08225e-13
6.08593e-13
6.0887e-13
6.09059e-13
6.09161e-13
6.09179e-13
6.09113e-13
6.08967e-13
6.08742e-13
6.08439e-13
6.0806e-13
6.07607e-13
6.07081e-13
6.06484e-13
6.05816e-13
6.05081e-13
6.04278e-13
6.03409e-13
6.02476e-13
6.0148e-13
6.00421e-13
5.99301e-13
5.98122e-13
5.96884e-13
5.95588e-13
5.94235e-13
5.92827e-13
5.91365e-13
5.89849e-13
5.8828e-13
5.8666e-13
5.8499e-13
5.83269e-13
5.815e-13
5.79683e-13
5.77819e-13
5.75909e-13
5.73954e-13
5.71954e-13
5.69911e-13
5.67826e-13
5.65698e-13
5.6353e-13
5.61321e-13
5.59073e-13
5.56786e-13
5.54462e-13
5.521e-13
5.49702e-13
5.47269e-13
5.44801e-13
5.423e-13
5.39765e-13
5.37197e-13
5.34598e-13
5.31969e-13
5.29309e-13
5.26619e-13
5.23901e-13
5.21155e-13
5.18382e-13
5.15582e-13
5.12757e-13
5.09906e-13
5.07031e-13
5.04133e-13
5.01211e-13
4.98267e-13
4.95302e-13
4.92316e-13
4.8931e-13
4.86284e-13
4.83239e-13
4.80176e-13
4.77096e-13
4.73999e-13
4.70886e-13
4.67758e-13
4.64614e-13
4.61457e-13
4.58286e-13
4.55102e-13
4.51906e-13
4.48698e-13
4.4548e-13
4.42251e-13
4.39012e-13
4.35764e-13
4.32508e-13
4.29244e-13
4.25973e-13
4.22695e-13
4.19411e-13
4.16121e-13
4.12827e-13
4.09528e-13
4.06225e-13
4.02919e-13
3.99611e-13
3.963e-13
3.92988e-13
3.89675e-13
3.86361e-13
3.83048e-13
3.79734e-13
3.76422e-13
3.73112e-13
3.69804e-13
3.66498e-13
3.63196e-13
3.59896e-13
3.56602e-13
3.53311e-13
3.50026e-13
3.46746e-13
3.43471e-13
3.40204e-13
3.36943e-13
3.33689e-13
3.30443e-13
3.27204e-13
3.23975e-13
3.20754e-13
3.17542e-13
3.14341e-13
3.11149e-13
3.07967e-13
3.04797e-13
3.01637e-13
2.98489e-13
2.95353e-13
2.92229e-13
2.89118e-13
2.86019e-13
2.82934e-13
2.79862e-13
2.76804e-13
2.7376e-13
2.70731e-13
2.67716e-13
2.64716e-13
2.61731e-13
2.58762e-13
2.55809e-13
2.52871e-13
2.4995e-13
2.47045e-13
2.44157e-13
2.41286e-13
2.38432e-13
2.35596e-13
2.32777e-13
2.29976e-13
2.27193e-13
2.24428e-13
2.21681e-13
2.18953e-13
2.16243e-13
2.13552e-13
2.10881e-13
2.08228e-13
2.05595e-13
2.02981e-13
2.00386e-13
1.97811e-13
1.95256e-13
1.92721e-13
1.90206e-13
1.87711e-13
1.85236e-13
1.82781e-13
1.80347e-13
1.77933e-13
1.7554e-13
1.73167e-13
1.70815e-13
1.68483e-13
1.66172e-13
1.63882e-13
1.61613e-13
1.59364e-13
1.57137e-13
1.5493e-13
1.52744e-13
1.5058e-13
1.48436e-13
1.46313e-13
1.44211e-13
1.4213e-13
1.4007e-13
1.38031e-13
1.36012e-13
1.34015e-13
1.32039e-13
1.30083e-13
1.28148e-13
1.26235e-13
1.24341e-13
1.22469e-13
1.20617e-13
1.18786e-13
1.16975e-13
1.15185e-13
1.13416e-13
1.11667e-13
1.09938e-13
1.08229e-13
1.06541e-13
1.04873e-13
1.03224e-13
1.01596e-13
9.9988e-14
9.83995e-14
9.68308e-14
9.52818e-14
9.37523e-14
9.22423e-14
9.07517e-14
8.92804e-14
8.78282e-14
8.63952e-14
8.49812e-14
8.3586e-14
8.22097e-14
8.0852e-14
7.9513e-14
7.81924e-14
7.68901e-14
7.56062e-14
7.43404e-14
7.30926e-14
7.18627e-14
7.06507e-14
6.94563e-14
6.82795e-14
6.71202e-14
6.59782e-14
6.48535e-14
6.37459e-14
6.26552e-14
6.15815e-14
6.05245e-14
5.94841e-14
5.84602e-14
5.74528e-14
5.64616e-14
5.54866e-14
5.45276e-14
5.35845e-14
5.26572e-14
5.17456e-14
5.08496e-14
4.9969e-14
4.91037e-14
4.82536e-14
4.74186e-14
4.65986e-14
4.57935e-14
4.5003e-14
4.42272e-14
4.34659e-14
4.2719e-14
4.19863e-14
4.12679e-14
4.05635e-14
3.9873e-14
3.91964e-14
3.85334e-14
3.78842e-14
3.72484e-14
3.6626e-14
3.6017e-14
3.54211e-14
3.48383e-14
3.42686e-14
3.37117e-14
3.31677e-14
3.26363e-14
3.21176e-14
3.16114e-14
3.11176e-14
3.06362e-14
3.0167e-14
2.971e-14
2.9265e-14
2.88321e-14
2.8411e-14
2.80018e-14
2.76044e-14
2.72186e-14
2.68444e-14
2.64818e-14
2.61306e-14
2.57908e-14
2.54623e-14
2.51451e-14
2.4839e-14
2.45441e-14
2.42603e-14
2.39875e-14
2.37256e-14
2.34746e-14
2.32345e-14
2.30052e-14
2.27866e-14
2.25788e-14
2.23816e-14
2.2195e-14
2.2019e-14
2.18536e-14
2.16986e-14
2.15542e-14
2.14202e-14
2.12966e-14
2.11834e-14
2.10805e-14
2.0988e-14
2.09059e-14
2.0834e-14
2.07725e-14
2.07212e-14
2.06802e-14
2.06494e-14
2.06289e-14
2.06187e-14
9.2065e-15
2.76004e-14
4.59376e-14
6.41812e-14
8.22963e-14
1.0025e-13
1.1801e-13
1.3555e-13
1.52842e-13
1.69862e-13
1.8659e-13
2.03006e-13
2.19094e-13
2.34838e-13
2.50228e-13
2.65252e-13
2.79902e-13
2.94172e-13
3.08056e-13
3.21552e-13
3.34658e-13
3.47373e-13
3.59699e-13
3.71637e-13
3.8319e-13
3.94362e-13
4.05157e-13
4.15581e-13
4.25641e-13
4.35341e-13
4.4469e-13
4.53694e-13
4.6236e-13
4.70698e-13
4.78714e-13
4.86417e-13
4.93814e-13
5.00914e-13
5.07726e-13
5.14256e-13
5.20514e-13
5.26507e-13
5.32243e-13
5.3773e-13
5.42974e-13
5.47985e-13
5.52768e-13
5.57331e-13
5.6168e-13
5.65823e-13
5.69765e-13
5.73514e-13
5.77074e-13
5.80452e-13
5.83654e-13
5.86685e-13
5.89549e-13
5.92253e-13
5.948e-13
5.97197e-13
5.99446e-13
6.01553e-13
6.03521e-13
6.05356e-13
6.07059e-13
6.08636e-13
6.10089e-13
6.11422e-13
6.12639e-13
6.13742e-13
6.14734e-13
6.15618e-13
6.16398e-13
6.17075e-13
6.17652e-13
6.18132e-13
6.18517e-13
6.18809e-13
6.1901e-13
6.19123e-13
6.19149e-13
6.19091e-13
6.1895e-13
6.18728e-13
6.18427e-13
6.18049e-13
6.17594e-13
6.17066e-13
6.16464e-13
6.15791e-13
6.15048e-13
6.14237e-13
6.13358e-13
6.12414e-13
6.11405e-13
6.10332e-13
6.09198e-13
6.08002e-13
6.06746e-13
6.05432e-13
6.0406e-13
6.02631e-13
6.01147e-13
5.99608e-13
5.98016e-13
5.96371e-13
5.94675e-13
5.92928e-13
5.91131e-13
5.89286e-13
5.87393e-13
5.85452e-13
5.83466e-13
5.81435e-13
5.79359e-13
5.7724e-13
5.75078e-13
5.72875e-13
5.7063e-13
5.68346e-13
5.66022e-13
5.6366e-13
5.6126e-13
5.58823e-13
5.5635e-13
5.53842e-13
5.51299e-13
5.48723e-13
5.46113e-13
5.43472e-13
5.40799e-13
5.38095e-13
5.35361e-13
5.32599e-13
5.29807e-13
5.26988e-13
5.24143e-13
5.2127e-13
5.18373e-13
5.1545e-13
5.12504e-13
5.09534e-13
5.06542e-13
5.03527e-13
5.00492e-13
4.97436e-13
4.9436e-13
4.91265e-13
4.88151e-13
4.8502e-13
4.81872e-13
4.78707e-13
4.75527e-13
4.72331e-13
4.69122e-13
4.65898e-13
4.62661e-13
4.59412e-13
4.56152e-13
4.5288e-13
4.49597e-13
4.46305e-13
4.43003e-13
4.39693e-13
4.36375e-13
4.33049e-13
4.29717e-13
4.26378e-13
4.23034e-13
4.19685e-13
4.16331e-13
4.12973e-13
4.09613e-13
4.06249e-13
4.02884e-13
3.99517e-13
3.96148e-13
3.9278e-13
3.89411e-13
3.86043e-13
3.82676e-13
3.79311e-13
3.75947e-13
3.72587e-13
3.69229e-13
3.65875e-13
3.62526e-13
3.59181e-13
3.55841e-13
3.52506e-13
3.49178e-13
3.45855e-13
3.4254e-13
3.39232e-13
3.35932e-13
3.3264e-13
3.29357e-13
3.26083e-13
3.22818e-13
3.19563e-13
3.16318e-13
3.13084e-13
3.0986e-13
3.06649e-13
3.03448e-13
3.0026e-13
2.97084e-13
2.93921e-13
2.90771e-13
2.87635e-13
2.84512e-13
2.81403e-13
2.78308e-13
2.75228e-13
2.72164e-13
2.69114e-13
2.66079e-13
2.63061e-13
2.60058e-13
2.57072e-13
2.54103e-13
2.5115e-13
2.48214e-13
2.45295e-13
2.42394e-13
2.3951e-13
2.36644e-13
2.33796e-13
2.30967e-13
2.28156e-13
2.25364e-13
2.2259e-13
2.19836e-13
2.171e-13
2.14384e-13
2.11687e-13
2.0901e-13
2.06353e-13
2.03715e-13
2.01098e-13
1.985e-13
1.95923e-13
1.93366e-13
1.90829e-13
1.88313e-13
1.85818e-13
1.83343e-13
1.80889e-13
1.78456e-13
1.76044e-13
1.73652e-13
1.71282e-13
1.68933e-13
1.66605e-13
1.64298e-13
1.62012e-13
1.59747e-13
1.57504e-13
1.55282e-13
1.53081e-13
1.50902e-13
1.48744e-13
1.46607e-13
1.44491e-13
1.42397e-13
1.40324e-13
1.38272e-13
1.36242e-13
1.34232e-13
1.32244e-13
1.30277e-13
1.28332e-13
1.26407e-13
1.24504e-13
1.22621e-13
1.20759e-13
1.18919e-13
1.17099e-13
1.153e-13
1.13522e-13
1.11764e-13
1.10027e-13
1.08311e-13
1.06615e-13
1.04939e-13
1.03284e-13
1.01649e-13
1.00034e-13
9.84395e-14
9.68647e-14
9.53099e-14
9.37748e-14
9.22594e-14
9.07636e-14
8.92874e-14
8.78305e-14
8.6393e-14
8.49747e-14
8.35755e-14
8.21953e-14
8.0834e-14
7.94914e-14
7.81676e-14
7.68623e-14
7.55754e-14
7.43069e-14
7.30566e-14
7.18244e-14
7.06102e-14
6.94139e-14
6.82353e-14
6.70744e-14
6.5931e-14
6.48049e-14
6.36962e-14
6.26046e-14
6.153e-14
6.04723e-14
5.94315e-14
5.84073e-14
5.73996e-14
5.64084e-14
5.54335e-14
5.44747e-14
5.3532e-14
5.26053e-14
5.16944e-14
5.07992e-14
4.99195e-14
4.90553e-14
4.82064e-14
4.73728e-14
4.65542e-14
4.57507e-14
4.4962e-14
4.4188e-14
4.34287e-14
4.26839e-14
4.19535e-14
4.12374e-14
4.05354e-14
3.98476e-14
3.91736e-14
3.85136e-14
3.78672e-14
3.72345e-14
3.66153e-14
3.60096e-14
3.54171e-14
3.48379e-14
3.42718e-14
3.37187e-14
3.31785e-14
3.26512e-14
3.21366e-14
3.16346e-14
3.11452e-14
3.06682e-14
3.02036e-14
2.97512e-14
2.93111e-14
2.8883e-14
2.8467e-14
2.8063e-14
2.76708e-14
2.72904e-14
2.69217e-14
2.65647e-14
2.62192e-14
2.58853e-14
2.55628e-14
2.52517e-14
2.49519e-14
2.46633e-14
2.4386e-14
2.41198e-14
2.38646e-14
2.36205e-14
2.33874e-14
2.31652e-14
2.29539e-14
2.27534e-14
2.25638e-14
2.23848e-14
2.22166e-14
2.20591e-14
2.19123e-14
2.1776e-14
2.16504e-14
2.15353e-14
2.14308e-14
2.13367e-14
2.12532e-14
2.11801e-14
2.11176e-14
2.10654e-14
2.10237e-14
2.09925e-14
2.09716e-14
2.09612e-14
9.25899e-15
2.77586e-14
4.62036e-14
6.45585e-14
8.2789e-14
1.00863e-13
1.18749e-13
1.3642e-13
1.53848e-13
1.71011e-13
1.87885e-13
2.04453e-13
2.20697e-13
2.36601e-13
2.52154e-13
2.67344e-13
2.82163e-13
2.96603e-13
3.10659e-13
3.24327e-13
3.37606e-13
3.50494e-13
3.62992e-13
3.75101e-13
3.86824e-13
3.98164e-13
4.09125e-13
4.19713e-13
4.29933e-13
4.39792e-13
4.49295e-13
4.58451e-13
4.67266e-13
4.75748e-13
4.83905e-13
4.91745e-13
4.99276e-13
5.06505e-13
5.13442e-13
5.20093e-13
5.26468e-13
5.32574e-13
5.3842e-13
5.44011e-13
5.49357e-13
5.54465e-13
5.59342e-13
5.63995e-13
5.6843e-13
5.72656e-13
5.76677e-13
5.80501e-13
5.84133e-13
5.8758e-13
5.90848e-13
5.9394e-13
5.96864e-13
5.99624e-13
6.02225e-13
6.04672e-13
6.0697e-13
6.09122e-13
6.11133e-13
6.13007e-13
6.14748e-13
6.1636e-13
6.17847e-13
6.19211e-13