/*--------------------------------*- C++ -*----------------------------------*\
  =========                 |
  \\      /  F ield         | OpenFOAM: The Open Source CFD Toolbox
   \\    /   O peration     | Website:  https://openfoam.org
    \\  /    A nd           | Version:  10
     \\/     M anipulation  |
\*---------------------------------------------------------------------------*/
FoamFile
{
    format      ascii;
    class       volScalarField;
    location    "0.82";
    object      N1;
}
// * * * * * * * * * * * * * * * * * * * * * * * * * * * * * * * * * * * * * //

dimensions      [0 0 0 0 0 0 0];

internalField   nonuniform List<scalar> 
8000
(
1.25019e-13
3.74551e-13
6.22743e-13
8.68915e-13
1.11248e-12
1.35293e-12
1.58981e-12
1.82274e-12
2.05136e-12
2.27538e-12
2.49453e-12
2.70862e-12
2.91745e-12
3.12089e-12
3.31883e-12
3.51119e-12
3.69791e-12
3.87898e-12
4.05438e-12
4.22414e-12
4.38829e-12
4.54688e-12
4.69999e-12
4.84768e-12
4.99005e-12
5.1272e-12
5.25923e-12
5.38625e-12
5.50838e-12
5.62575e-12
5.73846e-12
5.84665e-12
5.95044e-12
6.04996e-12
6.14534e-12
6.23669e-12
6.32414e-12
6.40781e-12
6.48782e-12
6.56428e-12
6.63731e-12
6.70702e-12
6.77352e-12
6.83691e-12
6.89729e-12
6.95476e-12
7.00942e-12
7.06135e-12
7.11065e-12
7.1574e-12
7.20168e-12
7.24357e-12
7.28315e-12
7.32049e-12
7.35566e-12
7.38872e-12
7.41975e-12
7.4488e-12
7.47593e-12
7.5012e-12
7.52467e-12
7.54638e-12
7.56638e-12
7.58473e-12
7.60146e-12
7.61663e-12
7.63027e-12
7.64243e-12
7.65315e-12
7.66245e-12
7.67038e-12
7.67697e-12
7.68226e-12
7.68627e-12
7.68904e-12
7.69059e-12
7.69096e-12
7.69016e-12
7.68824e-12
7.6852e-12
7.68108e-12
7.6759e-12
7.66968e-12
7.66244e-12
7.65421e-12
7.64501e-12
7.63485e-12
7.62375e-12
7.61174e-12
7.59883e-12
7.58504e-12
7.57039e-12
7.55489e-12
7.53856e-12
7.52141e-12
7.50347e-12
7.48475e-12
7.46526e-12
7.44502e-12
7.42404e-12
7.40233e-12
7.37992e-12
7.35681e-12
7.33301e-12
7.30855e-12
7.28344e-12
7.25768e-12
7.23129e-12
7.20428e-12
7.17667e-12
7.14847e-12
7.11969e-12
7.09034e-12
7.06043e-12
7.02999e-12
6.99901e-12
6.96751e-12
6.9355e-12
6.90299e-12
6.87e-12
6.83654e-12
6.80261e-12
6.76824e-12
6.73342e-12
6.69817e-12
6.66251e-12
6.62644e-12
6.58997e-12
6.55312e-12
6.51589e-12
6.4783e-12
6.44035e-12
6.40207e-12
6.36345e-12
6.32451e-12
6.28525e-12
6.2457e-12
6.20586e-12
6.16573e-12
6.12534e-12
6.08468e-12
6.04378e-12
6.00263e-12
5.96126e-12
5.91966e-12
5.87786e-12
5.83585e-12
5.79365e-12
5.75127e-12
5.70872e-12
5.666e-12
5.62313e-12
5.58012e-12
5.53697e-12
5.4937e-12
5.4503e-12
5.4068e-12
5.3632e-12
5.31952e-12
5.27574e-12
5.2319e-12
5.18799e-12
5.14403e-12
5.10001e-12
5.05596e-12
5.01188e-12
4.96777e-12
4.92365e-12
4.87952e-12
4.8354e-12
4.79128e-12
4.74717e-12
4.70309e-12
4.65904e-12
4.61503e-12
4.57107e-12
4.52715e-12
4.4833e-12
4.43952e-12
4.3958e-12
4.35217e-12
4.30862e-12
4.26517e-12
4.22182e-12
4.17857e-12
4.13543e-12
4.09242e-12
4.04952e-12
4.00676e-12
3.96414e-12
3.92165e-12
3.87931e-12
3.83713e-12
3.7951e-12
3.75323e-12
3.71153e-12
3.67001e-12
3.62866e-12
3.5875e-12
3.54653e-12
3.50574e-12
3.46515e-12
3.42477e-12
3.38459e-12
3.34461e-12
3.30485e-12
3.26531e-12
3.22599e-12
3.18689e-12
3.14802e-12
3.10939e-12
3.07098e-12
3.03282e-12
2.9949e-12
2.95722e-12
2.91979e-12
2.8826e-12
2.84568e-12
2.809e-12
2.77259e-12
2.73644e-12
2.70055e-12
2.66492e-12
2.62956e-12
2.59447e-12
2.55966e-12
2.52511e-12
2.49084e-12
2.45685e-12
2.42314e-12
2.3897e-12
2.35655e-12
2.32368e-12
2.29109e-12
2.25879e-12
2.22677e-12
2.19504e-12
2.1636e-12
2.13244e-12
2.10158e-12
2.071e-12
2.04072e-12
2.01072e-12
1.98102e-12
1.95161e-12
1.92249e-12
1.89366e-12
1.86512e-12
1.83688e-12
1.80893e-12
1.78127e-12
1.7539e-12
1.72682e-12
1.70004e-12
1.67354e-12
1.64734e-12
1.62142e-12
1.5958e-12
1.57046e-12
1.54541e-12
1.52065e-12
1.49617e-12
1.47199e-12
1.44808e-12
1.42446e-12
1.40112e-12
1.37807e-12
1.35529e-12
1.3328e-12
1.31058e-12
1.28864e-12
1.26698e-12
1.24559e-12
1.22447e-12
1.20363e-12
1.18305e-12
1.16275e-12
1.14271e-12
1.12294e-12
1.10344e-12
1.0842e-12
1.06521e-12
1.04649e-12
1.02803e-12
1.00982e-12
9.9187e-13
9.74171e-13
9.56723e-13
9.39524e-13
9.22573e-13
9.05868e-13
8.89407e-13
8.73188e-13
8.57209e-13
8.41469e-13
8.25965e-13
8.10695e-13
7.95658e-13
7.80852e-13
7.66274e-13
7.51923e-13
7.37797e-13
7.23894e-13
7.10212e-13
6.96748e-13
6.83502e-13
6.7047e-13
6.57651e-13
6.45043e-13
6.32644e-13
6.20451e-13
6.08464e-13
5.96679e-13
5.85095e-13
5.73711e-13
5.62523e-13
5.5153e-13
5.4073e-13
5.3012e-13
5.197e-13
5.09467e-13
4.99419e-13
4.89555e-13
4.79871e-13
4.70367e-13
4.6104e-13
4.51888e-13
4.42911e-13
4.34105e-13
4.25469e-13
4.17e-13
4.08699e-13
4.00561e-13
3.92586e-13
3.84772e-13
3.77117e-13
3.69619e-13
3.62277e-13
3.55089e-13
3.48053e-13
3.41167e-13
3.3443e-13
3.27841e-13
3.21397e-13
3.15097e-13
3.08939e-13
3.02922e-13
2.97045e-13
2.91305e-13
2.85701e-13
2.80233e-13
2.74898e-13
2.69695e-13
2.64622e-13
2.59679e-13
2.54864e-13
2.50175e-13
2.45612e-13
2.41173e-13
2.36856e-13
2.32661e-13
2.28587e-13
2.24632e-13
2.20795e-13
2.17074e-13
2.1347e-13
2.09981e-13
2.06606e-13
2.03343e-13
2.00193e-13
1.97153e-13
1.94223e-13
1.91403e-13
1.88691e-13
1.86086e-13
1.83588e-13
1.81196e-13
1.7891e-13
1.76727e-13
1.74649e-13
1.72674e-13
1.70801e-13
1.6903e-13
1.67361e-13
1.65793e-13
1.64325e-13
1.62957e-13
1.61689e-13
1.60519e-13
1.59449e-13
1.58476e-13
1.57602e-13
1.56826e-13
1.56147e-13
1.55566e-13
1.55082e-13
1.54695e-13
1.54404e-13
1.54211e-13
1.54114e-13
1.26299e-13
3.78501e-13
6.29573e-13
8.78862e-13
1.12579e-12
1.36985e-12
1.61057e-12
1.84756e-12
2.08046e-12
2.30895e-12
2.53276e-12
2.75166e-12
2.96546e-12
3.17399e-12
3.37713e-12
3.57478e-12
3.76687e-12
3.95335e-12
4.13421e-12
4.30944e-12
4.47906e-12
4.64312e-12
4.80165e-12
4.95474e-12
5.10245e-12
5.24486e-12
5.38209e-12
5.51422e-12
5.64137e-12
5.76365e-12
5.88118e-12
5.99406e-12
6.10244e-12
6.20641e-12
6.30612e-12
6.40168e-12
6.49321e-12
6.58082e-12
6.66465e-12
6.7448e-12
6.82139e-12
6.89453e-12
6.96433e-12
7.03089e-12
7.09431e-12
7.15471e-12
7.21217e-12
7.26678e-12
7.31865e-12
7.36784e-12
7.41446e-12
7.45858e-12
7.50028e-12
7.53964e-12
7.57672e-12
7.61161e-12
7.64435e-12
7.67503e-12
7.70369e-12
7.73041e-12
7.75523e-12
7.77822e-12
7.79942e-12
7.81888e-12
7.83666e-12
7.8528e-12
7.86734e-12
7.88032e-12
7.8918e-12
7.90179e-12
7.91036e-12
7.91752e-12
7.92331e-12
7.92778e-12
7.93094e-12
7.93283e-12
7.93348e-12
7.93293e-12
7.93119e-12
7.92829e-12
7.92426e-12
7.91912e-12
7.9129e-12
7.90562e-12
7.89731e-12
7.88798e-12
7.87765e-12
7.86635e-12
7.8541e-12
7.84091e-12
7.8268e-12
7.8118e-12
7.79592e-12
7.77917e-12
7.76158e-12
7.74316e-12
7.72393e-12
7.7039e-12
7.68308e-12
7.66151e-12
7.63918e-12
7.61611e-12
7.59232e-12
7.56783e-12
7.54264e-12
7.51677e-12
7.49023e-12
7.46304e-12
7.43522e-12
7.40676e-12
7.37769e-12
7.34803e-12
7.31777e-12
7.28694e-12
7.25554e-12
7.2236e-12
7.19111e-12
7.1581e-12
7.12458e-12
7.09055e-12
7.05603e-12
7.02104e-12
6.98557e-12
6.94966e-12
6.91329e-12
6.8765e-12
6.83928e-12
6.80166e-12
6.76363e-12
6.72522e-12
6.68644e-12
6.64728e-12
6.60777e-12
6.56792e-12
6.52774e-12
6.48724e-12
6.44642e-12
6.4053e-12
6.3639e-12
6.32221e-12
6.28025e-12
6.23804e-12
6.19558e-12
6.15288e-12
6.10995e-12
6.0668e-12
6.02345e-12
5.9799e-12
5.93616e-12
5.89224e-12
5.84816e-12
5.80391e-12
5.75952e-12
5.71499e-12
5.67032e-12
5.62554e-12
5.58064e-12
5.53564e-12
5.49055e-12
5.44537e-12
5.40012e-12
5.3548e-12
5.30942e-12
5.264e-12
5.21853e-12
5.17303e-12
5.12751e-12
5.08197e-12
5.03642e-12
4.99088e-12
4.94534e-12
4.89982e-12
4.85432e-12
4.80886e-12
4.76343e-12
4.71805e-12
4.67273e-12
4.62747e-12
4.58227e-12
4.53716e-12
4.49212e-12
4.44717e-12
4.40232e-12
4.35758e-12
4.31294e-12
4.26842e-12
4.22402e-12
4.17975e-12
4.13561e-12
4.09161e-12
4.04776e-12
4.00406e-12
3.96052e-12
3.91714e-12
3.87393e-12
3.83089e-12
3.78803e-12
3.74535e-12
3.70287e-12
3.66057e-12
3.61848e-12
3.57659e-12
3.5349e-12
3.49343e-12
3.45217e-12
3.41113e-12
3.37032e-12
3.32973e-12
3.28938e-12
3.24926e-12
3.20938e-12
3.16974e-12
3.13035e-12
3.09121e-12
3.05232e-12
3.01368e-12
2.9753e-12
2.93719e-12
2.89934e-12
2.86175e-12
2.82444e-12
2.78739e-12
2.75062e-12
2.71412e-12
2.67791e-12
2.64197e-12
2.60632e-12
2.57094e-12
2.53586e-12
2.50106e-12
2.46655e-12
2.43233e-12
2.3984e-12
2.36477e-12
2.33142e-12
2.29838e-12
2.26563e-12
2.23317e-12
2.20102e-12
2.16916e-12
2.1376e-12
2.10634e-12
2.07538e-12
2.04472e-12
2.01437e-12
1.98431e-12
1.95456e-12
1.9251e-12
1.89595e-12
1.8671e-12
1.83855e-12
1.8103e-12
1.78235e-12
1.75471e-12
1.72736e-12
1.70031e-12
1.67356e-12
1.64711e-12
1.62096e-12
1.59511e-12
1.56955e-12
1.54429e-12
1.51932e-12
1.49465e-12
1.47027e-12
1.44618e-12
1.42238e-12
1.39888e-12
1.37566e-12
1.35272e-12
1.33008e-12
1.30772e-12
1.28564e-12
1.26385e-12
1.24233e-12
1.2211e-12
1.20014e-12
1.17946e-12
1.15906e-12
1.13892e-12
1.11906e-12
1.09947e-12
1.08015e-12
1.06109e-12
1.0423e-12
1.02377e-12
1.0055e-12
9.87489e-13
9.69738e-13
9.52242e-13
9.34999e-13
9.18009e-13
9.01268e-13
8.84775e-13
8.68529e-13
8.52526e-13
8.36766e-13
8.21245e-13
8.05963e-13
7.90916e-13
7.76104e-13
7.61524e-13
7.47173e-13
7.33051e-13
7.19155e-13
7.05482e-13
6.92031e-13
6.788e-13
6.65786e-13
6.52988e-13
6.40404e-13
6.28031e-13
6.15867e-13
6.03911e-13
5.9216e-13
5.80612e-13
5.69266e-13
5.58118e-13
5.47168e-13
5.36413e-13
5.25851e-13
5.1548e-13
5.05298e-13
4.95303e-13
4.85493e-13
4.75866e-13
4.6642e-13
4.57154e-13
4.48065e-13
4.39151e-13
4.3041e-13
4.21842e-13
4.13442e-13
4.05211e-13
3.97146e-13
3.89245e-13
3.81506e-13
3.73928e-13
3.66508e-13
3.59246e-13
3.52139e-13
3.45185e-13
3.38384e-13
3.31732e-13
3.2523e-13
3.18874e-13
3.12663e-13
3.06597e-13
3.00673e-13
2.94889e-13
2.89245e-13
2.83738e-13
2.78368e-13
2.73132e-13
2.6803e-13
2.6306e-13
2.58221e-13
2.5351e-13
2.48928e-13
2.44473e-13
2.40143e-13
2.35938e-13
2.31855e-13
2.27895e-13
2.24055e-13
2.20335e-13
2.16734e-13
2.1325e-13
2.09882e-13
2.0663e-13
2.03493e-13
2.00469e-13
1.97558e-13
1.94759e-13
1.9207e-13
1.89492e-13
1.87023e-13
1.84663e-13
1.82411e-13
1.80265e-13
1.78227e-13
1.76294e-13
1.74466e-13
1.72743e-13
1.71124e-13
1.69609e-13
1.68197e-13
1.66888e-13
1.65681e-13
1.64576e-13
1.63573e-13
1.6267e-13
1.61869e-13
1.61169e-13
1.60569e-13
1.60069e-13
1.59669e-13
1.5937e-13
1.5917e-13
1.5907e-13
1.27555e-13
3.82323e-13
6.3609e-13
8.88246e-13
1.13823e-12
1.38554e-12
1.62971e-12
1.87033e-12
2.10704e-12
2.33952e-12
2.56747e-12
2.79066e-12
3.00887e-12
3.22193e-12
3.42969e-12
3.63205e-12
3.8289e-12
4.0202e-12
4.20591e-12
4.38601e-12
4.5605e-12
4.72942e-12
4.8928e-12
5.05069e-12
5.20316e-12
5.35028e-12
5.49214e-12
5.62884e-12
5.76048e-12
5.88715e-12
6.00897e-12
6.12606e-12
6.23854e-12
6.34651e-12
6.4501e-12
6.54942e-12
6.64461e-12
6.73577e-12
6.82302e-12
6.90648e-12
6.98626e-12
7.06248e-12
7.13524e-12
7.20465e-12
7.27081e-12
7.33384e-12
7.39381e-12
7.45084e-12
7.50501e-12
7.55641e-12
7.60514e-12
7.65126e-12
7.69487e-12
7.73605e-12
7.77485e-12
7.81137e-12
7.84567e-12
7.87781e-12
7.90786e-12
7.93588e-12
7.96193e-12
7.98607e-12
8.00835e-12
8.02882e-12
8.04754e-12
8.06455e-12
8.0799e-12
8.09363e-12
8.10579e-12
8.11642e-12
8.12555e-12
8.13322e-12
8.13948e-12
8.14435e-12
8.14787e-12
8.15008e-12
8.15099e-12
8.15065e-12
8.14908e-12
8.14631e-12
8.14236e-12
8.13727e-12
8.13105e-12
8.12374e-12
8.11535e-12
8.10591e-12
8.09544e-12
8.08395e-12
8.07149e-12
8.05805e-12
8.04366e-12
8.02835e-12
8.01213e-12
7.99501e-12
7.97702e-12
7.95817e-12
7.93848e-12
7.91796e-12
7.89664e-12
7.87453e-12
7.85164e-12
7.82799e-12
7.8036e-12
7.77847e-12
7.75263e-12
7.72609e-12
7.69885e-12
7.67095e-12
7.64238e-12
7.61317e-12
7.58333e-12
7.55286e-12
7.52179e-12
7.49013e-12
7.45789e-12
7.42508e-12
7.39171e-12
7.3578e-12
7.32336e-12
7.2884e-12
7.25294e-12
7.21699e-12
7.18055e-12
7.14365e-12
7.10628e-12
7.06848e-12
7.03023e-12
6.99157e-12
6.95249e-12
6.91302e-12
6.87316e-12
6.83292e-12
6.79232e-12
6.75137e-12
6.71007e-12
6.66844e-12
6.62649e-12
6.58423e-12
6.54167e-12
6.49883e-12
6.45571e-12
6.41232e-12
6.36867e-12
6.32479e-12
6.28066e-12
6.23631e-12
6.19175e-12
6.14699e-12
6.10203e-12
6.05689e-12
6.01157e-12
5.9661e-12
5.92046e-12
5.87469e-12
5.82878e-12
5.78274e-12
5.73659e-12
5.69034e-12
5.64399e-12
5.59755e-12
5.55104e-12
5.50445e-12
5.45781e-12
5.41111e-12
5.36438e-12
5.31761e-12
5.27081e-12
5.224e-12
5.17718e-12
5.13037e-12
5.08356e-12
5.03676e-12
4.99e-12
4.94326e-12
4.89657e-12
4.84992e-12
4.80333e-12
4.7568e-12
4.71035e-12
4.66397e-12
4.61767e-12
4.57147e-12
4.52537e-12
4.47937e-12
4.43349e-12
4.38772e-12
4.34208e-12
4.29657e-12
4.2512e-12
4.20597e-12
4.1609e-12
4.11598e-12
4.07122e-12
4.02662e-12
3.98221e-12
3.93796e-12
3.89391e-12
3.85004e-12
3.80637e-12
3.76289e-12
3.71962e-12
3.67655e-12
3.6337e-12
3.59107e-12
3.54866e-12
3.50647e-12
3.46452e-12
3.4228e-12
3.38132e-12
3.34008e-12
3.29908e-12
3.25834e-12
3.21784e-12
3.17761e-12
3.13763e-12
3.09792e-12
3.05847e-12
3.01929e-12
2.98038e-12
2.94174e-12
2.90338e-12
2.8653e-12
2.8275e-12
2.78999e-12
2.75276e-12
2.71582e-12
2.67917e-12
2.64281e-12
2.60674e-12
2.57097e-12
2.53549e-12
2.50032e-12
2.46544e-12
2.43086e-12
2.39659e-12
2.36262e-12
2.32895e-12
2.29559e-12
2.26254e-12
2.22979e-12
2.19735e-12
2.16522e-12
2.13339e-12
2.10188e-12
2.07067e-12
2.03977e-12
2.00919e-12
1.97891e-12
1.94894e-12
1.91929e-12
1.88994e-12
1.8609e-12
1.83217e-12
1.80375e-12
1.77564e-12
1.74784e-12
1.72034e-12
1.69315e-12
1.66627e-12
1.63969e-12
1.61342e-12
1.58745e-12
1.56179e-12
1.53643e-12
1.51136e-12
1.4866e-12
1.46214e-12
1.43798e-12
1.41411e-12
1.39054e-12
1.36726e-12
1.34427e-12
1.32158e-12
1.29917e-12
1.27706e-12
1.25523e-12
1.23369e-12
1.21243e-12
1.19145e-12
1.17076e-12
1.15034e-12
1.1302e-12
1.11034e-12
1.09075e-12
1.07143e-12
1.05238e-12
1.0336e-12
1.01509e-12
9.96843e-13
9.78858e-13
9.61134e-13
9.43668e-13
9.2646e-13
9.09506e-13
8.92805e-13
8.76355e-13
8.60154e-13
8.442e-13
8.2849e-13
8.13024e-13
7.97797e-13
7.82809e-13
7.68058e-13
7.53541e-13
7.39256e-13
7.25201e-13
7.11374e-13
6.97773e-13
6.84396e-13
6.7124e-13
6.58304e-13
6.45585e-13
6.33082e-13
6.20791e-13
6.08712e-13
5.96841e-13
5.85178e-13
5.73719e-13
5.62462e-13
5.51407e-13
5.40549e-13
5.29888e-13
5.19422e-13
5.09147e-13
4.99063e-13
4.89167e-13
4.79458e-13
4.69932e-13
4.60589e-13
4.51426e-13
4.42441e-13
4.33633e-13
4.24999e-13
4.16537e-13
4.08247e-13
4.00125e-13
3.92169e-13
3.84379e-13
3.76753e-13
3.69287e-13
3.61981e-13
3.54834e-13
3.47842e-13
3.41005e-13
3.3432e-13
3.27787e-13
3.21403e-13
3.15167e-13
3.09077e-13
3.03132e-13
2.9733e-13
2.91669e-13
2.86149e-13
2.80767e-13
2.75522e-13
2.70413e-13
2.65438e-13
2.60596e-13
2.55886e-13
2.51306e-13
2.46856e-13
2.42533e-13
2.38336e-13
2.34265e-13
2.30318e-13
2.26494e-13
2.22792e-13
2.1921e-13
2.15749e-13
2.12406e-13
2.09181e-13
2.06073e-13
2.0308e-13
2.00203e-13
1.97439e-13
1.94789e-13
1.92251e-13
1.89825e-13
1.87509e-13
1.85304e-13
1.83208e-13
1.81221e-13
1.79343e-13
1.77572e-13
1.75908e-13
1.7435e-13
1.72899e-13
1.71553e-13
1.70312e-13
1.69176e-13
1.68145e-13
1.67217e-13
1.66394e-13
1.65674e-13
1.65057e-13
1.64543e-13
1.64132e-13
1.63824e-13
1.63619e-13
1.63516e-13
1.28727e-13
3.85872e-13
6.42103e-13
8.96844e-13
1.14956e-12
1.39975e-12
1.64696e-12
1.89079e-12
2.13085e-12
2.36682e-12
2.59841e-12
2.82535e-12
3.04742e-12
3.26444e-12
3.47625e-12
3.68272e-12
3.88375e-12
4.07927e-12
4.26922e-12
4.45359e-12
4.63235e-12
4.80553e-12
4.97315e-12
5.13526e-12
5.29191e-12
5.44316e-12
5.5891e-12
5.7298e-12
5.86538e-12
5.99592e-12
6.12153e-12
6.24231e-12
6.35839e-12
6.46988e-12
6.57689e-12
6.67954e-12
6.77794e-12
6.87222e-12
6.9625e-12
7.04888e-12
7.13148e-12
7.21041e-12
7.28579e-12
7.35772e-12
7.4263e-12
7.49165e-12
7.55385e-12
7.61301e-12
7.66922e-12
7.72258e-12
7.77316e-12
7.82106e-12
7.86636e-12
7.90914e-12
7.94948e-12
7.98744e-12
8.02311e-12
8.05655e-12
8.08783e-12
8.117e-12
8.14414e-12
8.1693e-12
8.19254e-12
8.21391e-12
8.23346e-12
8.25125e-12
8.26731e-12
8.28171e-12
8.29448e-12
8.30566e-12
8.3153e-12
8.32343e-12
8.3301e-12
8.33533e-12
8.33918e-12
8.34165e-12
8.3428e-12
8.34265e-12
8.34124e-12
8.33858e-12
8.33471e-12
8.32966e-12
8.32345e-12
8.3161e-12
8.30765e-12
8.29811e-12
8.28751e-12
8.27587e-12
8.26322e-12
8.24956e-12
8.23493e-12
8.21935e-12
8.20282e-12
8.18538e-12
8.16703e-12
8.14781e-12
8.12772e-12
8.10678e-12
8.08501e-12
8.06243e-12
8.03904e-12
8.01488e-12
7.98995e-12
7.96427e-12
7.93785e-12
7.91072e-12
7.88287e-12
7.85433e-12
7.82512e-12
7.79524e-12
7.76471e-12
7.73355e-12
7.70176e-12
7.66936e-12
7.63637e-12
7.6028e-12
7.56865e-12
7.53395e-12
7.49871e-12
7.46293e-12
7.42663e-12
7.38983e-12
7.35254e-12
7.31476e-12
7.27652e-12
7.23782e-12
7.19867e-12
7.15909e-12
7.11909e-12
7.07868e-12
7.03787e-12
6.99668e-12
6.95511e-12
6.91318e-12
6.8709e-12
6.82828e-12
6.78533e-12
6.74206e-12
6.69849e-12
6.65462e-12
6.61047e-12
6.56605e-12
6.52136e-12
6.47642e-12
6.43125e-12
6.38584e-12
6.34021e-12
6.29438e-12
6.24834e-12
6.20212e-12
6.15572e-12
6.10916e-12
6.06243e-12
6.01556e-12
5.96855e-12
5.92142e-12
5.87416e-12
5.8268e-12
5.77934e-12
5.73179e-12
5.68416e-12
5.63646e-12
5.5887e-12
5.54089e-12
5.49303e-12
5.44514e-12
5.39722e-12
5.34929e-12
5.30135e-12
5.25341e-12
5.20548e-12
5.15756e-12
5.10968e-12
5.06182e-12
5.01401e-12
4.96624e-12
4.91854e-12
4.87089e-12
4.82332e-12
4.77583e-12
4.72843e-12
4.68112e-12
4.63391e-12
4.58681e-12
4.53982e-12
4.49296e-12
4.44622e-12
4.39962e-12
4.35317e-12
4.30685e-12
4.2607e-12
4.2147e-12
4.16887e-12
4.1232e-12
4.07772e-12
4.03242e-12
3.9873e-12
3.94238e-12
3.89766e-12
3.85314e-12
3.80883e-12
3.76474e-12
3.72086e-12
3.6772e-12
3.63378e-12
3.59058e-12
3.54762e-12
3.5049e-12
3.46242e-12
3.42019e-12
3.37821e-12
3.33649e-12
3.29503e-12
3.25383e-12
3.21289e-12
3.17222e-12
3.13183e-12
3.09171e-12
3.05186e-12
3.0123e-12
2.97302e-12
2.93403e-12
2.89532e-12
2.85691e-12
2.81879e-12
2.78096e-12
2.74343e-12
2.70619e-12
2.66926e-12
2.63263e-12
2.59631e-12
2.56029e-12
2.52458e-12
2.48917e-12
2.45408e-12
2.41929e-12
2.38482e-12
2.35066e-12
2.31681e-12
2.28327e-12
2.25005e-12
2.21715e-12
2.18456e-12
2.15229e-12
2.12034e-12
2.0887e-12
2.05738e-12
2.02638e-12
1.99569e-12
1.96532e-12
1.93527e-12
1.90554e-12
1.87612e-12
1.84702e-12
1.81823e-12
1.78976e-12
1.76161e-12
1.73376e-12
1.70624e-12
1.67902e-12
1.65212e-12
1.62553e-12
1.59925e-12
1.57328e-12
1.54762e-12
1.52226e-12
1.49721e-12
1.47247e-12
1.44803e-12
1.42389e-12
1.40005e-12
1.37652e-12
1.35328e-12
1.33034e-12
1.30769e-12
1.28534e-12
1.26328e-12
1.24151e-12
1.22003e-12
1.19884e-12
1.17793e-12
1.15731e-12
1.13697e-12
1.11691e-12
1.09713e-12
1.07762e-12
1.0584e-12
1.03944e-12
1.02075e-12
1.00234e-12
9.84187e-13
9.66303e-13
9.48682e-13
9.31321e-13
9.1422e-13
8.97376e-13
8.80786e-13
8.64449e-13
8.48363e-13
8.32525e-13
8.16933e-13
8.01586e-13
7.86481e-13
7.71615e-13
7.56988e-13
7.42596e-13
7.28437e-13
7.1451e-13
7.00812e-13
6.87341e-13
6.74094e-13
6.6107e-13
6.48267e-13
6.35682e-13
6.23312e-13
6.11157e-13
5.99214e-13
5.8748e-13
5.75954e-13
5.64633e-13
5.53515e-13
5.42598e-13
5.3188e-13
5.2136e-13
5.11034e-13
5.009e-13
4.90958e-13
4.81204e-13
4.71636e-13
4.62254e-13
4.53053e-13
4.44034e-13
4.35193e-13
4.26528e-13
4.18039e-13
4.09722e-13
4.01576e-13
3.93599e-13
3.85789e-13
3.78145e-13
3.70664e-13
3.63345e-13
3.56185e-13
3.49184e-13
3.42339e-13
3.35649e-13
3.29112e-13
3.22726e-13
3.1649e-13
3.10403e-13
3.04461e-13
2.98665e-13
2.93012e-13
2.87501e-13
2.82131e-13
2.76899e-13
2.71805e-13
2.66847e-13
2.62024e-13
2.57334e-13
2.52777e-13
2.4835e-13
2.44053e-13
2.39884e-13
2.35842e-13
2.31927e-13
2.28136e-13
2.24468e-13
2.20924e-13
2.17501e-13
2.14198e-13
2.11015e-13
2.07951e-13
2.05005e-13
2.02175e-13
1.99461e-13
1.96862e-13
1.94378e-13
1.92007e-13
1.89749e-13
1.87603e-13
1.85568e-13
1.83644e-13
1.81831e-13
1.80127e-13
1.78532e-13
1.77046e-13
1.75668e-13
1.74397e-13
1.73234e-13
1.72178e-13
1.71228e-13
1.70385e-13
1.69647e-13
1.69016e-13
1.6849e-13
1.68069e-13
1.67754e-13
1.67544e-13
1.67439e-13
1.29779e-13
3.89051e-13
6.47469e-13
9.04486e-13
1.15959e-12
1.41228e-12
1.66213e-12
1.90871e-12
2.15166e-12
2.39064e-12
2.62534e-12
2.8555e-12
3.08089e-12
3.30131e-12
3.51659e-12
3.72659e-12
3.93119e-12
4.13033e-12
4.32393e-12
4.51195e-12
4.69438e-12
4.87122e-12
5.04249e-12
5.20821e-12
5.36845e-12
5.52325e-12
5.67269e-12
5.81685e-12
5.95582e-12
6.08968e-12
6.21855e-12
6.34252e-12
6.46171e-12
6.57622e-12
6.68618e-12
6.79169e-12
6.89288e-12
6.98986e-12
7.08274e-12
7.17164e-12
7.25667e-12
7.33796e-12
7.41559e-12
7.4897e-12
7.56037e-12
7.62773e-12
7.69185e-12
7.75286e-12
7.81083e-12
7.86587e-12
7.91807e-12
7.96751e-12
8.01427e-12
8.05844e-12
8.1001e-12
8.13932e-12
8.17618e-12
8.21074e-12
8.24308e-12
8.27326e-12
8.30134e-12
8.32738e-12
8.35145e-12
8.37359e-12
8.39387e-12
8.41233e-12
8.42902e-12
8.44399e-12
8.45729e-12
8.46895e-12
8.47903e-12
8.48756e-12
8.49459e-12
8.50014e-12
8.50426e-12
8.50698e-12
8.50833e-12
8.50835e-12
8.50707e-12
8.50451e-12
8.50071e-12
8.49569e-12
8.48949e-12
8.48212e-12
8.47361e-12
8.464e-12
8.45329e-12
8.44151e-12
8.4287e-12
8.41486e-12
8.40001e-12
8.38419e-12
8.36741e-12
8.34968e-12
8.33104e-12
8.31149e-12
8.29105e-12
8.26975e-12
8.24759e-12
8.2246e-12
8.2008e-12
8.17619e-12
8.1508e-12
8.12464e-12
8.09773e-12
8.07008e-12
8.0417e-12
8.01262e-12
7.98285e-12
7.95239e-12
7.92127e-12
7.88951e-12
7.8571e-12
7.82407e-12
7.79043e-12
7.7562e-12
7.72138e-12
7.686e-12
7.65006e-12
7.61357e-12
7.57656e-12
7.53903e-12
7.50099e-12
7.46247e-12
7.42346e-12
7.38399e-12
7.34406e-12
7.30369e-12
7.26289e-12
7.22167e-12
7.18004e-12
7.13803e-12
7.09562e-12
7.05285e-12
7.00972e-12
6.96625e-12
6.92244e-12
6.8783e-12
6.83385e-12
6.7891e-12
6.74406e-12
6.69875e-12
6.65316e-12
6.60732e-12
6.56123e-12
6.51491e-12
6.46836e-12
6.4216e-12
6.37464e-12
6.32749e-12
6.28015e-12
6.23265e-12
6.18498e-12
6.13716e-12
6.08921e-12
6.04112e-12
5.99291e-12
5.94459e-12
5.89617e-12
5.84766e-12
5.79907e-12
5.75041e-12
5.70168e-12
5.6529e-12
5.60408e-12
5.55522e-12
5.50634e-12
5.45744e-12
5.40853e-12
5.35962e-12
5.31072e-12
5.26184e-12
5.21298e-12
5.16416e-12
5.11538e-12
5.06665e-12
5.01798e-12
4.96937e-12
4.92084e-12
4.87239e-12
4.82403e-12
4.77576e-12
4.7276e-12
4.67955e-12
4.63161e-12
4.5838e-12
4.53612e-12
4.48858e-12
4.44118e-12
4.39393e-12
4.34684e-12
4.29991e-12
4.25315e-12
4.20657e-12
4.16017e-12
4.11395e-12
4.06792e-12
4.0221e-12
3.97647e-12
3.93105e-12
3.88585e-12
3.84086e-12
3.79609e-12
3.75155e-12
3.70725e-12
3.66318e-12
3.61935e-12
3.57576e-12
3.53243e-12
3.48934e-12
3.44652e-12
3.40395e-12
3.36165e-12
3.31962e-12
3.27785e-12
3.23636e-12
3.19515e-12
3.15422e-12
3.11357e-12
3.07321e-12
3.03313e-12
2.99335e-12
2.95386e-12
2.91467e-12
2.87578e-12
2.83719e-12
2.7989e-12
2.76091e-12
2.72323e-12
2.68586e-12
2.6488e-12
2.61206e-12
2.57562e-12
2.5395e-12
2.50369e-12
2.46821e-12
2.43304e-12
2.39818e-12
2.36365e-12
2.32944e-12
2.29555e-12
2.26198e-12
2.22873e-12
2.19581e-12
2.16321e-12
2.13093e-12
2.09898e-12
2.06735e-12
2.03604e-12
2.00506e-12
1.9744e-12
1.94407e-12
1.91405e-12
1.88436e-12
1.85499e-12
1.82595e-12
1.79722e-12
1.76882e-12
1.74074e-12
1.71297e-12
1.68553e-12
1.6584e-12
1.63159e-12
1.60509e-12
1.57891e-12
1.55304e-12
1.52748e-12
1.50224e-12
1.4773e-12
1.45268e-12
1.42836e-12
1.40435e-12
1.38064e-12
1.35723e-12
1.33413e-12
1.31133e-12
1.28882e-12
1.26661e-12
1.2447e-12
1.22308e-12
1.20175e-12
1.18071e-12
1.15996e-12
1.13949e-12
1.11931e-12
1.09941e-12
1.0798e-12
1.06046e-12
1.04139e-12
1.0226e-12
1.00409e-12
9.85841e-13
9.67864e-13
9.50152e-13
9.32705e-13
9.1552e-13
8.98595e-13
8.81928e-13
8.65516e-13
8.49358e-13
8.33451e-13
8.17793e-13
8.02383e-13
7.87217e-13
7.72293e-13
7.57611e-13
7.43166e-13
7.28957e-13
7.14982e-13
7.01238e-13
6.87724e-13
6.74437e-13
6.61374e-13
6.48535e-13
6.35915e-13
6.23514e-13
6.11329e-13
5.99358e-13
5.87599e-13
5.76049e-13
5.64706e-13
5.53569e-13
5.42635e-13
5.31901e-13
5.21366e-13
5.11028e-13
5.00885e-13
4.90933e-13
4.81173e-13
4.716e-13
4.62214e-13
4.53012e-13
4.43992e-13
4.35153e-13
4.26491e-13
4.18006e-13
4.09696e-13
4.01557e-13
3.9359e-13
3.85791e-13
3.78158e-13
3.70691e-13
3.63387e-13
3.56244e-13
3.49261e-13
3.42436e-13
3.35766e-13
3.29252e-13
3.2289e-13
3.16679e-13
3.10617e-13
3.04704e-13
2.98937e-13
2.93314e-13
2.87835e-13
2.82498e-13
2.77301e-13
2.72243e-13
2.67322e-13
2.62537e-13
2.57888e-13
2.53371e-13
2.48987e-13
2.44734e-13
2.40611e-13
2.36616e-13
2.32748e-13
2.29007e-13
2.25391e-13
2.21899e-13
2.18529e-13
2.15282e-13
2.12156e-13
2.0915e-13
2.06263e-13
2.03494e-13
2.00843e-13
1.98308e-13
1.95889e-13
1.93585e-13
1.91396e-13
1.8932e-13
1.87358e-13
1.85507e-13
1.83769e-13
1.82142e-13
1.80626e-13
1.7922e-13
1.77924e-13
1.76737e-13
1.75659e-13
1.7469e-13
1.7383e-13
1.73077e-13
1.72433e-13
1.71896e-13
1.71467e-13
1.71146e-13
1.70931e-13
1.70824e-13
1.30687e-13
3.91789e-13
6.5208e-13
9.11037e-13
1.16816e-12
1.42297e-12
1.67503e-12
1.92393e-12
2.16929e-12
2.41078e-12
2.64808e-12
2.88093e-12
3.10908e-12
3.33233e-12
3.5505e-12
3.76344e-12
3.97103e-12
4.17318e-12
4.36982e-12
4.5609e-12
4.74638e-12
4.92628e-12
5.10059e-12
5.26934e-12
5.43257e-12
5.59034e-12
5.74271e-12
5.88975e-12
6.03155e-12
6.16819e-12
6.29979e-12
6.42642e-12
6.54821e-12
6.66527e-12
6.77769e-12
6.88561e-12
6.98912e-12
7.08836e-12
7.18342e-12
7.27444e-12
7.36151e-12
7.44476e-12
7.5243e-12
7.60023e-12
7.67266e-12
7.74169e-12
7.80744e-12
7.86999e-12
7.92945e-12
7.98591e-12
8.03945e-12
8.09018e-12
8.13817e-12
8.18351e-12
8.22628e-12
8.26656e-12
8.30441e-12
8.33992e-12
8.37315e-12
8.40418e-12
8.43305e-12
8.45984e-12
8.4846e-12
8.5074e-12
8.52829e-12
8.54731e-12
8.56453e-12
8.57998e-12
8.59372e-12
8.6058e-12
8.61625e-12
8.62512e-12
8.63244e-12
8.63826e-12
8.64261e-12
8.64554e-12
8.64706e-12
8.64722e-12
8.64605e-12
8.64358e-12
8.63984e-12
8.63486e-12
8.62866e-12
8.62127e-12
8.61272e-12
8.60304e-12
8.59224e-12
8.58035e-12
8.5674e-12
8.5534e-12
8.53839e-12
8.52237e-12
8.50537e-12
8.48741e-12
8.46851e-12
8.44869e-12
8.42796e-12
8.40635e-12
8.38387e-12
8.36055e-12
8.33638e-12
8.31141e-12
8.28563e-12
8.25907e-12
8.23174e-12
8.20366e-12
8.17485e-12
8.14531e-12
8.11506e-12
8.08413e-12
8.05251e-12
8.02024e-12
7.98731e-12
7.95376e-12
7.91958e-12
7.88479e-12
7.84941e-12
7.81345e-12
7.77693e-12
7.73985e-12
7.70224e-12
7.66409e-12
7.62544e-12
7.58628e-12
7.54664e-12
7.50652e-12
7.46593e-12
7.4249e-12
7.38343e-12
7.34153e-12
7.29922e-12
7.25651e-12
7.21342e-12
7.16994e-12
7.1261e-12
7.08191e-12
7.03737e-12
6.99251e-12
6.94732e-12
6.90183e-12
6.85605e-12
6.80998e-12
6.76364e-12
6.71704e-12
6.67019e-12
6.6231e-12
6.57579e-12
6.52825e-12
6.48051e-12
6.43258e-12
6.38446e-12
6.33617e-12
6.28771e-12
6.2391e-12
6.19035e-12
6.14146e-12
6.09245e-12
6.04333e-12
5.99411e-12
5.9448e-12
5.8954e-12
5.84593e-12
5.79639e-12
5.74681e-12
5.69717e-12
5.6475e-12
5.59781e-12
5.5481e-12
5.49838e-12
5.44865e-12
5.39894e-12
5.34925e-12
5.29958e-12
5.24995e-12
5.20036e-12
5.15082e-12
5.10134e-12
5.05193e-12
5.00259e-12
4.95333e-12
4.90417e-12
4.8551e-12
4.80614e-12
4.75729e-12
4.70856e-12
4.65995e-12
4.61148e-12
4.56315e-12
4.51496e-12
4.46693e-12
4.41906e-12
4.37135e-12
4.32381e-12
4.27646e-12
4.22928e-12
4.1823e-12
4.13551e-12
4.08892e-12
4.04253e-12
3.99636e-12
3.9504e-12
3.90467e-12
3.85916e-12
3.81388e-12
3.76884e-12
3.72404e-12
3.67948e-12
3.63517e-12
3.59111e-12
3.54731e-12
3.50378e-12
3.4605e-12
3.4175e-12
3.37477e-12
3.33231e-12
3.29013e-12
3.24823e-12
3.20662e-12
3.1653e-12
3.12426e-12
3.08353e-12
3.04308e-12
3.00294e-12
2.9631e-12
2.92356e-12
2.88432e-12
2.8454e-12
2.80678e-12
2.76848e-12
2.73049e-12
2.69281e-12
2.65545e-12
2.61841e-12
2.58169e-12
2.54529e-12
2.50921e-12
2.47346e-12
2.43803e-12
2.40292e-12
2.36814e-12
2.33369e-12
2.29956e-12
2.26576e-12
2.23229e-12
2.19915e-12
2.16634e-12
2.13385e-12
2.1017e-12
2.06987e-12
2.03837e-12
2.0072e-12
1.97636e-12
1.94585e-12
1.91567e-12
1.88581e-12
1.85628e-12
1.82708e-12
1.79821e-12
1.76966e-12
1.74143e-12
1.71353e-12
1.68595e-12
1.65869e-12
1.63176e-12
1.60514e-12
1.57884e-12
1.55286e-12
1.5272e-12
1.50185e-12
1.47681e-12
1.45209e-12
1.42768e-12
1.40358e-12
1.37978e-12
1.3563e-12
1.33311e-12
1.31023e-12
1.28766e-12
1.26538e-12
1.2434e-12
1.22171e-12
1.20033e-12
1.17923e-12
1.15842e-12
1.13791e-12
1.11768e-12
1.09773e-12
1.07807e-12
1.05869e-12
1.03959e-12
1.02077e-12
1.00222e-12
9.83943e-13
9.65938e-13
9.48201e-13
9.3073e-13
9.13524e-13
8.9658e-13
8.79895e-13
8.63469e-13
8.47298e-13
8.3138e-13
8.15713e-13
8.00295e-13
7.85124e-13
7.70197e-13
7.55512e-13
7.41067e-13
7.2686e-13
7.12888e-13
6.99149e-13
6.85641e-13
6.72362e-13
6.59309e-13
6.4648e-13
6.33873e-13
6.21486e-13
6.09316e-13
5.97361e-13
5.85619e-13
5.74088e-13
5.62766e-13
5.5165e-13
5.40738e-13
5.30028e-13
5.19518e-13
5.09206e-13
4.9909e-13
4.89167e-13
4.79435e-13
4.69893e-13
4.60538e-13
4.51368e-13
4.42382e-13
4.33577e-13
4.24951e-13
4.16502e-13
4.08229e-13
4.00129e-13
3.922e-13
3.84441e-13
3.7685e-13
3.69424e-13
3.62163e-13
3.55064e-13
3.48125e-13
3.41345e-13
3.34722e-13
3.28254e-13
3.2194e-13
3.15778e-13
3.09766e-13
3.03903e-13
2.98187e-13
2.92617e-13
2.87191e-13
2.81908e-13
2.76765e-13
2.71763e-13
2.66899e-13
2.62172e-13
2.57581e-13
2.53124e-13
2.488e-13
2.44608e-13
2.40547e-13
2.36615e-13
2.32812e-13
2.29135e-13
2.25585e-13
2.2216e-13
2.18859e-13
2.1568e-13
2.12624e-13
2.09689e-13
2.06875e-13
2.04179e-13
2.01603e-13
1.99144e-13
1.96802e-13
1.94576e-13
1.92466e-13
1.9047e-13
1.88589e-13
1.86822e-13
1.85168e-13
1.83626e-13
1.82197e-13
1.80879e-13
1.79673e-13
1.78578e-13
1.77593e-13
1.76718e-13
1.75953e-13
1.75298e-13
1.74752e-13
1.74316e-13
1.73989e-13
1.73771e-13
1.73662e-13
1.31432e-13
3.94035e-13
6.55857e-13
9.16392e-13
1.17515e-12
1.43167e-12
1.68551e-12
1.93627e-12
2.18357e-12
2.42707e-12
2.66646e-12
2.90146e-12
3.13183e-12
3.35734e-12
3.57783e-12
3.79312e-12
4.00311e-12
4.20767e-12
4.40674e-12
4.60026e-12
4.78819e-12
4.97053e-12
5.14728e-12
5.31845e-12
5.48409e-12
5.64423e-12
5.79895e-12
5.9483e-12
6.09238e-12
6.23125e-12
6.36503e-12
6.49381e-12
6.61769e-12
6.73678e-12
6.85119e-12
6.96103e-12
7.06642e-12
7.16746e-12
7.26429e-12
7.357e-12
7.44572e-12
7.53055e-12
7.61161e-12
7.68901e-12
7.76285e-12
7.83324e-12
7.90029e-12
7.96409e-12
8.02474e-12
8.08234e-12
8.13697e-12
8.18874e-12
8.23772e-12
8.284e-12
8.32767e-12
8.36879e-12
8.40745e-12
8.44372e-12
8.47768e-12
8.50938e-12
8.53889e-12
8.56628e-12
8.59161e-12
8.61493e-12
8.63631e-12
8.65579e-12