/*--------------------------------*- C++ -*----------------------------------*\
  =========                 |
  \\      /  F ield         | OpenFOAM: The Open Source CFD Toolbox
   \\    /   O peration     | Website:  https://openfoam.org
    \\  /    A nd           | Version:  10
     \\/     M anipulation  |
\*---------------------------------------------------------------------------*/
FoamFile
{
    format      ascii;
    class       surfaceScalarField;
    location    "2.5";
    object      phi;
}
// * * * * * * * * * * * * * * * * * * * * * * * * * * * * * * * * * * * * * //

dimensions      [1 0 -1 0 0 0 0];

internalField   nonuniform List<scalar> 
10325
(
0.00840003
4.33047e-11
0.00840002
7.18747e-10
0.00840007
1.03828e-09
0.00839992
7.02286e-09
0.00840023
8.92e-09
0.00839946
4.08922e-08
0.00840066
8.10623e-08
0.00839779
2.06329e-07
0.00840114
6.2214e-07
0.0083918
1.15994e-06
0.00839855
3.95002e-06
0.00837081
8.72343e-06
0.00834716
3.08483e-05
0.00821638
0.000108995
0.0075926
0.000558369
0.00691275
0.000703864
0.00627191
0.000646287
0.00561572
0.000655652
0.00493123
0.000684736
0.00420697
0.00072649
0.00344835
0.000764752
0.00265778
0.000798489
0.00182939
0.000836362
0.000949594
0.000887991
0.000954741
0.00840002
2.6116e-10
0.00840005
6.20944e-10
0.00839996
4.91151e-09
0.00840018
6.37218e-09
0.00839965
3.48307e-08
0.00840085
5.18931e-08
0.00839799
1.98029e-07
0.00840394
3.84122e-07
0.0083904
1.10031e-06
0.00841084
2.70447e-06
0.00837451
6.67415e-06
0.00839619
1.93794e-05
0.00833228
5.99348e-05
0.00822289
0.000218027
0.00762258
0.0010895
0.00693024
0.00141883
0.00630697
0.00127519
0.00566727
0.00129498
0.00499483
0.00135745
0.00427045
0.00145301
0.00350573
0.00153564
0.00269866
0.00161347
0.00184125
0.00170167
0.000934649
0.00180266
0.00189439
0.00840003
1.1678e-10
0.00840001
1.84467e-09
0.0084001
3.35674e-09
0.00839987
1.79641e-08
0.00840038
2.68337e-08
0.00839916
1.14512e-07
0.00840186
1.91174e-07
0.00839556
6.76294e-07
0.00840723
1.33185e-06
0.00838389
3.95679e-06
0.00841109
9.49096e-06
0.00836306
2.77753e-05
0.0083627
8.44622e-05
0.00824163
0.00030881
0.0077518
0.00151569
0.00706115
0.00213304
0.0064395
0.00190396
0.00580828
0.00192625
0.00514539
0.00202062
0.00442351
0.0021766
0.00365007
0.00231508
0.00281925
0.0024527
0.0019243
0.00260437
0.00097399
0.00276037
0.00287262
0.00840003
3.98952e-10
0.00840004
1.24721e-09
0.00839999
7.50637e-09
0.0084001
1.20542e-08
0.00839977
5.3712e-08
0.0084006
8.71409e-08
0.00839827
3.31975e-07
0.0084037
5.87786e-07
0.00839101
1.98216e-06
0.00841287
4.08621e-06
0.00837542
1.22762e-05
0.00840603
3.14408e-05
0.00835212
0.000102445
0.00830367
0.000360948
0.00800979
0.00174215
0.0073415
0.00282111
0.00669699
0.00255524
0.0060606
0.00256325
0.00539764
0.00268448
0.00467646
0.00290132
0.00388214
0.0031166
0.00301075
0.00333163
0.00206488
0.00355695
0.00105073
0.00378069
0.0039257
0.00840003
2.77746e-10
0.00840001
1.69959e-09
0.00840007
5.82798e-09
0.00839991
1.69071e-08
0.00840033
4.47324e-08
0.00839926
1.09991e-07
0.00840191
2.98476e-07
0.00839581
6.68123e-07
0.00840913
1.90907e-06
0.00838331
4.22435e-06
0.00842056
1.2167e-05
0.00837377
3.15539e-05
0.00840834
9.91607e-05
0.00839336
0.000346843
0.00847974
0.0016005
0.00783988
0.00347521
0.00708856
0.00331509
0.00641244
0.00324201
0.00572744
0.00337201
0.0049894
0.00364163
0.00416535
0.00394652
0.00325294
0.00424927
0.0022483
0.00456635
0.00115387
0.00488007
0.00508166
0.00840003
1.89977e-10
0.00840003
1.99892e-09
0.00840002
4.62682e-09
0.00840003
1.95233e-08
0.00840004
3.47514e-08
0.00839986
1.30386e-07
0.0084004
2.12358e-07
0.00839837
8.21716e-07
0.00840314
1.33221e-06
0.00839305
4.91959e-06
0.00840906
9.51195e-06
0.00839316
3.08449e-05
0.00841732
8.36885e-05
0.00845384
0.000294635
0.00873853
0.00128809
0.00815614
0.00404664
0.00735159
0.00411587
0.00666656
0.00392486
0.00600202
0.0040354
0.0052718
0.00437147
0.00443885
0.00478169
0.00350787
0.00518322
0.00246357
0.00561345
0.00129038
0.00605591
0.00637141
0.00840003
3.33715e-10
0.00840003
1.45387e-09
0.00840002
6.5317e-09
0.00840004
1.40051e-08
0.00839994
4.91557e-08
0.00840027
8.86202e-08
0.00839904
3.21479e-07
0.00840235
5.32113e-07
0.00839413
1.99151e-06
0.00841028
3.42952e-06
0.0083846
1.17527e-05
0.00841439
2.6279e-05
0.00838802
8.48645e-05
0.00841784
0.000273915
0.00848905
0.00118915
0.00810491
0.00440454
0.0073812
0.00482708
0.00680628
0.00449868
0.00620299
0.00463764
0.00550921
0.00506534
0.00471106
0.00558136
0.00378813
0.00610884
0.00272235
0.00668156
0.00147138
0.00730761
0.00783987
0.00840003
2.48644e-10
0.00840003
1.79269e-09
0.00840001
5.64597e-09
0.00840005
1.79145e-08
0.00839999
4.09992e-08
0.00839996
1.24203e-07
0.00840021
2.4291e-07
0.00839877
7.97461e-07
0.00840189
1.43587e-06
0.00839494
4.91065e-06
0.00840354
9.70879e-06
0.00839319
3.05017e-05
0.00839685
8.16036e-05
0.00838416
0.00027937
0.00841442
0.00114455
0.0079545
0.00483826
0.00758748
0.00518272
0.00699624
0.00509495
0.00634087
0.00529376
0.00572935
0.00567701
0.00499756
0.00631129
0.00412163
0.00698388
0.00306327
0.00773967
0.00175193
0.00861837
0.00958862
0.00840003
2.82835e-10
0.00840002
1.88624e-09
0.00840006
6.08178e-09
0.00839997
1.82872e-08
0.00840016
4.5634e-08
0.00839976
1.17346e-07
0.00840033
3.01444e-07
0.00839938
6.90809e-07
0.00839982
1.9233e-06
0.0083986
4.1891e-06
0.00839929
1.19931e-05
0.00839306
2.91043e-05
0.00839486
8.76121e-05
0.00838501
0.000280633
0.00839751
0.00112179
0.00805338
0.00515039
0.00760912
0.00562567
0.00711589
0.00559102
0.00657011
0.00583996
0.00598402
0.00626351
0.00533539
0.00696007
0.00454949
0.00777043
0.00359272
0.00869741
0.00223287
0.00997874
0.0118173
0.00840003
3.5493e-10
0.00840004
1.73663e-09
0.00839999
7.29722e-09
0.00840012
1.69548e-08
0.00839983
5.30806e-08
0.00840051
1.16005e-07
0.00839894
3.24673e-07
0.00840253
7.44783e-07
0.0083945
1.93723e-06
0.00840943
4.73633e-06
0.00838336
1.20188e-05
0.00841415
3.14754e-05
0.00837437
8.98621e-05
0.00838975
0.000287897
0.00838547
0.00110165
0.00820794
0.00529886
0.00773737
0.00609989
0.00728511
0.00604677
0.00684171
0.00628415
0.00633215
0.00677296
0.00580182
0.0074902
0.00519794
0.00837441
0.00434223
0.00955338
0.00306924
0.0112518
0.0148828
0.00840003
2.56026e-10
0.00840002
2.19627e-09
0.00840005
6.02397e-09
0.00839997
2.14929e-08
0.00840018
4.58705e-08
0.00839961
1.40628e-07
0.00840105
2.975e-07
0.00839755
8.53703e-07
0.00840577
1.88087e-06
0.00838834
5.1609e-06
0.00841768
1.21487e-05
0.00837366
3.33607e-05
0.00841439
9.05024e-05
0.00837328
0.000292061
0.00841237
0.00107084
0.00848986
0.00518274
0.00800507
0.00658937
0.00751897
0.0065365
0.00713592
0.00666827
0.00675348
0.00715547
0.00638101
0.00786241
0.00596649
0.00878843
0.00558583
0.00993311
0.00559884
0.0112369
0.0116475
0.00883078
0.00840003
3.23204e-10
0.00840003
1.90777e-09
0.00840002
6.82964e-09
0.00840006
1.86338e-08
0.00839993
5.06676e-08
0.00840028
1.24157e-07
0.00839931
3.23349e-07
0.00840182
7.76023e-07
0.00839574
2.00333e-06
0.00840932
4.83997e-06
0.00838351
1.26278e-05
0.0084209
3.19876e-05
0.00837965
9.00065e-05
0.00842328
0.000276725
0.00847158
0.00099676
0.00901779
0.00460338
0.00849174
0.00712311
0.00792174
0.00711271
0.00752282
0.00706988
0.00720052
0.00747879
0.00692192
0.00814145
0.00672377
0.00898649
0.00671216
0.00994439
0.00719544
0.0107533
0.0105789
0.00826087
0.00840003
2.7828e-10
0.00840004
1.71828e-09
0.00840001
6.02498e-09
0.00840008
1.67321e-08
0.00839991
4.48826e-08
0.00840038
1.11604e-07
0.00839933
2.84539e-07
0.00840202
6.91228e-07
0.00839642
1.76772e-06
0.00840957
4.27848e-06
0.00838722
1.1049e-05
0.00842684
2.78023e-05
0.00839564
7.62104e-05
0.00847974
0.000226846
0.00866685
0.000781541
0.00992001
0.00331591
0.00924744
0.00780339
0.0085714
0.00779464
0.00808271
0.00756127
0.00774898
0.00781409
0.00752932
0.00836216
0.00747482
0.00904189
0.00771066
0.00970855
0.0082817
0.0101831
0.00992207
0.00893783
0.00840003
2.47824e-10
0.00840004
1.37254e-09
0.00840001
5.29167e-09
0.00840008
1.34377e-08
0.00839994
3.89651e-08
0.00840032
9.06471e-08
0.00839954
2.40112e-07
0.00840159
5.74125e-07
0.00839766
1.42464e-06
0.0084074
3.58849e-06
0.00839222
8.62732e-06
0.00842516
2.25072e-05
0.00840533
5.80021e-05
0.00849696
0.000168007
0.00870558
0.000547646
0.00980951
0.00220283
0.00970422
0.00789896
0.0093064
0.00819209
0.00868408
0.00818392
0.00833648
0.00816306
0.00817799
0.00852215
0.00819568
0.00902597
0.00844593
0.0094582
0.00893708
0.00969299
0.00940577
0.00945368
0.00840003
1.89594e-10
0.00840003
1.32627e-09
0.00840005
4.17503e-09
0.0084
1.29451e-08
0.00840012
3.12631e-08
0.00839986
8.37439e-08
0.00840052
2.00951e-07
0.00839921
5.00974e-07
0.00840261
1.25741e-06
0.00839607
2.98473e-06
0.00841033
7.79446e-06
0.00839165
1.86433e-05
0.00842807
5.02754e-05
0.00842329
0.000138848
0.00854509
0.000446007
0.00902686
0.00169727
0.00975413
0.00714612
0.00948431
0.00845916
0.00911651
0.00854976
0.00882993
0.00844972
0.00872514
0.00862718
0.00878006
0.00897207
0.00900356
0.00923478
0.00940239
0.00929437
0.00898292
0.0098255
0.00840003
1.77431e-10
0.00840003
1.1132e-09
0.00840002
3.88662e-09
0.00840006
1.08597e-08
0.00839997
2.8668e-08
0.0084002
7.30615e-08
0.00839973
1.77318e-07
0.00840091
4.60745e-07
0.00839858
1.06567e-06
0.00840409
2.85273e-06
0.00839425
6.52514e-06
0.00841406
1.76765e-05
0.00839218
4.33425e-05
0.00843774
0.000123634
0.0084766
0.000378566
0.00880141
0.00137744
0.00987529
0.00604045
0.00974536
0.00858918
0.00948334
0.0088119
0.00924547
0.00868789
0.00917244
0.00870047
0.0092506
0.00889486
0.00944078
0.00904336
0.00974297
0.00899188
0.00865026
0.0100758
0.00840003
1.59151e-10
0.00840003
9.15088e-10
0.00840004
3.38527e-09
0.00840002
8.92881e-09
0.00840005
2.52957e-08
0.00840003
5.93164e-08
0.00840004
1.59934e-07
0.00840026
3.68445e-07
0.00839951
9.7971e-07
0.00840237
2.28183e-06
0.00839677
5.9834e-06
0.00841143
1.44615e-05
0.00839916
3.79934e-05
0.00843844
0.000101181
0.0084927
0.000306023
0.00882283
0.00105205
0.0105308
0.00429756
0.0102418
0.00887563
0.0100228
0.00903036
0.00970634
0.00900561
0.00959118
0.0088162
0.0096481
0.00883922
0.00981006
0.00888229
0.0100334
0.00876741
0.00841378
0.0102694
0.00840003
1.12528e-10
0.00840003
7.61074e-10
0.00840004
2.48533e-09
0.00840002
7.48407e-09
0.00840008
1.84816e-08
0.00839996
4.94445e-08
0.00840032
1.16726e-07
0.0083997
3.02195e-07
0.00840152
7.13063e-07
0.00839864
1.81995e-06
0.00840674
4.36958e-06
0.00839774
1.10367e-05
0.00842783
2.75177e-05
0.00842705
7.24067e-05
0.00855527
0.000204891
0.00892637
0.000661018
0.0106585
0.00255697
0.0108832
0.00863811
0.0106267
0.00928447
0.0102923
0.00933838
0.0100507
0.00905791
0.0100187
0.00887094
0.0101231
0.00877879
0.0102863
0.00860503
0.00824885
0.0104517
0.00840003
1.02911e-10
0.00840003
5.86741e-10
0.00840003
2.14789e-09
0.00840002
5.71008e-09
0.00840005
1.58457e-08
0.00840001
3.74969e-08
0.00840011
1.0056e-07
0.00840007
2.27258e-07
0.00840012
6.14304e-07
0.00840094
1.37185e-06
0.00839974
3.71552e-06
0.00840613
8.42449e-06
0.00840365
2.27048e-05
0.00842858
5.534e-05
0.0084658
0.000158557
0.00864657
0.000484713
0.00937709
0.0018113
0.0108763
0.00711223
0.0108644
0.00929369
0.0106712
0.00952982
0.0104338
0.00929519
0.0103619
0.00894368
0.0104073
0.00873499
0.0105067
0.00850743
0.00814444
0.0106118
0.00840003
7.29965e-11
0.00840003
4.92494e-10
0.00840003
1.6254e-09
0.00840003
4.81582e-09
0.00840004
1.20534e-08
0.00840003
3.20885e-08
0.00840011
7.50626e-08
0.0083999
1.99433e-07
0.00840074
4.55422e-07
0.00839894
1.21492e-06
0.00840482
2.76914e-06
0.00839427
7.43827e-06
0.00842258
1.74199e-05
0.00839314
4.71431e-05
0.00847151
0.000122939
0.00853793
0.000376258
0.00906237
0.00130336
0.0110843
0.00505369
0.0111702
0.00920245
0.0110959
0.00960075
0.0108768
0.00951355
0.0107109
0.0091127
0.0106843
0.00876401
0.010728
0.00846571
0.00809462
0.0107798
0.00840003
5.78997e-11
0.00840003
3.64051e-10
0.00840003
1.24031e-09
0.00840003
3.5526e-09
0.00840005
9.26196e-09
0.00840001
2.30008e-08
0.00840013
5.90088e-08
0.00839998
1.38109e-07
0.00840043
3.61616e-07
0.00840021
8.2082e-07
0.00840131
2.19316e-06
0.00840294
4.9307e-06
0.00840789
1.32486e-05
0.00842058
3.10464e-05
0.00846481
8.46181e-05
0.00859706
0.000232906
0.00914739
0.000753803
0.0113896
0.00279924
0.0117519
0.00882316
0.0116323
0.00971728
0.0113651
0.009779
0.0110945
0.00938474
0.0109734
0.00888687
0.0109526
0.00848902
0.00809249
0.0109568
0.00840003
4.01344e-11
0.00840003
2.78977e-10
0.00840003
9.03001e-10
0.00840003
2.72457e-09
0.00840003
6.69521e-09
0.00840005
1.80516e-08
0.00840005
4.16428e-08
0.00840005
1.10965e-07
0.0084003
2.51298e-07
0.00839978
6.65851e-07
0.00840239
1.52154e-06
0.00839816
3.97775e-06
0.00841363
9.30077e-06
0.00839841
2.41874e-05
0.00845407
5.98745e-05
0.0084833
0.000167276
0.00875675
0.000506924
0.00966947
0.00185793
0.0116648
0.00680245
0.0118329
0.00954844
0.0117187
0.0098931
0.011421
0.00968476
0.0112807
0.00902981
0.011193
0.00857866
0.00813423
0.0111538
0.00840003
3.25349e-11
0.00840003
1.98999e-10
0.00840003
7.03652e-10
0.00840003
1.94465e-09
0.00840003
5.21378e-09
0.00840005
1.28812e-08
0.00840001
3.24527e-08
0.00840017
7.90929e-08
0.00839987
1.95099e-07
0.008401
4.80834e-07
0.00839903
1.16679e-06
0.00840575
2.91165e-06
0.00839539
7.06671e-06
0.00842638
1.78887e-05
0.00840042
4.47362e-05
0.00849687
0.000119429
0.00860742
0.000347455
0.00930479
0.00117885
0.0117791
0.00428781
0.0120824
0.00923895
0.0121312
0.00984752
0.0119743
0.0098448
0.0116079
0.00939925
0.0114583
0.00873022
0.00823598
0.0113583
0.00840003
2.35603e-11
0.00840003
1.4181e-10
0.00840003
5.0879e-10
0.00840003
1.38974e-09
0.00840003
3.7433e-09
0.00840004
9.1895e-09
0.00840003
2.329e-08
0.0084001
5.62103e-08
0.00839998
1.39883e-07
0.00840063
3.37661e-07
0.00839954
8.32204e-07
0.00840409
2.03121e-06
0.00839756
4.97248e-06
0.00842185
1.23026e-05
0.00840146
3.05874e-05
0.00848864
7.88442e-05
0.00856797
0.000217578
0.00909538
0.00067887
0.0109312
0.00242967
0.012365
0.00778286
0.0124276
0.00978571
0.0122736
0.0100006
0.0119187
0.00975757
0.011755
0.00889654
0.00839521
0.0115972
0.00840003
1.69416e-11
0.00840003
1.01291e-10
0.00840003
3.63932e-10
0.00840003
9.8836e-10
0.00840003
2.69437e-09
0.00840003
6.50785e-09
0.00840004
1.68886e-08
0.00840005
3.96246e-08
0.00840006
1.01649e-07
0.00840029
2.38806e-07
0.00839996
6.08065e-07
0.00840211
1.43934e-06
0.00839909
3.6274e-06
0.00841291
8.78855e-06
0.00839996
2.20746e-05
0.00845629
5.56386e-05
0.0084825
0.000149044
0.00875439
0.000440561
0.00961628
0.00153724
0.0121462
0.00522657
0.0125191
0.00940912
0.0126228
0.0098993
0.012533
0.00984993
0.01209
0.00934261
0.00864077
0.0118467
0.00840003
1.08346e-11
0.00840003
7.23157e-11
0.00840003
2.38713e-10
0.00840003
7.06906e-10
0.00840003
1.77002e-09
0.00840003
4.61611e-09
0.00840005
1.10435e-08
0.00840002
2.79228e-08
0.00840016
6.6617e-08
0.00840002
1.6565e-07
0.00840059
3.98519e-07
0.00840047
9.76511e-07
0.00840204
2.39463e-06
0.00840483
5.77664e-06
0.00841109
1.4455e-05
0.00843177
3.54534e-05
0.00848923
9.21952e-05
0.00866992
0.000253976
0.00940226
0.000802078
0.0118596
0.00275691
0.0129237
0.0083281
0.0129392
0.00988421
0.0127932
0.00999759
0.0124181
0.00971996
0.00889605
0.0121644
0.00840003
8.05793e-12
0.00840003
4.78111e-11
0.00840003
1.71752e-10
0.00840003
4.67148e-10
0.00840003
1.26365e-09
0.00840003
3.0636e-09
0.00840004
7.89116e-09
0.00840004
1.85274e-08
0.00840006
4.75027e-08
0.00840014
1.10469e-07
0.00840008
2.82581e-07
0.00840095
6.61028e-07
0.00839992
1.67374e-06
0.00840614
3.97185e-06
0.00840003
9.99485e-06
0.00843135
2.43558e-05
0.00842855
6.23562e-05
0.00855412
0.000164757
0.00882257
0.000494483
0.00988594
0.00170646
0.0125882
0.0055891
0.0129915
0.00947397
0.0131328
0.00985509
0.0129894
0.00986356
0.0093179
0.0125697
0.00840003
5.02646e-12
0.00840003
3.24292e-11
0.00840003
1.10085e-10
0.00840003
3.16565e-10
0.00840003
8.10969e-10
0.00840003
2.07076e-09
0.00840004
5.03207e-09
0.00840003
1.25028e-08
0.00840009
3.00687e-08
0.00840001
7.39945e-08
0.0084004
1.78695e-07
0.00839999
4.36222e-07
0.00840204
1.05717e-06
0.00840036
2.57576e-06
0.00841009
6.28618e-06
0.00840726
1.5384e-05
0.00845006
3.8313e-05
0.00848733
9.8051e-05
0.00873751
0.000271623
0.00956927
0.000852555
0.0123092
0.00284079
0.0133653
0.00840026
0.0133675
0.00984998
0.0132958
0.00993352
0.00968963
0.0129232
0.00840003
3.16612e-12
0.00840003
2.20123e-11
0.00840003
7.0878e-11
0.00840003
2.1503e-10
0.00840003
5.2586e-10
0.00840003
1.40088e-09
0.00840004
3.26807e-09
0.00840003
8.43092e-09
0.00840007
1.96084e-08
0.00840002
4.97828e-08
0.00840026
1.16866e-07
0.0084
2.92477e-07
0.00840126
6.9973e-07
0.00840018
1.71364e-06
0.008406
4.19868e-06
0.00840366
1.01751e-05
0.00842863
2.55282e-05
0.00844246
6.3517e-05
0.00856843
0.000169972
0.0088916
0.000501293
0.0100206
0.00171895
0.0129148
0.00546451
0.0134132
0.00934226
0.0135887
0.00975433
0.00983714
0.0134388
0.00840003
2.2639e-12
0.00840003
1.33788e-11
0.00840003
4.86077e-11
0.00840003
1.30926e-10
0.00840003
3.56225e-10
0.00840003
8.58904e-10
0.00840003
2.1911e-09
0.00840004
5.19033e-09
0.00840004
1.30067e-08
0.00840008
3.08206e-08
0.00840004
7.61797e-08
0.00840036
1.82208e-07
0.00840002
4.45764e-07
0.00840223
1.07521e-06
0.00839991
2.61463e-06
0.00841294
6.35582e-06
0.00840345
1.55284e-05
0.00846277
3.85194e-05
0.00848326
9.81158e-05
0.00876542
0.000269438
0.00960603
0.000838532
0.0123375
0.00272916
0.0136638
0.0079939
0.0137128
0.009701
0.00976967
0.0137769
0.00840003
1.40947e-12
0.00840003
8.83094e-12
0.00840003
3.0421e-11
0.00840003
8.6182e-11
0.00840003
2.24534e-10
0.00840003
5.58801e-10
0.00840003
1.39968e-09
0.00840003
3.33471e-09
0.00840004
8.37356e-09
0.00840004
1.96237e-08
0.00840008
4.96322e-08
0.00840016
1.15139e-07
0.00840015
2.92356e-07
0.00840106
6.80511e-07
0.00840027
1.7119e-06
0.00840691
4.04594e-06
0.00840174
1.01094e-05
0.00843721
2.44659e-05
0.00843583
6.2163e-05
0.00858931
0.000161582
0.0089011
0.000475429
0.0100629
0.00158781
0.013067
0.0049475
0.0137575
0.00899864
0.00960468
0.0139199
0.00840003
8.34518e-13
0.00840003
5.69254e-12
0.00840003
1.86286e-11
0.00840003
5.55207e-11
0.00840003
1.37362e-10
0.00840003
3.61212e-10
0.00840003
8.47802e-10
0.00840003
2.16265e-09
0.00840004
5.05485e-09
0.00840003
1.26485e-08
0.00840009
2.99783e-08
0.00840003
7.34636e-08
0.0084004
1.77243e-07
0.00840007
4.26809e-07
0.00840208
1.04709e-06
0.00840066
2.48364e-06
0.00841094
6.19038e-06
0.00840726
1.46717e-05
0.00845529
3.72381e-05
0.00848801
9.22795e-05
0.00874493
0.000253528
0.00953468
0.000770548
0.0119921
0.00248131
0.013814
0.00715372
0.00947635
0.0139374
0.00840003
5.50534e-13
0.00840003
3.41975e-12
0.00840003
1.20503e-11
0.00840003
3.33665e-11
0.00840003
8.82894e-11
0.00840003
2.18567e-10
0.00840003
5.39156e-10
0.00840003
1.32551e-09
0.00840003
3.16341e-09
0.00840004
7.86491e-09
0.00840004
1.84307e-08
0.00840008
4.64464e-08
0.00840015
1.07424e-07
0.0084002
2.72143e-07
0.00840098
6.30729e-07
0.00840052
1.58805e-06
0.00840653
3.72272e-06
0.00840282
9.31202e-06
0.00843647
2.23401e-05
0.00843788
5.65379e-05
0.0085901
0.000144761
0.00889283
0.000415953
0.0100492
0.00134593
0.0130345
0.00411782
0.0084699
0.0140262
0.00840003
3.42181e-13
0.00840003
2.08595e-12
0.00840003
7.40922e-12
0.00840003
2.03291e-11
0.00840003
5.45761e-11
0.00840003
1.32163e-10
0.00840003
3.37083e-10
0.00840003
7.90904e-10
0.00840003
1.9902e-09
0.00840004
4.66809e-09
0.00840003
1.1617e-08
0.00840008
2.74385e-08
0.00840004
6.74582e-08
0.00840036
1.61697e-07
0.00840009
3.91109e-07
0.0084019
9.52776e-07
0.00840072
2.27232e-06
0.00841024
5.62935e-06
0.0084063
1.33579e-05
0.00845217
3.37414e-05
0.00847617
8.30506e-05
0.00870516
0.000224138
0.009355
0.000665157
0.0113374
0.0021275
0.00598597
0.0137881
0.00840003
2.00766e-13
0.00840003
1.28059e-12
0.00840003
4.36033e-12
0.00840003
1.24991e-11
0.00840003
3.207e-11
0.00840003
8.07367e-11
0.00840003
1.9795e-10
0.00840003
4.79281e-10
0.00840003
1.17525e-09
0.00840003
2.79342e-09
0.00840004
6.88229e-09
0.00840004
1.62244e-08
0.00840008
4.02409e-08
0.00840015
9.41243e-08
0.00840021
2.3387e-07
0.00840092
5.48979e-07
0.00840073
1.35421e-06
0.00840606
3.20994e-06
0.00840381
7.87502e-06
0.00843516
1.90107e-05
0.00843849
4.71303e-05
0.0085869
0.000119647
0.00886635
0.000330438
0.0099884
0.00102878
0.00306871
0.0128531
0.00840003
1.14469e-13
0.00840003
7.7571e-13
0.00840003
2.55397e-12
0.00840003
7.55808e-12
0.00840003
1.87746e-11
0.00840003
4.90168e-11
0.00840003
1.15182e-10
0.00840003
2.91754e-10
0.00840003
6.81973e-10
0.00840003
1.6926e-09
0.00840004
4.01394e-09
0.00840003
9.76383e-09
0.00840008
2.35209e-08
0.00840005
5.63305e-08
0.00840028
1.37764e-07
0.00840024
3.24604e-07
0.00840116
8.06952e-07
0.008402
1.87588e-06
0.00840471
4.72606e-06
0.00841423
1.09644e-05
0.00842752
2.79846e-05
0.00848722
6.72106e-05
0.00862474
0.000179622
0.00915179
0.000510305
0.00163286
0.0105658
0.00840003
7.11857e-14
0.00840003
4.37474e-13
0.00840003
1.55446e-12
0.00840003
4.27029e-12
0.00840003
1.13798e-11
0.00840003
2.78088e-11
0.00840003
6.91254e-11
0.00840003
1.67214e-10
0.00840003
4.016e-10
0.00840003
9.85981e-10
0.00840003
2.31279e-09
0.00840004
5.76923e-09
0.00840005
1.33284e-08
0.00840006
3.35097e-08
0.00840016
7.71555e-08
0.00840014
1.9371e-07
0.00840093
4.47727e-07
0.00840045
1.11478e-06
0.00840571
2.61048e-06
0.00840265
6.43352e-06
0.00843231
1.53433e-05
0.00842737
3.79815e-05
0.00856275
9.46551e-05
0.0087575
0.000253205
0.000754327
0.00967237
0.00840003
4.1651e-14
0.00840003
2.55242e-13
0.00840003
8.96308e-13
0.00840003
2.48811e-12
0.00840003
6.55484e-12
0.00840003
1.60521e-11
0.00840003
4.02703e-11
0.00840003
9.47424e-11
0.00840003
2.37558e-10
0.00840003
5.48709e-10
0.00840003
1.37976e-09
0.00840004
3.17727e-09
0.00840003
7.9575e-09
0.00840007
1.84159e-08
0.00840005
4.56791e-08
0.00840026
1.07096e-07
0.00840014
2.61381e-07
0.00840134
6.23962e-07
0.00840089
1.49283e-06
0.00840704
3.63978e-06
0.00840642
8.58683e-06
0.0084358
2.13937e-05
0.00845562
5.11917e-05
0.00860566
0.000133095
0.000361924
0.00895691
0.00840003
2.22645e-14
0.00840003
1.50934e-13
0.00840003
4.97109e-13
0.00840003
1.46918e-12
0.00840003
3.64566e-12
0.00840003
9.48265e-12
0.00840003
2.21966e-11
0.00840003
5.63453e-11
0.00840003
1.29969e-10
0.00840003
3.26892e-10
0.00840003
7.54526e-10
0.00840003
1.88077e-09
0.00840004
4.38794e-09
0.00840003
1.07555e-08
0.00840008
2.55746e-08
0.00840007
6.14229e-08
0.0084003
1.48875e-07
0.00840035
3.50413e-07
0.0084012
8.67751e-07
0.00840264
2.00499e-06
0.00840517
5.04628e-06
0.00841741
1.16247e-05
0.00843139
2.96621e-05
0.00850361
7.06397e-05
0.000188687
0.00866025
0.00840003
1.38192e-14
0.00840003
8.1479e-14
0.00840003
2.94835e-13
0.00840003
7.94419e-13
0.00840003
2.15122e-12
0.00840003
5.12883e-12
0.00840003
1.31236e-11
0.00840003
3.03443e-11
0.00840003
7.65145e-11
0.00840003
1.76494e-10
0.00840003
4.39898e-10
0.00840003
1.02346e-09
0.00840003
2.51524e-09
0.00840004
5.94848e-09
0.00840004
1.43215e-08
0.00840009
3.45289e-08
0.00840011
8.15573e-08
0.0084003
2.0025e-07
0.00840069
4.64389e-07
0.00840122
1.1569e-06
0.00840465
2.66058e-06
0.00840573
6.68208e-06
0.00842885
1.54229e-05
0.00844078
3.92173e-05
9.44889e-05
0.00856225
0.00840003
7.0793e-15
0.00840003
4.76376e-14
0.00840003
1.57392e-13
0.00840003
4.62551e-13
0.00840003
1.15341e-12
0.00840003
2.9746e-12
0.00840003
7.02382e-12
0.00840003
1.75288e-11
0.00840003
4.10531e-11
0.00840003
1.00808e-10
0.00840003
2.37912e-10
0.00840003
5.7534e-10
0.00840003
1.37493e-09
0.00840003
3.2752e-09
0.00840005
7.92871e-09
0.00840005
1.86733e-08
0.00840011
4.54907e-08
0.00840016
1.06486e-07
0.00840038
2.61009e-07
0.00840097
6.07227e-07
0.00840161
1.4908e-06
0.00840635
3.48292e-06
0.00840809
8.52795e-06
0.0084386
2.02054e-05
5.00754e-05
0.00845781
0.00840003
4.09278e-15
0.00840003
2.53881e-14
0.00840003
9.00409e-14
0.00840003
2.47519e-13
0.00840003
6.56025e-13
0.00840003
1.60627e-12
0.00840003
3.95045e-12
0.00840003
9.5707e-12
0.00840003
2.27431e-11
0.00840003
5.56671e-11
0.00840003
1.29771e-10
0.00840003
3.21187e-10
0.00840003
7.3919e-10
0.00840003
1.84352e-09
0.00840004
4.23176e-09
0.00840004
1.04882e-08
0.00840008
2.43372e-08
0.00840007
5.95212e-08
0.00840033
1.39968e-07
0.00840029
3.36963e-07
0.00840155
8.06946e-07
0.00840206
1.90449e-06
0.00840694
4.66622e-06
0.00841495
1.08471e-05
2.72052e-05
0.00843643
0.00840003
2.16184e-15
0.00840003
1.40002e-14
0.00840003
4.87657e-14
0.00840003
1.37143e-13
0.00840003
3.54496e-13
0.00840003
8.79892e-13
0.00840003
2.16093e-12
0.00840003
5.14266e-12
0.00840003
1.26434e-11
0.00840003
2.93828e-11
0.00840003
7.28677e-11
0.00840003
1.67759e-10
0.00840003
4.16872e-10
0.00840003
9.58412e-10
0.00840003
2.37633e-09
0.00840004
5.49329e-09
0.00840004
1.34893e-08
0.0084001
3.1555e-08
0.00840009
7.64086e-08
0.0084004
1.81428e-07
0.00840046
4.3222e-07
0.00840177
1.04438e-06
0.00840324
2.44668e-06
0.00840823
6.02677e-06
1.40002e-05
0.00842086
0.00840003
1.17926e-15
0.00840003
7.69575e-15
0.00840003
2.58591e-14
0.00840003
7.46465e-14
0.00840003
1.90451e-13
0.00840003
4.78721e-13
0.00840003
1.14904e-12
0.00840003
2.82716e-12
0.00840003
6.61121e-12
0.00840003
1.63167e-11
0.00840003
3.76709e-11
0.00840003
9.32853e-11
0.00840003
2.14792e-10
0.00840003
5.29876e-10
0.00840003
1.22671e-09
0.00840003
2.99951e-09
0.00840005
7.01356e-09
0.00840004
1.69452e-08
0.00840012
4.0112e-08
0.00840012
9.55283e-08
0.0084005
2.29431e-07
0.00840063
5.38032e-07
0.00840234
1.30965e-06
0.00840434
3.03778e-06
7.47722e-06
0.00841132
0.00840003
6.72314e-16
0.00840003
3.91795e-15
0.00840003
1.4268e-14
0.00840003
3.86271e-14
0.00840003
1.03217e-13
0.00840003
2.48807e-13
0.00840003
6.2547e-13
0.00840003
1.46031e-12
0.00840003
3.61572e-12
0.00840003
8.37891e-12
0.00840003
2.05521e-11
0.00840003
4.79546e-11
0.00840003
1.16087e-10
0.00840003
2.74242e-10
0.00840003
6.53877e-10
0.00840003
1.5679e-09
0.00840003
3.68131e-09
0.00840005
8.92384e-09
0.00840006
2.07663e-08
0.00840011
5.06718e-08
0.00840023
1.1707e-07
0.00840037
2.86746e-07
0.00840134
6.62169e-07
0.00840161
1.61451e-06
3.76405e-06
0.00840835
0.00840003
4.33329e-16
0.00840003
2.24007e-15
0.00840003
7.35347e-15
0.00840003
2.14082e-14
0.00840003
5.30318e-14
0.00840003
1.3539e-13
0.00840003
3.20014e-13
0.00840003
7.87991e-13
0.00840003
1.85424e-12
0.00840003
4.4733e-12
0.00840003
1.06364e-11
0.00840003
2.51671e-11
0.00840003
6.08631e-11
0.00840003
1.41364e-10
0.00840003
3.46565e-10
0.00840003
7.96079e-10
0.00840003
1.96531e-09
0.00840004
4.49623e-09
0.00840004
1.10743e-08
0.00840009
2.551e-08
0.00840008
6.21797e-08
0.00840036
1.44868e-07
0.00840037
3.48187e-07
0.00840174
8.24196e-07
1.94877e-06
0.00840243
0.00840003
1.25198e-16
0.00840003
1.01029e-15
0.00840003
3.79945e-15
0.00840003
1.02471e-14
0.00840003
2.78587e-14
0.00840003
6.79974e-14
0.00840003
1.67366e-13
0.00840003
3.99135e-13
0.00840003
9.58e-13
0.00840003
2.28733e-12
0.00840003
5.39948e-12
0.00840003
1.30469e-11
0.00840003
3.02854e-11
0.00840003
7.40924e-11
0.00840003
1.70007e-10
0.00840003
4.19249e-10
0.00840003
9.56729e-10
0.00840003
2.35924e-09
0.00840004
5.40378e-09
0.00840004
1.32377e-08
0.00840011
3.05299e-08
0.0084001
7.40361e-08
0.00840044
1.73145e-07
0.00840048
4.1285e-07
9.80545e-07
0.00840218
0.00840003
1.08908e-16
0.00840003
5.62403e-16
0.00840003
1.91232e-15
0.00840003
4.93919e-15
0.00840003
1.34144e-14
0.00840003
3.27471e-14
0.00840003
8.12147e-14
0.00840003
1.92323e-13
0.00840003
4.66544e-13
0.00840003
1.09169e-12
0.00840003
2.63862e-12
0.00840003
6.14589e-12
0.00840003
1.48375e-11
0.00840003
3.45355e-11
0.00840003
8.30987e-11
0.00840003
1.93945e-10
0.00840003
4.63876e-10
0.00840003
1.08614e-09
0.00840003
2.58811e-09
0.00840005
6.05774e-09
0.00840005
1.43944e-08
0.00840013
3.37753e-08
0.00840013
7.96912e-08
0.00840053
1.87316e-07
4.40009e-07
0.00840069
0.00840003
1.08854e-16
0.00840003
3.44234e-16
0.00840003
7.79758e-16
0.00840003
2.44328e-15
0.00840003
5.2741e-15
0.00840003
1.37252e-14
0.00840003
3.12151e-14
0.00840003
7.96606e-14
0.00840003
1.78192e-13
0.00840003
4.48328e-13
0.00840003
1.01188e-12
0.00840003
2.47988e-12
0.00840003
5.71766e-12
0.00840003
1.36323e-11
0.00840003
3.22935e-11
0.00840003
7.41521e-11
0.00840003
1.81328e-10
0.00840003
4.0365e-10
0.00840003
1.00315e-09
0.00840004
2.1948e-09
0.00840004
5.48329e-09
0.00840008
1.19034e-08
0.00840007
2.94614e-08
0.00840031
6.45095e-08
1.55339e-07
0.00840033
0.00840003
0.00840003
0.00840003
0.00840003
0.00840003
0.00840003
0.00840003
0.00840003
0.00840003
0.00840003
0.00840003
0.00840003
0.00840003
0.00840003
0.00840003
0.00840003
0.00840003
0.00840003
0.00840003
0.00840003
0.00840004
0.00840004
0.0084001
0.00840005
0.00840047
0.00476422
0.0040626
0.00314731
0.0016145
0.0024569
0.000688846
0.00218036
0.000275555
0.00216338
1.56541e-05
0.00235383
-0.00019125
0.00257269
-0.00021954
0.00269359
-0.000121717
0.00273366
-4.1238e-05
0.00272722
5.22585e-06
0.00270459
2.13003e-05
0.00269165
1.15151e-05
0.00268907
1.15324e-06
0.00269793
-1.03828e-05
0.00270969
-1.30449e-05
0.00271927
-1.10033e-05
0.00272526
-7.26123e-06
0.00272821
-4.25217e-06
0.0027295
-2.53376e-06
0.00272985
-1.50545e-06
0.0027305
-1.75903e-06
0.00273212
-2.76268e-06
0.00273476
-3.70814e-06
0.00273765
-3.92842e-06
0.00274021
-3.72903e-06
0.00274242
-3.40948e-06
0.00274414
-3.10901e-06
0.00274369
-2.37156e-06
0.00274228
-1.44645e-06
0.00273867
9.06755e-08
0.00273031
3.36399e-06
0.00271305
8.63967e-06
0.00267716
1.90005e-05
0.00259979
4.22265e-05
0.00242513
9.93311e-05
0.0019911
0.000260606
0.000838237
0.000781359
-0.000301339
0.00107723
-0.000946946
0.00063694
-0.00126065
0.000314094
-0.00131604
6.58457e-05
-0.00116405
-0.000141072
-0.000867588
-0.000304429
-0.000495994
-0.000388718
-8.36188e-05
-0.000430192
0.000321615
-0.000422229
0.000689022
-0.000381336
0.00102704
-0.000348559
0.00134104
-0.000322962
0.00163381
-0.000300642
0.00190735
-0.000280589
0.00216147
-0.000259925
0.00239935
-0.000242398
0.00262956
-0.000230872
0.00285285
-0.000220186
0.003067
-0.00020686
0.0032689
-0.000193696
0.00345848
-0.000181697
0.00363676
-0.000171483
0.00380384
-0.000161569
0.00396055
-0.000152309
0.00410668
-0.000143041
0.00424362
-0.000134185
0.00437199
-0.00012538
0.00449245
-0.000117021
0.0046052
-0.000108773
0.00471008
-0.000101006