/*--------------------------------*- C++ -*----------------------------------*\
  =========                 |
  \\      /  F ield         | OpenFOAM: The Open Source CFD Toolbox
   \\    /   O peration     | Website:  https://openfoam.org
    \\  /    A nd           | Version:  10
     \\/     M anipulation  |
\*---------------------------------------------------------------------------*/
FoamFile
{
    format      ascii;
    class       volScalarField;
    location    "2.5";
    object      T;
}
// * * * * * * * * * * * * * * * * * * * * * * * * * * * * * * * * * * * * * //

dimensions      [0 0 0 1 0 0 0];

internalField   nonuniform List<scalar> 
5250
(
1
1.00002
1.00003
1.00011
1.00021
1.00064
1.00131
1.00383
1.00838
1.0229
1.05526
1.14884
1.39873
2.01973
2.64758
2.77726
2.75256
2.7462
2.75912
2.77661
2.78819
2.79205
2.79596
2.79754
2.80981
1
1.00001
1.00004
1.00009
1.00025
1.00053
1.00154
1.00322
1.00932
1.02072
1.05658
1.14364
1.39283
2.00288
2.64189
2.77665
2.75139
2.74447
2.75723
2.77469
2.78639
2.79048
2.79463
2.79634
2.80871
1
1.00001
1.00003
1.0001
1.00021
1.0006
1.00125
1.00367
1.00778
1.02194
1.05166
1.14062
1.37442
1.96831
2.62831
2.77417
2.74781
2.7396
2.75215
2.76963
2.78236
2.78679
2.79069
2.79244
2.80495
1
1.00001
1.00003
1.00009
1.00021
1.00052
1.00132
1.0031
1.00818
1.01922
1.05078
1.12959
1.35289
1.91327
2.60559
2.76905
2.74164
2.73228
2.74497
2.7625
2.77497
2.78005
2.78595
2.78818
2.80061
1
1.00001
1.00003
1.00008
1.00019
1.00051
1.00113
1.00317
1.00689
1.01921
1.04487
1.12162
1.32145
1.84306
2.57277
2.76006
2.73213
2.7203
2.73269
2.75075
2.76541
2.77117
2.77639
2.77921
2.79301
1
1.00001
1.00003
1.00007
1.00019
1.00042
1.00116
1.00266
1.0069
1.01675
1.04262
1.10983
1.29392
1.77425
2.53321
2.74833
2.72115
2.70922
2.72097
2.73909
2.75297
2.76202
2.76709
2.76823
2.77941
1
1.00001
1.00003
1.00007
1.00016
1.00043
1.00102
1.00253
1.00634
1.01544
1.0395
1.10077
1.27064
1.71905
2.48862
2.73575
2.7127
2.702
2.71137
2.72709
2.73951
2.74557
2.75194
2.75263
2.76241
1
1.00001
1.00003
1.00006
1.00017
1.00036
1.001
1.00224
1.00594
1.01407
1.03642
1.09215
1.2473
1.66065
2.43081
2.71352
2.70404
2.69653
2.70075
2.71163
2.72392
2.72819
2.73062
2.72954
2.73344
1
1.00001
1.00002
1.00006
1.00013
1.00038
1.00079
1.00227
1.00498
1.01351
1.03199
1.08468
1.22233
1.59741
2.35329
2.6827
2.69559
2.68902
2.68907
2.69644
2.70546
2.70724
2.70527
2.69686
2.68687
1
1.00001
1.00002
1.00005
1.00014
1.00029
1.00084
1.00174
1.0051
1.01092
1.03037
1.0732
1.19924
1.53016
2.25614
2.64377
2.68669
2.67935
2.67428
2.67731
2.68135
2.67915
2.66884
2.64315
2.58614
1
1.00001
1.00002
1.00005
1.00011
1.00028
1.00064
1.00177
1.00386
1.01082
1.02449
1.06633
1.16976
1.46177
2.13184
2.59202
2.67628
2.66734
2.66005
2.65967
2.65819
2.6493
2.62569
2.57178
2.45648
1
1.00001
1.00001
1.00004
1.00009
1.00023
1.00058
1.00139
1.00363
1.00837
1.02231
1.05384
1.14454
1.38431
1.98013
2.5263
2.65938
2.64963
2.63895
2.63614
2.63066
2.61454
2.57784
2.50354
2.37009
1
1
1.00001
1.00003
1.00008
1.00018
1.00051
1.0011
1.00309
1.00669
1.0186
1.0433
1.11682
1.30629
1.79939
2.44106
2.6317
2.62549
2.61582
2.60962
2.60101
2.58
2.53801
2.45686
2.3374
1
1
1.00001
1.00002
1.00007
1.00015
1.00042
1.00088
1.00254
1.00537
1.01515
1.03458
1.09321
1.24092
1.63863
2.33914
2.59236
2.59668
2.58962
2.57987
2.56815
2.5432
2.50304
2.4279
2.32268
1
1
1.00001
1.00002
1.00005
1.00014
1.00029
1.00085
1.00174
1.00515
1.01094
1.03039
1.07295
1.19735
1.5206
2.21088
2.54172
2.57471
2.5661
2.55492
2.54049
2.51114
2.47364
2.40775
2.31443
1
1
1.00001
1.00002
1.00004
1.0001
1.00028
1.00057
1.00169
1.00349
1.01006
1.0224
1.06075
1.15389
1.41591
2.02765
2.4655
2.5535
2.54605
2.53156
2.5159
2.48447
2.44593
2.39211
2.31214
1
1
1
1.00001
1.00003
1.00009
1.00019
1.00052
1.00117
1.00302
1.00728
1.0182
1.04567
1.11794
1.31398
1.81061
2.3628
2.52225
2.52393
2.50901
2.492
2.46269
2.42211
2.37189
2.30671
1
1
1
1.00001
1.00002
1.00007
1.00014
1.00041
1.00082
1.00245
1.00506
1.01437
1.03259
1.0875
1.22382
1.59062
2.23024
2.47164
2.49307
2.48309
2.4648
2.44069
2.40426
2.35708
2.29789
1
1
1
1.00001
1.00002
1.00005
1.00011
1.0003
1.00065
1.00178
1.00406
1.01052
1.02537
1.06515
1.16885
1.44744
2.06311
2.40811
2.46572
2.45789
2.43941
2.41573
2.38447
2.34305
2.29195
1
1
1
1.00001
1.00002
1.00003
1.00009
1.00021
1.00052
1.00128
1.00305
1.00788
1.01853
1.04856
1.1221
1.32745
1.83285
2.30354
2.4317
2.43388
2.42011
2.39478
2.36436
2.32625
2.28166
1
1
1
1
1.00001
1.00003
1.00006
1.00017
1.00034
1.00098
1.00208
1.0057
1.01294
1.0339
1.08328
1.21935
1.57026
2.15833
2.376
2.40237
2.39451
2.3736
2.34497
2.31161
2.27089
1
1
1
1
1.00001
1.00002
1.00005
1.0001
1.00028
1.00065
1.0016
1.00395
1.0095
1.02421
1.05942
1.1559
1.40748
1.97429
2.30704
2.37202
2.36786
2.3509
2.32387
2.29445
2.25921
1
1
1
1
1.00001
1.00001
1.00003
1.00008
1.0002
1.00044
1.0012
1.00257
1.00725
1.01579
1.04315
1.10477
1.28086
1.71663
2.19017
2.3307
2.34044
2.3293
2.30658
2.27736
2.24654
1
1
1
1
1
1.00001
1.00002
1.00005
1.00013
1.00031
1.00079
1.00182
1.00482
1.0108
1.02888
1.06879
1.18214
1.47312
2.02009
2.26616
2.30824
2.30328
2.28614
2.25963
2.22971
1
1
1
1
1
1.00001
1.00001
1.00004
1.00008
1.00022
1.00052
1.00128
1.00317
1.00753
1.01932
1.04647
1.12141
1.31419
1.78476
2.16562
2.27035
2.27765
2.2681
2.24628
2.21635
1
1
1
1
1
1
1.00001
1.00003
1.00005
1.00016
1.00031
1.00091
1.00191
1.00523
1.01178
1.03074
1.07454
1.19421
1.50207
2.00918
2.21214
2.24604
2.2427
2.2261
2.20218
1
1
1
1
1
1
1.00001
1.00002
1.00004
1.0001
1.00022
1.00056
1.00136
1.00326
1.00821
1.01945
1.04982
1.12463
1.32769
1.79264
2.12472
2.21151
2.21857
2.21014
2.19004
1
1
1
1
1
1
1
1.00001
1.00002
1.00006
1.00014
1.00038
1.00078
1.00228
1.00465
1.01312
1.02917
1.07746
1.19225
1.50209
1.97257
2.15797
2.18868
2.18701
2.17202
1
1
1
1
1
1
1
1.00001
1.00002
1.00004
1.00009
1.00025
1.0005
1.00147
1.00297
1.00849
1.01851
1.0496
1.12088
1.31906
1.76241
2.0756
2.15666
2.16482
2.15706
1
1
1
1
1
1
1
1
1.00001
1.00002
1.00006
1.00014
1.00035
1.0008
1.0021
1.00461
1.01243
1.02797
1.07369
1.18205
1.4742
1.92116
2.1029
2.13528
2.13478
1
1
1
1
1
1
1
1
1.00001
1.00002
1.00003
1.00009
1.00021
1.00052
1.00126
1.003
1.00756
1.01767
1.04546
1.11157
1.29231
1.70212
2.01614
2.10234
2.11319
1
1
1
1
1
1
1
1
1
1.00001
1.00002
1.00006
1.00012
1.00034
1.0007
1.00199
1.00405
1.01152
1.02498
1.06685
1.1629
1.42576
1.85164
2.0427
2.08089
1
1
1
1
1
1
1
1
1
1.00001
1.00001
1.00003
1.00008
1.00018
1.00047
1.0011
1.00265
1.0066
1.01547
1.0395
1.09608
1.25004
1.60904
1.94126
2.04555
1
1
1
1
1
1
1
1
1
1
1.00001
1.00002
1.00005
1.00011
1.00029
1.0006
1.00171
1.00347
1.00992
1.02116
1.05702
1.13715
1.3594
1.7597
1.97451
1
1
1
1
1
1
1
1
1
1
1
1.00001
1.00003
1.00007
1.00015
1.00038
1.0009
1.00217
1.00536
1.01246
1.03178
1.07586
1.19551
1.48505
1.84495
1
1
1
1
1
1
1
1
1
1
1
1.00001
1.00001
1.00004
1.00008
1.00024
1.00048
1.00135
1.00289
1.00761
1.01744
1.04426
1.10842
1.27907
1.63892
1
1
1
1
1
1
1
1
1
1
1
1
1.00001
1.00002
1.00005
1.00012
1.00029
1.00073
1.00164
1.0043
1.00938
1.02505
1.05711
1.1485
1.37159
1
1
1
1
1
1
1
1
1
1
1
1
1.00001
1.00001
1.00003
1.00007
1.00018
1.00037
1.00103
1.0021
1.00597
1.01248
1.0337
1.07805
1.20304
1
1
1
1
1
1
1
1
1
1
1
1
1
1.00001
1.00002
1.00004
1.00008
1.00024
1.00049
1.00135
1.00292
1.00758
1.01743
1.04383
1.10683
1
1
1
1
1
1
1
1
1
1
1
1
1
1
1.00001
1.00002
1.00005
1.00011
1.00031
1.00066
1.00169
1.00394
1.00946
1.02307
1.05555
1
1
1
1
1
1
1
1
1
1
1
1
1
1
1
1.00001
1.00003
1.00007
1.00015
1.00039
1.00086
1.00215
1.00507
1.01208
1.02965
1
1
1
1
1
1
1
1
1
1
1
1
1
1
1
1.00001
1.00001
1.00004
1.00008
1.00022
1.00044
1.00123
1.00254
1.00684
1.01512
1
1
1
1
1
1
1
1
1
1
1
1
1
1
1
1
1.00001
1.00002
1.00005
1.0001
1.00027
1.00055
1.00153
1.00323
1.0085
1
1
1
1
1
1
1
1
1
1
1
1
1
1
1
1
1
1.00001
1.00002
1.00006
1.00012
1.00034
1.00068
1.00187
1.00395
1
1
1
1
1
1
1
1
1
1
1
1
1
1
1
1
1
1
1.00001
1.00003
1.00007
1.00016
1.00039
1.00091
1.00212
1
1
1
1
1
1
1
1
1
1
1
1
1
1
1
1
1
1
1.00001
1.00001
1.00004
1.00008
1.00021
1.00043
1.0012
1
1
1
1
1
1
1
1
1
1
1
1
1
1
1
1
1
1
1
1.00001
1.00002
1.00005
1.0001
1.00026
1.00053
1
1
1
1
1
1
1
1
1
1
1
1
1
1
1
1
1
1
1
1
1.00001
1.00002
1.00006
1.00012
1.00033
1
1
1
1
1
1
1
1
1
1
1
1
1
1
1
1
1
1
1
1
1.00001
1.00001
1.00004
1.00007
1.00021
1
1
1
1
1
1
1
1
1
1
1
1
1
1
1
1
1
1
1
1
1
1.00001
1.00003
1.00006
1.00015
2.24019
2.07394
2.02416
2.05707
2.11967
2.19431
2.26365
2.29619
2.30234
2.30082
2.29769
2.2977
2.29907
2.30213
2.3047
2.30737
2.30796
2.30779
2.3076
2.30717
2.3065
2.30597
2.30539
2.30453
2.30349
2.3025
2.30141
2.30164
2.30242
2.3039
2.30751
2.31633
2.33669
2.38266
2.483
2.68366
2.94837
3.12168
3.10752
3.12845
3.15088
3.18441
3.21625
3.22681
3.22885
3.2278
3.22231
3.21413
3.2025
3.19284
3.17851
3.16319
3.14814
3.13325
3.11528
3.09976
3.07992
3.06464
3.04473
3.02898
3.00908
2.99324
2.97424
2.95855
2.93934
2.92339
2.90396
2.88854
2.86969
2.85529
2.83743
2.82414
2.80741
2.79517
2.7795
2.76835
2.7536
2.74354
2.72964
2.72066
2.70755
2.6995
2.6871
2.67979
2.668
2.66124
2.64982
2.64337
2.63203
2.62583
2.61426
2.60791
2.59599
2.58961
2.57756
2.57145
2.55985
2.55501
2.54632
2.54714
2.23412
2.13804
2.08587
2.05067
2.01528
1.98742
1.98055
1.98448
1.99831
2.0181
2.0324
2.03802
2.0376
2.03646
2.03568
2.03576
2.03604
2.03668
2.03742
2.03731
2.03717
2.0368
2.036
2.03494
2.03399
2.03289
2.03219
2.03181
2.03211
2.03307
2.03597
2.04323
2.06039
2.09969
2.18873
2.39123
2.69337
3.00605
3.05739
3.09174
3.11328
3.11957
3.10728
3.08873
3.06056
3.03779
3.01104
2.98831
2.9633
2.93954
2.9132
2.89112
2.86692
2.84564
2.82057
2.79816
2.7745
2.75345
2.73064
2.7099
2.68745
2.66836
2.64752
2.63016
2.60997
2.5934
2.57335
2.55766
2.53812
2.52368
2.50483
2.49151
2.47337
2.46103
2.44383
2.43249
2.4164
2.40605
2.39103
2.38156
2.36749
2.35879
2.34565
2.33756
2.32533
2.31776
2.30639
2.29925
2.2887
2.28197
2.27226
2.26605
2.25711
2.25132
2.24294
2.23755
2.22997
2.22574
2.22084
2.22352
2.23504
2.14803
2.06907
1.99402
1.92431
1.87025
1.8449
1.84356
1.84763
1.85994
1.87548
1.88865
1.89523
1.89796
1.89762
1.89738
1.8969
1.89678
1.89681
1.89689
1.8969
1.89682
1.89655
1.89604
1.89512
1.89411
1.89353
1.89279
1.89297
1.89369
1.8954
1.90009
1.91142
1.93796
1.99969
2.14047
2.39751
2.77196
2.87489
2.93475
2.96051
2.95403
2.92671
2.90128
2.86919
2.84613
2.81797
2.79674
2.77023
2.75076
2.72648
2.70794
2.68448
2.66537
2.64053
2.62154
2.59951
2.58319
2.56289
2.54792
2.52776
2.51274
2.49223
2.47779
2.45797
2.44436
2.42551
2.41268
2.39525
2.38367
2.3676
2.35694
2.34138
2.33084
2.31533
2.30476
2.2895
2.2792
2.26442
2.25455
2.24037
2.231
2.21737
2.20862
2.19575
2.18762
2.17553
2.16791
2.15653
2.14923
2.13845
2.13157
2.12136
2.11507
2.10545
2.09986
2.09097
2.0867
2.08003
2.08138
2.22869
2.14263
2.06117
1.98732
1.92167
1.86832
1.82667
1.79723
1.78132
1.77791
1.77947
1.78587
1.79489
1.80397
1.80845
1.81044
1.80999
1.80941
1.8083
1.80733
1.80685
1.80669
1.80659
1.80636
1.80577
1.80511
1.80373
1.80261
1.80251
1.80277
1.80364
1.80657
1.8139
1.83139
1.87217
1.96455
2.18623
2.47303
2.70453
2.8148
2.82143
2.80522
2.76705
2.72943
2.69519
2.66703
2.64164
2.62574
2.60492
2.58706
2.5653
2.54922
2.52923
2.51604
2.49692
2.48317
2.4638
2.4505
2.43225
2.42031
2.40381
2.39297
2.37742
2.36722
2.35233
2.3425
2.32758
2.31741
2.30217
2.29191
2.27709
2.26752
2.25363
2.24479
2.23139
2.2227
2.20929
2.20054
2.18707
2.17831
2.16493
2.15636
2.14326
2.13503
2.12227
2.11446
2.10207
2.09468
2.08262
2.07556
2.06376
2.05705
2.0455
2.03927
2.02803
2.02249
2.01181
2.00745
1.99872
1.99887
2.22271
2.14003
2.06363
1.99331
1.92994
1.8729
1.82342
1.78209
1.75039
1.73021
1.7226
1.72267
1.72455
1.7301
1.73685
1.74314
1.74665
1.74883
1.74881
1.74863
1.74824
1.74744
1.74692
1.74645
1.74606
1.74585
1.74533
1.7449
1.74446
1.74463
1.74528
1.74718
1.75209
1.76399
1.79175
1.8559
2.00123
2.27343
2.60949
2.74222
2.73887
2.71384
2.66009
2.60678
2.56256
2.528
2.49674
2.4757
2.4612
2.45086
2.4363
2.42509
2.40861
2.39855
2.38555
2.37711
2.36251
2.35123
2.33622
2.32664
2.31306
2.30387
2.29046
2.28181
2.26931
2.26132
2.24899
2.24086
2.22832
2.22025
2.20797
2.20033
2.18834
2.18086
2.16875
2.16114
2.14881
2.14118
2.12897
2.1217
2.1097
2.10268
2.09078
2.08395
2.07214
2.06557
2.05394
2.0477
2.03619
2.03018
2.0187
2.01274
2.0013
1.99532
1.98415
1.9782
1.96761
1.96224
1.95343
1.95186
2.22534
2.14438
2.07014
2.00195
1.93983
1.8839
1.83427
1.79077
1.7544
1.72487
1.70217
1.68798
1.68195
1.68197
1.68328
1.68737
1.69269
1.69824
1.70155
1.70349
1.70337
1.70305
1.7024
1.70113
1.6998
1.6991
1.69807
1.69757
1.69712
1.69726
1.6978
1.69925
1.70309
1.71232
1.73353
1.78234
1.89056
2.14126
2.41879
2.70633
2.70308
2.65018
2.56803
2.49851
2.44811
2.40922
2.38141
2.36055
2.34495
2.33376
2.32735
2.32332
2.31834
2.31331
2.30423
2.2985
2.28901
2.28177
2.27069
2.26398
2.25341
2.2466
2.23594
2.22928
2.21849
2.21137
2.19974
2.19203
2.1802
2.17274
2.16147
2.1547
2.14388
2.13751
2.12668
2.12022
2.10917
2.10271
2.09161
2.08531
2.07418
2.06795
2.05663
2.05035
2.03883
2.03257
2.02104
2.0149
2.0035
1.99735
1.98613
1.97979
1.96871
1.96214
1.95129
1.94459
1.93424
1.9279
1.91919
1.91642
2.23088
2.15452
2.08259
2.01704
1.95565
1.90059
1.84971
1.80494
1.76443
1.72983
1.70059
1.67692
1.66014
1.65034
1.64685
1.64688
1.64806
1.65129
1.65527
1.659
1.6612
1.66238
1.66232
1.66216
1.66168
1.66102
1.66006
1.65919
1.65904
1.65917
1.65964
1.66111
1.66484
1.67348
1.69305
1.73655
1.82993
2.03226
2.27333
2.57157
2.57821
2.5438
2.4923
2.42568
2.36879
2.33122
2.30164
2.28206
2.2688
2.26144
2.25666
2.25428
2.25455
2.25388
2.25168
2.24783
2.24261
2.23866
2.23041
2.22467
2.21511
2.20892
2.19906
2.19288
2.18272
2.17635
2.16579
2.15921
2.14856
2.14208
2.13148
2.12511
2.11444
2.10803
2.09712
2.09065
2.07958
2.07321
2.06217
2.05607
2.04512
2.03921
2.02826
2.02234
2.01138
2.00538
1.9946
1.98856
1.9781
1.97202
1.96181
1.95556
1.94549
1.93897
1.92906
1.92238
1.91275
1.90641
1.89804
1.89518
2.23119
2.16238
2.09494
2.03171
1.9727
1.918
1.86807
1.82206
1.78107
1.74379
1.71157
1.68371
1.66097
1.6427
1.62992
1.62245
1.6197
1.61975
1.62077
1.62355
1.62707
1.63059
1.63287
1.63387
1.63365
1.6332
1.63228
1.63094
1.63052
1.63064
1.63129
1.63335
1.63849
1.65024
1.67624
1.73181
1.84342
2.01573
2.17575
2.32898
2.43583
2.44915
2.43046
2.39944
2.35005
2.3146
2.27729
2.25017
2.23121
2.21966
2.2128
2.20845
2.20538
2.20494
2.20547
2.20486
2.20278
2.20078
2.19688
2.19299
2.18476
2.17905
2.16926
2.16308
2.15279
2.14642
2.13611
2.12986
2.11956
2.11329
2.10279
2.09638
2.08566
2.07924
2.0684
2.06201
2.0511
2.04491
2.03414
2.02828
2.01769
2.01199
2.0014
1.99561
1.98502
1.97912
1.9687
1.96282
1.95269
1.94691
1.93698
1.93119
1.92138
1.91538
1.90565
1.89954
1.88999
1.88428
1.8759
1.87367
2.23188
2.16944
2.10702
2.04702
1.99036
1.93723
1.888
1.84243
1.80068
1.76272
1.72837
1.69794
1.67102
1.64827
1.62961
1.61504
1.60528
1.59996
1.59832
1.59845
1.59938
1.60175
1.60436
1.60673
1.60823
1.60901
1.60919
1.60906
1.60914
1.60954
1.61097
1.61473
1.62363
1.64356
1.68672
1.77923
1.92206
2.04588
2.11525
2.18451
2.26058
2.33065
2.35945
2.3485
2.33187
2.30794
2.27246
2.24448
2.21761
2.19803
2.184
2.175
2.16888
2.16527
2.16287
2.16292
2.16313
2.16251
2.1608
2.15865
2.15376
2.14913
2.13972
2.13375
2.1237
2.11774
2.10798
2.10226
2.09238
2.08645
2.07623
2.07014
2.05964
2.05337
2.04262
2.03633
2.02552
2.01935
2.00858
2.00259
1.992
1.98622
1.97582
1.97009
1.95986
1.95408
1.94403
1.93831
1.92844
1.92286
1.91315
1.90765
1.89815
1.89265
1.8833
1.87781
1.8686
1.86346
1.85522
1.85342
2.22949
2.17333
2.11615
2.05986
2.00621
1.95506
1.90736
1.8626
1.82124
1.7829
1.74795
1.71596
1.68742
1.66185
1.63984
1.62112
1.6062
1.59435
1.58672
1.58242
1.58126
1.58144
1.58236
1.58452
1.58723
1.58972
1.59144
1.59241
1.59315
1.59471
1.59817
1.60577
1.62242
1.65827
1.73869
1.86529
1.99738
2.05799
2.08137
2.10378
2.13519
2.17967
2.23065
2.26218
2.28131
2.27065
2.25797
2.24053
2.21215
2.19052
2.16941
2.153
2.14143
2.13482
2.12924
2.12667
2.12539
2.12492
2.12458
2.12361
2.12138
2.11886
2.11326
2.10866
2.09936
2.09344
2.08357
2.07799
2.06824
2.06252
2.05255
2.04686
2.03683
2.03111
2.02078
2.0148
2.00415
1.99809
1.98747
1.98161
1.97131
1.96559
1.9555
1.94963
1.93957
1.93356
1.92365
1.91792
1.90838
1.90303
1.89377
1.8885
1.87926
1.87384
1.86454
1.85912
1.84993
1.84493
1.83672
1.83501
2.22549
2.17487
2.12303
2.07097
2.02017
1.97178
1.92557
1.88234
1.84179
1.8039
1.76889
1.73638
1.70678
1.67965
1.65547
1.63381
1.61525
1.59941
1.58693
1.57714
1.57102
1.56759
1.56686
1.56707
1.56793
1.56979
1.57227
1.57495
1.57777
1.5816
1.58873
1.60362
1.63493
1.70393
1.82131
1.96439
2.03797
2.05739
2.06022
2.06121
2.0667
2.08032
2.10658
2.13803
2.17473
2.19905
2.21459
2.20576
2.19647
2.1829
2.15984
2.1441
2.12792
2.11512
2.10536
2.09959
2.09401
2.09139
2.09031
2.08983
2.08897
2.08794
2.08577
2.08259
2.07539
2.06981
2.06
2.05428
2.04459
2.03923
2.02967
2.02446
2.01483
2.00944
1.99937
1.99357
1.98313
1.97714
1.96674
1.96082
1.95078
1.94505
1.93542
1.92976
1.92028
1.91453
1.90499
1.89924
1.88981
1.88432
1.87517
1.86993
1.86093
1.85569
1.84664
1.84135
1.83234
1.82748
1.8194
1.81788
2.21735
2.17326
2.12588
2.07844
2.03137
1.98514
1.94158
1.89905
1.86001
1.82236
1.78793
1.75519
1.72522
1.69719
1.67172
1.64836
1.62758
1.60903
1.59331
1.5799
1.5696
1.56142
1.5565
1.55387
1.55373
1.5542
1.55563
1.5588
1.56377
1.57138
1.58517
1.61328
1.6715
1.78252
1.92871
2.02054
2.04537
2.04776
2.04243
2.03517
2.02856
2.0254
2.02715
2.03747
2.05857
2.08663
2.11902
2.14117
2.15596
2.15107
2.14534
2.13542
2.11714
2.10284
2.0891
2.07865
2.06916
2.0637
2.05923
2.05676
2.05518
2.0543
2.05261
2.05087
2.04692
2.04303
2.03465
2.02976
2.02063
2.01568
2.00642
2.00143
1.99203
1.98687
1.97711
1.97148
1.96142
1.9557
1.94599
1.94056
1.93129
1.92584
1.91655
1.91076
1.90127
1.89534
1.88588
1.88019
1.871
1.86572
1.85683
1.85184
1.84309
1.83816
1.82938
1.82438
1.8155
1.81082
1.80269
1.80125
2.21034
2.16995
2.12753
2.08333
2.04043
1.99735
1.95591
1.91583
1.87743
1.84114
1.80667
1.77453
1.74417
1.71617
1.68984
1.66583
1.64341
1.62348
1.60506
1.58946
1.57532
1.56438
1.55501
1.54886
1.54494
1.54466
1.54547
1.54804
1.55391
1.5661
1.5909
1.64129
1.74267
1.88642
1.99798
2.03606
2.04257
2.03609
2.02653
2.01432
1.99949
1.98738
1.98
1.97941
1.98172
1.9921
2.01302
2.03687
2.06351
2.08522
2.09731
2.09905
2.09504
2.08732
2.07581
2.06364
2.05143
2.04243
2.03338
2.02763
2.0226
2.0199
2.0183
2.01755
2.01601
2.01382
2.00876
2.00477
1.9965
1.99162
1.98233
1.97712
1.96771
1.96263
1.95351
1.94857
1.93938
1.93397
1.92445
1.91874
1.90938
1.90386
1.89485
1.88941
1.88036
1.87476
1.86556
1.86006
1.85103
1.84603
1.83737
1.83274
1.82421
1.8196
1.81096
1.80634
1.79759
1.79333
1.7853
1.78407
2.19879
2.16298
2.12585
2.08601
2.04517
2.00565
1.96636
1.92846
1.8918
1.85672
1.82313
1.79154
1.76135
1.73331
1.70664
1.68226
1.65891
1.63833
1.61827
1.60139
1.58505
1.57186
1.55965
1.55061
1.54344
1.54132
1.54219
1.54553
1.55411
1.57339
1.61448
1.70138
1.8394
1.96733
2.02255
2.0351
2.029
2.01976
2.00724
1.99232
1.9759
1.96121
1.94884
1.9396
1.93492
1.93303
1.93472
1.94327
1.96089
1.98214
2.00658
2.02881
2.04295
2.05216
2.0479
2.04382
2.03611
2.02543
2.01327
2.00554
1.9975
1.99263
1.98805
1.98579
1.98393
1.98256
1.97949
1.97653
1.97032
1.96637
1.9584
1.9541
1.9455
1.94043
1.93101
1.92547
1.91606
1.91075
1.90172
1.89659
1.88779
1.88268
1.87394
1.86883
1.86002
1.85477
1.84569
1.84039
1.83124
1.82631
1.81757
1.81318
1.80485
1.80065
1.79224
1.78795
1.77933
1.77529
1.76741
1.76632
2.18766
2.15651
2.12262
2.0869
2.04992
2.01187
1.97561
1.93927
1.90451
1.87081
1.83844
1.80717
1.77797
1.7495
1.72319
1.69831
1.67454
1.65343
1.63238
1.61456
1.59673
1.58206
1.56769
1.55685
1.54743
1.54492
1.5464
1.55182
1.56593
1.59818
1.67059
1.79343
1.93061
2.00329
2.02377
2.02023
2.01062
1.99895
1.98479
1.96799
1.95212
1.93708
1.92354
1.911
1.90011
1.89195
1.88761
1.88658
1.88829
1.89505
1.9099
1.92901
1.95062
1.97191
1.99071
2.00106
2.00664
2.00307
1.99799
1.99205
1.9812
1.97261
1.96412
1.95898
1.95361
1.95189
1.95019
1.94862
1.94506
1.94182
1.93496
1.9307
1.92222
1.91757
1.90881
1.90375
1.89464
1.88939
1.8804
1.8754
1.86677
1.86194
1.85336
1.84848
1.83978
1.83487
1.82602
1.82111
1.81218
1.80731
1.79856
1.79408
1.7858
1.78171
1.77358
1.76949
1.76122
1.75724
1.7494
1.74826
2.17499
2.1467
2.11601
2.08366
2.05076
2.01608
1.98066
1.94742
1.91346
1.88128
1.85066
1.81989
1.79201
1.76404
1.73809
1.7134
1.68939
1.66789
1.64629
1.6278
1.60878
1.5934
1.57736
1.56562
1.55566
1.55504
1.55805
1.56768
1.5921
1.64766
1.75844
1.89876
1.98354
2.01054
2.00992
2.00227
1.98983
1.97637
1.95921
1.94339
1.92825
1.91413
1.89986
1.88664
1.87462
1.86411
1.85513
1.84779
1.84307
1.84037
1.84151
1.84605
1.85845
1.8754
1.89728
1.92047
1.9414
1.95709
1.9663
1.9659
1.96325
1.95853
1.94822
1.93984
1.93101
1.92575
1.91991
1.91766
1.91493
1.91313
1.90932
1.9062
1.89967
1.89563
1.88749
1.88282
1.87404
1.86901
1.86014
1.85525
1.84672
1.84222
1.83392
1.82943
1.82092
1.81618
1.80742
1.80263
1.79393
1.7893
1.78078
1.77634
1.76808
1.76389
1.75588
1.75189
1.74388
1.74007
1.73244
1.7311
2.16379
2.13696
2.1099
2.08012
2.04904
2.01806
1.98555
1.95233
1.92269
1.88934
1.86138
1.83118
1.80347
1.77731
1.75044
1.72762
1.70249
1.68205
1.65948
1.64095
1.62146
1.60477
1.58935
1.57567
1.56992
1.57133
1.57771
1.59559
1.63868
1.73276
1.87161
1.96938
2.00208
2.00573
1.99592
1.98479
1.96775
1.95074
1.93288
1.91808
1.90395
1.89061
1.87823
1.86595
1.85403
1.84183
1.83023
1.81953
1.80999
1.80316
1.79734
1.79557
1.79648
1.79933
1.80803
1.82363
1.84391
1.8671
1.89099
1.91182
1.92479
1.93193
1.92953
1.9243
1.91714
1.90925
1.89841
1.89245
1.88656
1.88473
1.88113
1.87894
1.8743
1.87099
1.86423
1.86027
1.85233
1.84794
1.8396
1.83499
1.82658
1.82208
1.81393
1.80971
1.80159
1.79719
1.78875
1.78408
1.77551
1.77096
1.76275
1.75849
1.75066
1.7466
1.73878
1.73486
1.72702
1.72331
1.71607
1.71469
2.1494
2.12445
2.0992
2.07291
2.04463
2.01508
1.98794
1.95533
1.92673
1.89755
1.86741
1.84182
1.81259
1.78864
1.76207
1.73895
1.71584
1.69342
1.67345
1.65239
1.63496
1.61629
1.60215
1.59
1.589
1.59351
1.60691
1.64063
1.71975
1.85006
1.95899
2.00095
2.00499
1.99583
1.98075
1.96453
1.9443
1.92752
1.91024
1.89633
1.88246
1.86993
1.85684
1.84406
1.83111
1.8192
1.80742
1.79642
1.7856
1.77551
1.76651
1.75872
1.75248
1.74974
1.7502
1.75223
1.75923
1.77419
1.79367
1.81803
1.84254
1.86713
1.88495
1.89638
1.89536
1.89202
1.88688
1.87838
1.86824
1.86279
1.85635
1.85345
1.84846
1.84572
1.84006
1.8366
1.82975
1.82601
1.81859
1.81469
1.80701
1.8028
1.79482
1.79045
1.78247
1.77811
1.77002
1.7655
1.75724
1.75263
1.74458
1.74035
1.73275
1.72897
1.72157
1.71785
1.71035
1.70665
1.69958
1.69833
2.13839
2.11347
2.08908
2.06482
2.04035
2.01212
1.98595
1.95896
1.92946
1.90293
1.87494
1.84781
1.82291
1.79629
1.77377
1.74854
1.72751
1.70466
1.68452
1.66473
1.64555
1.62963
1.61428
1.60989
1.61314
1.62354
1.65033
1.71716
1.83571
1.95561
2.00696
2.01237
2.00082
1.98608
1.96583
1.94593
1.92473
1.90831
1.89119
1.87739
1.86179
1.84768
1.83392
1.82124
1.80958
1.7977
1.78646
1.77473
1.76362
1.75214
1.74141
1.73117
1.72261
1.71551
1.71069
1.70844
1.70815
1.70938
1.71424
1.72613
1.74418
1.76707
1.79581
1.82425
1.84793
1.86481
1.86591
1.86304
1.85788
1.84937
1.83914
1.83321
1.82574
1.82195
1.81622
1.81327
1.80752
1.80434
1.79805
1.79464
1.78779
1.78413
1.77675
1.77258
1.76459
1.76005
1.75202
1.74756
1.73964
1.7352
1.72733
1.72304
1.71545
1.71161
1.70441
1.70086
1.69371
1.69028
1.68337
1.6821
2.12178
2.10072
2.07689
2.05299
2.03125
2.00657
1.98094
1.95669
1.93141
1.90488
1.87983
1.85429
1.82891
1.8054
1.78075
1.75923
1.73574
1.71602
1.694
1.67591
1.65701
1.64153
1.63294
1.63388
1.64258
1.66516
1.71911
1.8323
1.95856
2.0192
2.02608
2.01503
1.99656
1.97618
1.95123
1.92967
1.90911
1.89276
1.87547
1.86046
1.84386
1.82996
1.81557
1.8028
1.78993
1.77785
1.76553
1.75366
1.74157
1.73041
1.7195
1.70995
1.70066
1.69238
1.68413
1.67659
1.67062
1.66604
1.66451
1.66559
1.66957
1.68042
1.69772
1.72205
1.75278
1.78418
1.81436
1.83388
1.83568
1.8328
1.82783
1.81974
1.80965
1.8038
1.79602
1.79203
1.7861
1.78303
1.77727
1.77416
1.76809
1.76482
1.75825
1.7547
1.74754
1.74344
1.73554
1.73101
1.72308
1.71867
1.71099
1.7068
1.69933
1.69541
1.68817
1.68464
1.67763
1.67437
1.66785
1.6666
2.10667
2.08941
2.06779
2.04348
2.02296
2.00073
1.97771
1.9538
1.92974
1.9065
1.88112
1.85803
1.83394
1.81033
1.78823
1.76506
1.74472
1.72295
1.70433
1.68444
1.66908
1.65648
1.6566
1.66366
1.68301
1.72849
1.83069
1.96482
2.03564
2.0456
2.03324
2.01556
1.9913
1.96558
1.93894
1.91744
1.89653
1.8795
1.86096
1.84614
1.82993
1.81657
1.80109
1.78721
1.7725
1.75922
1.74621
1.73424
1.7228
1.71189
1.70149
1.69105
1.68098
1.67066
1.66101
1.65151
1.6431
1.63554
1.63004
1.62548
1.62441
1.62533
1.62841
1.63692
1.65354
1.67774
1.7109
1.74519
1.78158
1.80333
1.80633
1.80381
1.79884
1.79102
1.78103
1.77489
1.76671
1.76246
1.75624
1.75309
1.74755
1.74471
1.73906
1.736
1.72975
1.72628
1.71922
1.71502
1.70717
1.70265
1.69492
1.69072
1.68334
1.67955
1.6724
1.66888
1.66198
1.65873
1.65249
1.65147
2.08407
2.07398
2.05692
2.03355
2.01216
1.99208
1.97105
1.94997
1.92762
1.9053
1.88302
1.85966
1.83753
1.81497
1.79283
1.77177
1.7501
1.73112
1.71082
1.69512
1.68063
1.67872
1.6848
1.70139
1.74143
1.83042
1.969
2.05279
2.06697
2.05584
2.03602
2.01204
1.98224
1.95525
1.92976
1.90854
1.88721
1.86897
1.85014
1.8344
1.81715
1.80236
1.78603
1.77152
1.75643
1.74243
1.72902
1.71637
1.70451
1.69308
1.68216
1.67143
1.66102
1.65086
1.64098
1.63155
1.62237
1.61377
1.60538
1.59813
1.59192
1.58694
1.58591
1.58674
1.58934
1.59754
1.6143
1.63881
1.67457
1.71279
1.75228
1.7742
1.77763
1.77506
1.76972
1.76197
1.75264
1.74665
1.73861
1.73447
1.72826
1.72532
1.71983
1.71702
1.7114
1.7083
1.70197
1.69839
1.69112
1.68678
1.67901
1.67474
1.66734
1.66358
1.65663
1.6532
1.64653
1.64333
1.63714
1.63634
2.06205
2.05846
2.04518
2.02521
2.00364
1.98375
1.96377
1.9436
1.92327
1.90224
1.88145
1.86079
1.83905
1.81795
1.79725
1.77613
1.75635
1.73669
1.71966
1.70387
1.70054
1.70587
1.72034
1.75598
1.83263
1.97319
2.0701
2.09049
2.07955
2.06136
2.03417
2.0039
1.97349
1.94778
1.9229
1.9014
1.87979
1.86109
1.84165
1.82463
1.80606
1.79032
1.77281
1.75854
1.74259
1.72896
1.71458
1.7018
1.6891
1.67736
1.66563
1.65447
1.64346
1.63304
1.62284
1.613
1.60328
1.59377
1.58462
1.57594
1.56799
1.56124
1.55557
1.55146
1.55087
1.55174
1.55412
1.56178
1.57799
1.60191
1.63923
1.68251
1.72452
1.74428
1.74897
1.74659
1.7416
1.73366
1.72496
1.71938
1.71164
1.7075
1.70131
1.69837
1.69265
1.68975
1.68393
1.68076
1.67435
1.6707
1.66347
1.65931
1.65191
1.64799
1.64107
1.63768
1.63117
1.62816
1.62212
1.62143
2.02828
2.03612
2.03051
2.01561
1.99566
1.97586
1.95747
1.93822
1.91925
1.89966
1.87944
1.85964
1.83983
1.81937
1.79972
1.78046
1.76087
1.74363
1.728
1.72178
1.72597
1.73963
1.77159
1.84066
1.9784
2.08803
2.1149
2.10557
2.08548
2.05747
2.02421
1.99419
1.96573
1.94138
1.91714
1.89606
1.87406
1.85473
1.83416
1.81616
1.79695
1.78024
1.76211
1.74677
1.73029
1.71671
1.70212
1.68887
1.67519
1.66226
1.64992
1.63823
1.62718
1.61639
1.60596
1.5957
1.58571
1.57606
1.56671
1.55783
1.54932
1.54142
1.53399
1.52772
1.52195
1.51801
1.51691
1.51764
1.51981
1.52715
1.54311
1.56882
1.60623
1.65365
1.69975
1.71608
1.7209
1.71853
1.71395
1.70622
1.69789
1.6926
1.68501
1.68106
1.67494
1.6719
1.66602
1.66302
1.657
1.65376
1.64728
1.64369
1.63679
1.63295
1.62603
1.62251
1.61603
1.6131
1.60719
1.60674
1.98459
2.01148
2.01253
2.00383
1.98694
1.96685
1.94799
1.9301
1.91185
1.89401
1.87553
1.85645
1.83815
1.81932
1.80033
1.78215
1.76516
1.7496
1.74232
1.74541
1.75827
1.78844
1.85736
1.98277
2.10143
2.13648
2.12941
2.11039
2.0799
2.04688
2.01453
1.98648
1.95956
1.93586
1.91213
1.89046
1.86815
1.84801
1.8272
1.80857
1.78875
1.77116
1.75242
1.73653
1.71939
1.70512
1.68951
1.67636
1.66217
1.64947
1.63636
1.62422
1.61217
1.60083
1.58971
1.57916
1.56892
1.5591
1.54969
1.5406
1.53208
1.52378
1.5161
1.5087
1.50179
1.49589
1.49015
1.48645
1.48502
1.48563
1.48767
1.49482
1.51012
1.5391
1.57913
1.62511
1.67454
1.68983
1.69392
1.69145
1.68693
1.68007
1.67228
1.66697
1.65944
1.65552
1.64933
1.64612
1.64011
1.63699
1.63088
1.62764
1.62136
1.61802
1.6115
1.60806
1.60161
1.59867
1.59272
1.59241
1.90282
1.9802
1.99375
1.99095
1.9792
1.9609
1.94153
1.92307
1.90563
1.88781
1.87021
1.85253
1.83437
1.81707
1.79993
1.78343
1.76871
1.76092
1.76327
1.77584
1.80485
1.8724
1.99044
2.11836
2.16026
2.15448
2.13467
2.10462
2.06927
2.03726
2.00658
1.97992
1.95408
1.93107
1.90709
1.8852
1.86246
1.84209
1.82083
1.80164
1.78139
1.76332
1.74421
1.72763
1.70991
1.69514
1.67902
1.66565
1.65104
1.63822
1.62459
1.61197
1.59947
1.58767
1.57636
1.5654
1.55496
1.54484
1.5352
1.52592
1.51696
1.5084
1.50003
1.49214
1.48435
1.47721
1.47018
1.46433
1.45877
1.4549
1.45416
1.4549
1.45733
1.46499
1.48181
1.51123
1.55719
1.60362
1.64968
1.66443
1.66811
1.66554
1.66055
1.65422
1.6468
1.64175
1.63439
1.63047
1.62436
1.62121
1.61531
1.61226
1.60624
1.60316
1.59715
1.59408
1.58789
1.58499
1.57901
1.57862
1.74103
1.91956
1.962
1.97001
1.96524
1.95229
1.93432
1.91687
1.89969
1.88338
1.86624
1.84946
1.83252
1.81543
1.79933
1.78502
1.77696
1.77894
1.79158
1.81979
1.88435
2.00027
2.13822
2.18639
2.18116
2.1604
2.12775
2.09241
2.05785
2.02743
1.9988
1.97396
1.94896
1.92556
1.90118
1.8789
1.85614
1.83569
1.81428
1.79478
1.77407
1.75539
1.73596
1.71898
1.70131
1.68614
1.66965
1.65579
1.64034
1.62742
1.61329
1.60084
1.58765
1.57557
1.56354
1.55236
1.54144
1.53112
1.52112
1.51158
1.50239
1.49354
1.48505
1.47676
1.46888
1.46114
1.45388
1.44691
1.44041
1.43489
1.42982
1.42614
1.426
1.42681
1.4296
1.43768
1.45552
1.48611
1.53382
1.58355
1.62619
1.63876
1.64254
1.64006
1.63542
1.62954
1.62251
1.61782
1.61069
1.6069
1.60089
1.59772
1.59187
1.58877
1.58288
1.57995
1.57417
1.57149
1.56588
1.56541
1.48874
1.80858
1.92447
1.9475
1.94906
1.94183
1.92762
1.90947
1.89263
1.87642
1.86062
1.84488
1.82902
1.81417
1.79987
1.79133
1.79308
1.80579
1.83359
1.89799
2.0118
2.15268
2.20716
2.20362
2.18261
2.15099
2.11338
2.0793
2.04725
2.01967
1.99313
1.96873
1.94318
1.91923
1.8947
1.87256
1.84991
1.82925
1.80749
1.78765
1.76684
1.74838
1.72911
1.71217
1.69424
1.67854
1.66166
1.64721