/*--------------------------------*- C++ -*----------------------------------*\
  =========                 |
  \\      /  F ield         | OpenFOAM: The Open Source CFD Toolbox
   \\    /   O peration     | Website:  https://openfoam.org
    \\  /    A nd           | Version:  10
     \\/     M anipulation  |
\*---------------------------------------------------------------------------*/
FoamFile
{
    format      ascii;
    class       volVectorField;
    location    "2.5";
    object      U;
}
// * * * * * * * * * * * * * * * * * * * * * * * * * * * * * * * * * * * * * //

dimensions      [0 1 -1 0 0 0 0];

internalField   nonuniform List<vector> 
5250
(
(3 1.17033e-08 0)
(2.99999 7.30582e-08 0)
(2.99997 1.83017e-07 0)
(2.99992 7.28173e-07 0)
(2.9998 1.49155e-06 0)
(2.99951 4.07631e-06 0)
(2.99881 1.3365e-05 0)
(2.99701 1.88695e-05 0)
(2.99264 9.78466e-05 0)
(2.98148 0.000130739 0)
(2.95286 0.00054784 0)
(2.87443 0.00114386 0)
(2.64697 0.00349755 0)
(1.96966 0.00975549 0)
(0.908742 0.027624 0)
(0.391182 0.0254054 0)
(0.522341 0.0250703 0)
(0.557432 0.0266567 0)
(0.497708 0.0283277 0)
(0.402955 0.0301086 0)
(0.319228 0.0317868 0)
(0.253436 0.0336071 0)
(0.187445 0.0359535 0)
(0.112567 0.0394454 0)
(0.051996 0.0450424 0)
(3 4.17128e-08 0)
(2.99999 1.86236e-07 0)
(2.99997 8.5308e-07 0)
(2.99992 1.85878e-06 0)
(2.99981 6.30755e-06 0)
(2.99952 1.2868e-05 0)
(2.99882 4.04734e-05 0)
(2.99708 8.19135e-05 0)
(2.99273 0.000249094 0)
(2.98185 0.000537682 0)
(2.95373 0.00151126 0)
(2.87678 0.00372464 0)
(2.65437 0.0106156 0)
(1.98883 0.0302737 0)
(0.920833 0.0841695 0)
(0.389621 0.073502 0)
(0.524277 0.0688608 0)
(0.561245 0.0710406 0)
(0.502406 0.0737396 0)
(0.408675 0.0769969 0)
(0.325088 0.0795156 0)
(0.258241 0.0819475 0)
(0.190116 0.0848877 0)
(0.112188 0.0887159 0)
(0.0494731 0.0933041 0)
(3 5.24763e-08 0)
(2.99999 3.73998e-07 0)
(2.99997 1.20004e-06 0)
(2.99993 3.69324e-06 0)
(2.99981 8.97863e-06 0)
(2.99954 2.51572e-05 0)
(2.99886 5.64813e-05 0)
(2.99718 0.000160276 0)
(2.99302 0.000351648 0)
(2.98254 0.000988388 0)
(2.95551 0.00230965 0)
(2.88203 0.00635995 0)
(2.66924 0.0172379 0)
(2.03276 0.0504139 0)
(0.95015 0.14187 0)
(0.393301 0.124079 0)
(0.532844 0.114779 0)
(0.573295 0.11846 0)
(0.515931 0.123675 0)
(0.423375 0.130613 0)
(0.339193 0.136121 0)
(0.270462 0.141676 0)
(0.199395 0.148157 0)
(0.117589 0.155282 0)
(0.0505582 0.161488 0)
(3 7.80132e-08 0)
(2.99999 4.60042e-07 0)
(2.99997 1.64728e-06 0)
(2.99993 4.47371e-06 0)
(2.99983 1.22282e-05 0)
(2.99956 3.00099e-05 0)
(2.99893 7.92215e-05 0)
(2.99732 0.000188223 0)
(2.99342 0.000499372 0)
(2.98348 0.00119382 0)
(2.95821 0.00315086 0)
(2.88929 0.00809663 0)
(2.69133 0.0227142 0)
(2.09802 0.0660735 0)
(0.997452 0.191131 0)
(0.406878 0.174587 0)
(0.550268 0.162018 0)
(0.595459 0.166368 0)
(0.540025 0.173451 0)
(0.448257 0.184188 0)
(0.361981 0.193756 0)
(0.289956 0.203815 0)
(0.214673 0.215082 0)
(0.127484 0.226425 0)
(0.0541077 0.234641 0)
(3 9.86351e-08 0)
(2.99999 4.47664e-07 0)
(2.99997 1.9911e-06 0)
(2.99993 4.41066e-06 0)
(2.99984 1.47471e-05 0)
(2.9996 3.00289e-05 0)
(2.99899 9.46086e-05 0)
(2.99753 0.000190733 0)
(2.99386 0.00058329 0)
(2.98475 0.00123761 0)
(2.96127 0.00355494 0)
(2.89839 0.00862942 0)
(2.71821 0.0248093 0)
(2.18099 0.071509 0)
(1.0689 0.212198 0)
(0.444274 0.215486 0)
(0.58015 0.208414 0)
(0.626795 0.21438 0)
(0.571802 0.223453 0)
(0.47981 0.238154 0)
(0.390289 0.252873 0)
(0.314257 0.268329 0)
(0.234321 0.285105 0)
(0.140766 0.301554 0)
(0.0594875 0.312753 0)
(3 6.49371e-08 0)
(2.99999 5.49534e-07 0)
(2.99998 1.51676e-06 0)
(2.99994 5.41539e-06 0)
(2.99985 1.16406e-05 0)
(2.99963 3.56654e-05 0)
(2.99906 7.52288e-05 0)
(2.99773 0.000220302 0)
(2.9943 0.000476303 0)
(2.98596 0.00133807 0)
(2.96437 0.003085 0)
(2.90708 0.00848735 0)
(2.74445 0.0224129 0)
(2.26139 0.0653801 0)
(1.14978 0.194361 0)
(0.481373 0.248342 0)
(0.601745 0.259022 0)
(0.648594 0.264926 0)
(0.596754 0.274787 0)
(0.50829 0.293863 0)
(0.418504 0.314832 0)
(0.340424 0.336708 0)
(0.257267 0.360235 0)
(0.15766 0.383638 0)
(0.0672153 0.400077 0)
(3 7.45693e-08 0)
(2.99999 5.02199e-07 0)
(2.99998 1.63161e-06 0)
(2.99994 4.87213e-06 0)
(2.99986 1.22635e-05 0)
(2.99965 3.19209e-05 0)
(2.99915 7.78554e-05 0)
(2.99786 0.000197356 0)
(2.99479 0.000483502 0)
(2.98692 0.00120517 0)
(2.96725 0.00301738 0)
(2.9145 0.00773062 0)
(2.76582 0.0207432 0)
(2.32552 0.0586951 0)
(1.23776 0.173783 0)
(0.521628 0.288834 0)
(0.610958 0.319473 0)
(0.654735 0.316689 0)
(0.612772 0.324833 0)
(0.533421 0.349141 0)
(0.446723 0.377821 0)
(0.36917 0.407786 0)
(0.28497 0.44057 0)
(0.180123 0.474681 0)
(0.0786842 0.501499 0)
(3 8.37805e-08 0)
(2.99999 4.72118e-07 0)
(2.99998 1.79141e-06 0)
(2.99995 4.64222e-06 0)
(2.99987 1.32627e-05 0)
(2.99968 3.11814e-05 0)
(2.9992 8.28579e-05 0)
(2.99807 0.000195274 0)
(2.99514 0.000500746 0)
(2.98808 0.00121319 0)
(2.96981 0.00307174 0)
(2.92184 0.0077676 0)
(2.78684 0.0208256 0)
(2.38745 0.0585808 0)
(1.34856 0.173077 0)
(0.592602 0.336508 0)
(0.61914 0.368652 0)
(0.648975 0.363026 0)
(0.625346 0.374631 0)
(0.559658 0.402179 0)
(0.478119 0.439673 0)
(0.403179 0.480007 0)
(0.320878 0.52559 0)
(0.21312 0.57627 0)
(0.09792 0.624917 0)
(3 7.54272e-08 0)
(2.99999 5.46653e-07 0)
(2.99998 1.71359e-06 0)
(2.99995 5.37553e-06 0)
(2.99988 1.27387e-05 0)
(2.99971 3.58292e-05 0)
(2.99929 8.02393e-05 0)
(2.99821 0.00022003 0)
(2.99564 0.000493527 0)
(2.98906 0.00133344 0)
(2.9727 0.00311426 0)
(2.92932 0.00824634 0)
(2.80808 0.0214867 0)
(2.45233 0.0606224 0)
(1.482 0.178118 0)
(0.68226 0.385925 0)
(0.626452 0.403794 0)
(0.651125 0.403596 0)
(0.640745 0.423434 0)
(0.588174 0.453408 0)
(0.516315 0.499223 0)
(0.446594 0.552036 0)
(0.370105 0.613238 0)
(0.266238 0.690509 0)
(0.133628 0.784454 0)
(3 9.50461e-08 0)
(2.99999 5.36537e-07 0)
(2.99998 1.99328e-06 0)
(2.99996 5.22305e-06 0)
(2.99989 1.4689e-05 0)
(2.99974 3.45699e-05 0)
(2.99936 9.30382e-05 0)
(2.99841 0.000212102 0)
(2.99606 0.000571406 0)
(2.99026 0.00130767 0)
(2.97558 0.00347655 0)
(2.93714 0.00843581 0)
(2.83051 0.0228581 0)
(2.51831 0.0631146 0)
(1.63757 0.184954 0)
(0.787611 0.436862 0)
(0.633944 0.440859 0)
(0.661496 0.441852 0)
(0.662434 0.467002 0)
(0.621337 0.502408 0)
(0.562823 0.554826 0)
(0.502366 0.619541 0)
(0.440433 0.702616 0)
(0.357747 0.825945 0)
(0.202749 1.04263 0)
(3 8.97836e-08 0)
(2.99999 5.87694e-07 0)
(2.99999 1.98499e-06 0)
(2.99996 5.74624e-06 0)
(2.99991 1.47727e-05 0)
(2.99977 3.83344e-05 0)
(2.99943 9.27657e-05 0)
(2.99861 0.00023846 0)
(2.99655 0.000567006 0)
(2.99148 0.00146283 0)
(2.97864 0.00352205 0)
(2.94547 0.00912313 0)
(2.8537 0.0236654 0)
(2.58761 0.0661914 0)
(1.81509 0.191725 0)
(0.912129 0.486532 0)
(0.64547 0.480319 0)
(0.678928 0.479376 0)
(0.692377 0.50427 0)
(0.661901 0.545534 0)
(0.617297 0.602719 0)
(0.575075 0.677671 0)
(0.547099 0.781104 0)
(0.549348 0.936772 0)
(0.595762 1.19428 0)
(3 8.73516e-08 0)
(3 6.12966e-07 0)
(2.99999 1.92886e-06 0)
(2.99997 6.01698e-06 0)
(2.99992 1.44959e-05 0)
(2.9998 3.97588e-05 0)
(2.99952 9.32322e-05 0)
(2.99881 0.000244773 0)
(2.99708 0.000581359 0)
(2.99272 0.00149319 0)
(2.98196 0.00363856 0)
(2.95393 0.00936037 0)
(2.87809 0.0242251 0)
(2.65916 0.0675144 0)
(2.01243 0.195496 0)
(1.05961 0.528485 0)
(0.673057 0.525343 0)
(0.707545 0.522962 0)
(0.73152 0.539338 0)
(0.711603 0.581992 0)
(0.680683 0.641854 0)
(0.660096 0.723096 0)
(0.667739 0.834486 0)
(0.732649 0.987605 0)
(0.892214 1.18663 0)
(3 8.9767e-08 0)
(3 5.42694e-07 0)
(2.99999 1.92587e-06 0)
(2.99997 5.30932e-06 0)
(2.99993 1.43331e-05 0)
(2.99984 3.5413e-05 0)
(2.9996 9.12293e-05 0)
(2.99902 0.000220231 0)
(2.99759 0.000565255 0)
(2.99403 0.00136157 0)
(2.9852 0.0035014 0)
(2.96261 0.00863482 0)
(2.90237 0.0227639 0)
(2.73132 0.0620092 0)
(2.22699 0.179803 0)
(1.24895 0.516141 0)
(0.745715 0.563781 0)
(0.758225 0.57427 0)
(0.782687 0.578793 0)
(0.773222 0.616017 0)
(0.753142 0.67478 0)
(0.750772 0.75438 0)
(0.782972 0.858975 0)
(0.874003 0.987258 0)
(1.05578 1.11467 0)
(3 7.76408e-08 0)
(3 4.59135e-07 0)
(2.99999 1.68035e-06 0)
(2.99998 4.4739e-06 0)
(2.99995 1.24538e-05 0)
(2.99987 2.99685e-05 0)
(2.99968 7.78504e-05 0)
(2.9992 0.000187221 0)
(2.99804 0.000472341 0)
(2.99517 0.00115807 0)
(2.98802 0.00287611 0)
(2.97 0.00720032 0)
(2.92265 0.018389 0)
(2.79054 0.0493437 0)
(2.4068 0.140095 0)
(1.4624 0.419141 0)
(0.843501 0.590714 0)
(0.812437 0.620644 0)
(0.830845 0.62627 0)
(0.837147 0.652495 0)
(0.828455 0.704084 0)
(0.837882 0.774626 0)
(0.883078 0.862434 0)
(0.979453 0.961451 0)
(1.15071 1.04374 0)
(3 6.47762e-08 0)
(3 3.98702e-07 0)
(2.99999 1.3983e-06 0)
(2.99998 3.89076e-06 0)
(2.99996 1.03616e-05 0)
(2.99989 2.56972e-05 0)
(2.99973 6.49823e-05 0)
(2.99935 0.000158048 0)
(2.9984 0.000393735 0)
(2.99604 0.00096065 0)
(2.99023 0.00238337 0)
(2.97555 0.00587494 0)
(2.93735 0.0148902 0)
(2.83198 0.0389637 0)
(2.52629 0.108237 0)
(1.68802 0.320465 0)
(0.956455 0.631071 0)
(0.847232 0.661822 0)
(0.864885 0.673258 0)
(0.886719 0.688106 0)
(0.895278 0.729357 0)
(0.915013 0.788084 0)
(0.966241 0.857902 0)
(1.05993 0.931602 0)
(1.21227 0.987931 0)
(3 5.47849e-08 0)
(3 3.6223e-07 0)
(2.99999 1.19926e-06 0)
(2.99999 3.5385e-06 0)
(2.99996 8.90862e-06 0)
(2.99991 2.33042e-05 0)
(2.99979 5.6184e-05 0)
(2.99948 0.000142821 0)
(2.9987 0.00034442 0)
(2.99683 0.000863903 0)
(2.99212 0.00210395 0)
(2.98042 0.00528089 0)
(2.95014 0.013163 0)
(2.86754 0.0346081 0)
(2.63046 0.0949089 0)
(1.9434 0.276802 0)
(1.11865 0.66666 0)
(0.880229 0.695218 0)
(0.892363 0.708324 0)
(0.92444 0.715618 0)
(0.951249 0.747656 0)
(0.980715 0.796151 0)
(1.0346 0.851431 0)
(1.12295 0.906152 0)
(1.25619 0.945977 0)
(3 4.99086e-08 0)
(3 3.02788e-07 0)
(3 1.08696e-06 0)
(2.99999 2.95381e-06 0)
(2.99997 8.0792e-06 0)
(2.99993 1.97706e-05 0)
(2.99983 5.05194e-05 0)
(2.99959 0.000123888 0)
(2.999 0.000306432 0)
(2.9975 0.000766126 0)
(2.99392 0.00186518 0)
(2.98477 0.00473127 0)
(2.96179 0.0117106 0)
(2.89989 0.0306492 0)
(2.72501 0.0835063 0)
(2.20996 0.241552 0)
(1.33138 0.657244 0)
(0.94668 0.722091 0)
(0.933815 0.735574 0)
(0.963006 0.740635 0)
(1.00229 0.761355 0)
(1.03885 0.800268 0)
(1.09248 0.844611 0)
(1.17401 0.885999 0)
(1.29018 0.91478 0)
(3 4.04171e-08 0)
(3 2.49024e-07 0)
(3 8.70814e-07 0)
(2.99999 2.43744e-06 0)
(2.99998 6.49222e-06 0)
(2.99995 1.61564e-05 0)
(2.99987 4.10544e-05 0)
(2.99969 9.96077e-05 0)
(2.99924 0.000251072 0)
(2.99813 0.000608151 0)
(2.99542 0.00152876 0)
(2.98863 0.00373929 0)
(2.97173 0.00941395 0)
(2.92745 0.0239425 0)
(2.80544 0.0642568 0)
(2.45312 0.18253 0)
(1.60291 0.536881 0)
(1.06097 0.730599 0)
(0.994072 0.758517 0)
(1.00916 0.770252 0)
(1.05046 0.779206 0)
(1.09261 0.806001 0)
(1.14422 0.839969 0)
(1.21796 0.871261 0)
(1.319 0.892131 0)
(3 3.19652e-08 0)
(3 1.99566e-07 0)
(3 6.84341e-07 0)
(2.99999 1.94881e-06 0)
(2.99998 5.05809e-06 0)
(2.99996 1.28206e-05 0)
(2.9999 3.19791e-05 0)
(2.99976 7.79647e-05 0)
(2.99942 0.00019498 0)
(2.99857 0.000468274 0)
(2.99653 0.00118093 0)
(2.99133 0.00282426 0)
(2.97862 0.00717159 0)
(2.94543 0.0176281 0)
(2.85544 0.046514 0)
(2.59787 0.127011 0)
(1.88113 0.378253 0)
(1.1958 0.741672 0)
(1.04188 0.781976 0)
(1.04692 0.800162 0)
(1.08732 0.802254 0)
(1.13683 0.814907 0)
(1.18885 0.838584 0)
(1.25621 0.861693 0)
(1.34472 0.876478 0)
(3 2.60968e-08 0)
(3 1.60442e-07 0)
(3 5.60806e-07 0)
(3 1.56381e-06 0)
(2.99999 4.1479e-06 0)
(2.99997 1.03415e-05 0)
(2.99993 2.61181e-05 0)
(2.99983 6.3432e-05 0)
(2.99957 0.000159169 0)
(2.99895 0.000384433 0)
(2.99738 0.000963338 0)
(2.99362 0.00234485 0)
(2.98406 0.00587502 0)
(2.96006 0.0146294 0)
(2.89527 0.0379766 0)
(2.71282 0.103217 0)
(2.17764 0.300351 0)
(1.3943 0.744794 0)
(1.10107 0.811182 0)
(1.08704 0.825105 0)
(1.11806 0.825047 0)
(1.17199 0.825553 0)
(1.22753 0.839811 0)
(1.29023 0.856158 0)
(1.36837 0.866234 0)
(3 1.93719e-08 0)
(3 1.26974e-07 0)
(3 4.24443e-07 0)
(3 1.23883e-06 0)
(2.99999 3.15855e-06 0)
(2.99998 8.15735e-06 0)
(2.99995 1.98713e-05 0)
(2.99987 4.99995e-05 0)
(2.99969 0.000121092 0)
(2.99924 0.000301593 0)
(2.99816 0.000734306 0)
(2.99543 0.00182523 0)
(2.98886 0.00448949 0)
(2.97215 0.0112408 0)
(2.929 0.0286042 0)
(2.81119 0.076559 0)
(2.46916 0.218499 0)
(1.68436 0.618522 0)
(1.21613 0.81145 0)
(1.14618 0.838708 0)
(1.15826 0.846886 0)
(1.20687 0.841497 0)
(1.26401 0.845598 0)
(1.32249 0.854796 0)
(1.39162 0.860538 0)
(3 1.45096e-08 0)
(3 9.49674e-08 0)
(3 3.15764e-07 0)
(3 9.24759e-07 0)
(2.99999 2.34528e-06 0)
(2.99998 6.03925e-06 0)
(2.99996 1.47771e-05 0)
(2.99991 3.65861e-05 0)
(2.99977 8.98581e-05 0)
(2.99946 0.000217923 0)
(2.99865 0.000543061 0)
(2.99675 0.00129881 0)
(2.99191 0.00326417 0)
(2.98012 0.00788055 0)
(2.9495 0.0199441 0)
(2.86753 0.0513957 0)
(2.63456 0.140762 0)
(1.98913 0.416206 0)
(1.35855 0.800174 0)
(1.19865 0.853291 0)
(1.19538 0.870524 0)
(1.23507 0.865356 0)
(1.29391 0.857435 0)
(1.35138 0.857937 0)
(1.41417 0.859166 0)
(3 1.07382e-08 0)
(3 7.07574e-08 0)
(3 2.37489e-07 0)
(3 6.88793e-07 0)
(3 1.75992e-06 0)
(2.99999 4.56262e-06 0)
(2.99997 1.09509e-05 0)
(2.99994 2.80506e-05 0)
(2.99984 6.59837e-05 0)
(2.99961 0.000169339 0)
(2.99906 0.000397104 0)
(2.99769 0.00101625 0)
(2.99434 0.00240549 0)
(2.98602 0.00613145 0)
(2.9651 0.0149057 0)
(2.90963 0.0388217 0)
(2.75592 0.103531 0)
(2.30581 0.300734 0)
(1.58487 0.74755 0)
(1.27617 0.864014 0)
(1.24124 0.886614 0)
(1.26253 0.888286 0)
(1.31634 0.874579 0)
(1.37611 0.86647 0)
(1.43584 0.862615 0)
(3 8.32742e-09 0)
(3 5.04841e-08 0)
(3 1.79138e-07 0)
(3 4.92235e-07 0)
(3 1.32123e-06 0)
(2.99999 3.25544e-06 0)
(2.99998 8.222e-06 0)
(2.99996 1.99442e-05 0)
(2.99989 4.9411e-05 0)
(2.99973 0.000120544 0)
(2.99936 0.000294682 0)
(2.99842 0.000726285 0)
(2.99617 0.00176761 0)
(2.99054 0.00439446 0)
(2.9767 0.0108037 0)
(2.94084 0.0274164 0)
(2.84462 0.072004 0)
(2.5682 0.202543 0)
(1.88957 0.575797 0)
(1.40244 0.852218 0)
(1.29946 0.892842 0)
(1.29951 0.906565 0)
(1.34007 0.8952 0)
(1.39839 0.878459 0)
(1.45632 0.869506 0)
(3 6.01327e-09 0)
(3 3.59763e-08 0)
(3 1.28828e-07 0)
(3 3.50496e-07 0)
(3 9.48057e-07 0)
(2.99999 2.31093e-06 0)
(2.99999 5.91338e-06 0)
(2.99997 1.41016e-05 0)
(2.99993 3.55397e-05 0)
(2.99982 8.4747e-05 0)
(2.99956 0.00021174 0)
(2.99892 0.000509471 0)
(2.9974 0.00125981 0)
(2.99355 0.0030742 0)
(2.98425 0.00758334 0)
(2.96037 0.0188789 0)
(2.8976 0.0484327 0)
(2.72204 0.130997 0)
(2.2197 0.382538 0)
(1.58752 0.820251 0)
(1.36309 0.904718 0)
(1.33933 0.921519 0)
(1.36098 0.916094 0)
(1.41485 0.89537 0)
(1.47471 0.8796 0)
(3 4.11733e-09 0)
(3 2.56556e-08 0)
(3 8.8739e-08 0)
(3 2.49421e-07 0)
(3 6.56038e-07 0)
(3 1.63515e-06 0)
(2.99999 4.10333e-06 0)
(2.99998 9.92617e-06 0)
(2.99995 2.47182e-05 0)
(2.99988 5.94182e-05 0)
(2.99971 0.000147849 0)
(2.99929 0.000354621 0)
(2.9983 0.000882894 0)
(2.99581 0.00212918 0)
(2.98985 0.0052993 0)
(2.97476 0.0130034 0)
(2.93642 0.03302 0)
(2.83324 0.0870108 0)
(2.53444 0.247691 0)
(1.8787 0.660042 0)
(1.47621 0.883695 0)
(1.39595 0.920034 0)
(1.39528 0.930296 0)
(1.43465 0.9153 0)
(1.49162 0.890469 0)
(3 2.79407e-09 0)
(3 1.7715e-08 0)
(3 6.02882e-08 0)
(3 1.72173e-07 0)
(3 4.44406e-07 0)
(3 1.12439e-06 0)
(2.99999 2.77069e-06 0)
(2.99999 6.79542e-06 0)
(2.99997 1.66917e-05 0)
(2.99992 4.03594e-05 0)
(2.99981 9.95135e-05 0)
(2.99953 0.000238928 0)
(2.99888 0.00059318 0)
(2.99723 0.00141613 0)
(2.9933 0.00353434 0)
(2.98341 0.00853938 0)
(2.95875 0.021426 0)
(2.89313 0.0546126 0)
(2.71034 0.147972 0)
(2.20286 0.426257 0)
(1.63644 0.847311 0)
(1.45428 0.924292 0)
(1.43268 0.94061 0)
(1.45172 0.934169 0)
(1.50227 0.907703 0)
(3 1.9373e-09 0)
(3 1.18349e-08 0)
(3 4.14294e-08 0)
(3 1.15003e-07 0)
(3 3.04068e-07 0)
(3 7.5248e-07 0)
(3 1.89376e-06 0)
(2.99999 4.54482e-06 0)
(2.99998 1.1371e-05 0)
(2.99995 2.69974e-05 0)
(2.99988 6.76384e-05 0)
(2.9997 0.000160517 0)
(2.99929 0.000400223 0)
(2.99826 0.000956154 0)
(2.99578 0.00237564 0)
(2.98965 0.00574621 0)
(2.9746 0.0143106 0)
(2.93593 0.035857 0)
(2.83251 0.0948763 0)
(2.53454 0.269353 0)
(1.91456 0.690822 0)
(1.55717 0.897118 0)
(1.48576 0.934751 0)
(1.48283 0.944196 0)
(1.51791 0.928446 0)
(3 1.21066e-09 0)
(3 8.01119e-09 0)
(3 2.64908e-08 0)
(3 7.76861e-08 0)
(3 1.95105e-07 0)
(3 5.06447e-07 0)
(3 1.20996e-06 0)
(2.99999 3.05204e-06 0)
(2.99999 7.23325e-06 0)
(2.99997 1.80335e-05 0)
(2.99992 4.29822e-05 0)
(2.99981 0.000106055 0)
(2.99954 0.000255032 0)
(2.99888 0.000622809 0)
(2.9973 0.0015153 0)
(2.99334 0.00368082 0)
(2.98378 0.00905917 0)
(2.95945 0.0223317 0)
(2.89575 0.0571441 0)
(2.71857 0.153907 0)
(2.23331 0.437646 0)
(1.70928 0.849182 0)
(1.54138 0.932038 0)
(1.5179 0.950287 0)
(1.53345 0.946102 0)
(3 8.00726e-10 0)
(3 5.20532e-09 0)
(3 1.74937e-08 0)
(3 5.05348e-08 0)
(3 1.28832e-07 0)
(3 3.29825e-07 0)
(3 7.96657e-07 0)
(3 1.98813e-06 0)
(2.99999 4.7584e-06 0)
(2.99998 1.17688e-05 0)
(2.99995 2.81594e-05 0)
(2.99988 6.93123e-05 0)
(2.99972 0.00016704 0)
(2.99931 0.000407103 0)
(2.99833 0.000991739 0)
(2.99593 0.00240402 0)
(2.99013 0.00591758 0)
(2.97567 0.0144935 0)
(2.93912 0.0364839 0)
(2.84155 0.0956992 0)
(2.56129 0.27043 0)
(1.98302 0.685626 0)
(1.64151 0.900668 0)
(1.56846 0.943684 0)
(1.56282 0.954648 0)
(3 5.42065e-10 0)
(3 3.25983e-09 0)
(3 1.15526e-08 0)
(3 3.16396e-08 0)
(3 8.45351e-08 0)
(3 2.06238e-07 0)
(3 5.22152e-07 0)
(3 1.23881e-06 0)
(2.99999 3.10793e-06 0)
(2.99999 7.3235e-06 0)
(2.99997 1.82797e-05 0)
(2.99993 4.31194e-05 0)
(2.99982 0.000107118 0)
(2.99957 0.00025418 0)
(2.99896 0.00062639 0)
(2.99745 0.00149942 0)
(2.99385 0.0036805 0)
(2.98484 0.00892768 0)
(2.9626 0.0221006 0)
(2.90409 0.0559765 0)
(2.74302 0.150152 0)
(2.30348 0.423094 0)
(1.80168 0.832706 0)
(1.62606 0.933792 0)
(1.59722 0.956937 0)
(3 3.31597e-10 0)
(3 2.13305e-09 0)
(3 7.16298e-09 0)
(3 2.06718e-08 0)
(3 5.26626e-08 0)
(3 1.33996e-07 0)
(3 3.269e-07 0)
(3 8.00344e-07 0)
(3 1.953e-06 0)
(2.99999 4.69702e-06 0)
(2.99998 1.15824e-05 0)
(2.99996 2.74476e-05 0)
(2.99989 6.8349e-05 0)
(2.99974 0.000161106 0)
(2.99937 0.000401589 0)
(2.99847 0.000948582 0)
(2.99631 0.00236508 0)
(2.991 0.00563777 0)
(2.97804 0.0141102 0)
(2.94513 0.0347152 0)
(2.85825 0.091246 0)
(2.61056 0.253962 0)
(2.0792 0.650421 0)
(1.7326 0.898114 0)
(1.64829 0.950767 0)
(3 2.03655e-10 0)
(3 1.33611e-09 0)
(3 4.47003e-09 0)
(3 1.29167e-08 0)
(3 3.27591e-08 0)
(3 8.40608e-08 0)
(3 2.01064e-07 0)
(3 5.05454e-07 0)
(3 1.19052e-06 0)
(3 2.97114e-06 0)
(2.99999 7.00594e-06 0)
(2.99997 1.73576e-05 0)
(2.99993 4.11577e-05 0)
(2.99984 0.000101056 0)
(2.99962 0.000242228 0)
(2.99908 0.000587467 0)
(2.99776 0.00142587 0)
(2.99461 0.00343529 0)
(2.98676 0.0084409 0)
(2.96755 0.0205791 0)
(2.91757 0.0521306 0)
(2.78185 0.138062 0)
(2.40761 0.387913 0)
(1.9186 0.797255 0)
(1.71326 0.930532 0)
(3 1.31292e-10 0)
(3 8.06263e-10 0)
(3 2.83626e-09 0)
(3 7.79544e-09 0)
(3 2.07443e-08 0)
(3 5.08392e-08 0)
(3 1.27112e-07 0)
(3 3.06682e-07 0)
(3 7.47435e-07 0)
(3 1.81615e-06 0)
(2.99999 4.35767e-06 0)
(2.99998 1.07088e-05 0)
(2.99996 2.53635e-05 0)
(2.99991 6.2907e-05 0)
(2.99977 0.000148199 0)
(2.99946 0.000368451 0)
(2.99869 0.000868551 0)
(2.99684 0.00216105 0)
(2.9923 0.00513422 0)
(2.98128 0.0128146 0)
(2.95352 0.0313087 0)
(2.88095 0.0813442 0)
(2.67674 0.222683 0)
(2.20541 0.583032 0)
(1.83487 0.886516 0)
(3 8.00754e-11 0)
(3 4.91785e-10 0)
(3 1.71025e-09 0)
(3 4.75714e-09 0)
(3 1.25319e-08 0)
(3 3.07924e-08 0)
(3 7.73204e-08 0)
(3 1.83533e-07 0)
(3 4.57318e-07 0)
(3 1.07753e-06 0)
(3 2.67245e-06 0)
(2.99999 6.30171e-06 0)
(2.99998 1.5553e-05 0)
(2.99995 3.69032e-05 0)
(2.99987 9.01851e-05 0)
(2.99968 0.000216421 0)
(2.99925 0.000522505 0)
(2.99817 0.00127046 0)
(2.99563 0.00304144 0)
(2.98931 0.00749123 0)
(2.97404 0.0181218 0)
(2.93496 0.0457048 0)
(2.83128 0.119214 0)
(2.54097 0.334129 0)
(2.06295 0.735659 0)
(3 4.63801e-11 0)
(3 3.00356e-10 0)
(3 1.00288e-09 0)
(3 2.90272e-09 0)
(3 7.33899e-09 0)
(3 1.87238e-08 0)
(3 4.51262e-08 0)
(3 1.11144e-07 0)
(3 2.67478e-07 0)
(3 6.46092e-07 0)
(3 1.56801e-06 0)
(2.99999 3.74021e-06 0)
(2.99999 9.1708e-06 0)
(2.99997 2.16295e-05 0)
(2.99992 5.34148e-05 0)
(2.99982 0.000125464 0)
(2.99957 0.000310225 0)
(2.99894 0.00072877 0)
(2.99748 0.00180203 0)
(2.99382 0.004263 0)
(2.98516 0.0105498 0)
(2.96323 0.0255336 0)
(2.90733 0.0650906 0)
(2.7531 0.173807 0)
(2.36291 0.466582 0)
(3 2.71933e-11 0)
(3 1.77021e-10 0)
(3 5.94944e-10 0)
(3 1.70816e-09 0)
(3 4.34813e-09 0)
(3 1.10699e-08 0)
(3 2.65483e-08 0)
(3 6.61052e-08 0)
(3 1.56004e-07 0)
(3 3.85734e-07 0)
(3 9.1067e-07 0)
(3 2.23705e-06 0)
(2.99999 5.3031e-06 0)
(2.99998 1.29398e-05 0)
(2.99996 3.0937e-05 0)
(2.9999 7.46407e-05 0)
(2.99975 0.0001806 0)
(2.99941 0.000430515 0)
(2.99857 0.00105493 0)
(2.99659 0.00249549 0)
(2.99172 0.00617717 0)
(2.97999 0.014776 0)
(2.95045 0.0371207 0)
(2.87382 0.0946172 0)
(2.65876 0.261187 0)
(3 1.65129e-11 0)
(3 1.00749e-10 0)
(3 3.54329e-10 0)
(3 9.72686e-10 0)
(3 2.57987e-09 0)
(3 6.2974e-09 0)
(3 1.57091e-08 0)
(3 3.7575e-08 0)
(3 9.17028e-08 0)
(3 2.20007e-07 0)
(3 5.29382e-07 0)
(3 1.28177e-06 0)
(3 3.04981e-06 0)
(2.99999 7.43563e-06 0)
(2.99998 1.75831e-05 0)
(2.99994 4.30476e-05 0)
(2.99986 0.00010138 0)
(2.99967 0.000248482 0)
(2.9992 0.000585318 0)
(2.99809 0.00143451 0)
(2.99539 0.00339032 0)
(2.98891 0.00833585 0)
(2.97285 0.0200238 0)
(2.93253 0.0503443 0)
(2.82483 0.13067 0)
(3 9.35013e-12 0)
(3 5.89456e-11 0)
(3 2.00865e-10 0)
(3 5.6877e-10 0)
(3 1.46252e-09 0)
(3 3.66094e-09 0)
(3 8.94633e-09 0)
(3 2.1646e-08 0)
(3 5.2625e-08 0)
(3 1.25386e-07 0)
(3 3.05565e-07 0)
(3 7.24072e-07 0)
(3 1.7672e-06 0)
(2.99999 4.17363e-06 0)
(2.99999 1.01965e-05 0)
(2.99997 2.40984e-05 0)
(2.99992 5.86792e-05 0)
(2.99981 0.000139243 0)
(2.99956 0.000337358 0)
(2.99893 0.000805529 0)
(2.99747 0.00194233 0)
(2.99382 0.00467993 0)
(2.98522 0.0113325 0)
(2.96351 0.0277487 0)
(2.90866 0.0699709 0)
(3 5.25209e-12 0)
(3 3.3726e-11 0)
(3 1.13949e-10 0)
(3 3.24716e-10 0)
(3 8.3038e-10 0)
(3 2.09135e-09 0)
(3 5.05407e-09 0)
(3 1.24021e-08 0)
(3 2.95364e-08 0)
(3 7.2014e-08 0)
(3 1.708e-07 0)
(3 4.15454e-07 0)
(3 9.86815e-07 0)
(3 2.38911e-06 0)
(2.99999 5.70163e-06 0)
(2.99998 1.37208e-05 0)
(2.99996 3.29297e-05 0)
(2.9999 7.87256e-05 0)
(2.99976 0.000190346 0)
(2.99943 0.000451788 0)
(2.99861 0.00110008 0)
(2.99673 0.00260707 0)
(2.99203 0.00638145 0)
(2.98091 0.0153242 0)
(2.95292 0.0380555 0)
(3 3.05381e-12 0)
(3 1.86822e-11 0)
(3 6.50431e-11 0)
(3 1.79933e-10 0)
(3 4.72489e-10 0)
(3 1.15748e-09 0)
(3 2.87739e-09 0)
(3 6.8318e-09 0)
(3 1.67805e-08 0)
(3 3.95402e-08 0)
(3 9.67113e-08 0)
(3 2.27806e-07 0)
(3 5.54607e-07 0)
(3 1.31331e-06 0)
(3 3.16941e-06 0)
(2.99999 7.56975e-06 0)
(2.99998 1.80776e-05 0)
(2.99995 4.36178e-05 0)
(2.99987 0.00010309 0)
(2.99969 0.000250588 0)
(2.99927 0.000588725 0)
(2.99822 0.00143957 0)
(2.9958 0.00337381 0)
(2.98979 0.00830449 0)
(2.9755 0.0197504 0)
(3 1.62568e-12 0)
(3 1.05739e-11 0)
(3 3.54879e-11 0)
(3 1.01593e-10 0)
(3 2.58224e-10 0)
(3 6.53406e-10 0)
(3 1.5636e-09 0)
(3 3.86188e-09 0)
(3 9.08197e-09 0)
(3 2.22863e-08 0)
(3 5.23055e-08 0)
(3 1.27608e-07 0)
(3 3.00566e-07 0)
(3 7.27963e-07 0)
(3 1.72778e-06 0)
(2.99999 4.14376e-06 0)
(2.99999 9.91525e-06 0)
(2.99997 2.35676e-05 0)
(2.99993 5.6903e-05 0)
(2.99983 0.000133881 0)
(2.9996 0.000325689 0)
(2.99905 0.000762202 0)
(2.99774 0.00186346 0)
(2.99453 0.00436011 0)
(2.98698 0.0107319 0)
(3 9.12794e-13 0)
(3 5.69381e-12 0)
(3 1.99168e-11 0)
(3 5.49065e-11 0)
(3 1.44095e-10 0)
(3 3.53939e-10 0)
(3 8.69889e-10 0)
(3 2.093e-09 0)
(3 5.03321e-09 0)
(3 1.20931e-08 0)
(3 2.8813e-08 0)
(3 6.95207e-08 0)
(3 1.64317e-07 0)
(3 3.98417e-07 0)
(3 9.39256e-07 0)
(3 2.27211e-06 0)
(2.99999 5.37695e-06 0)
(2.99998 1.2949e-05 0)
(2.99996 3.07549e-05 0)
(2.99991 7.36988e-05 0)
(2.99979 0.000176144 0)
(2.9995 0.000419026 0)
(2.9988 0.00101009 0)
(2.99717 0.00239116 0)
(2.99315 0.00580846 0)
(3 4.83884e-13 0)
(3 3.12451e-12 0)
(3 1.06763e-11 0)
(3 3.01889e-11 0)
(3 7.74712e-11 0)
(3 1.92976e-10 0)
(3 4.69633e-10 0)
(3 1.13048e-09 0)
(3 2.73004e-09 0)
(3 6.47836e-09 0)
(3 1.56691e-08 0)
(3 3.69925e-08 0)
(3 8.95319e-08 0)
(3 2.108e-07 0)
(3 5.10572e-07 0)
(3 1.20252e-06 0)
(3 2.90396e-06 0)
(2.99999 6.86319e-06 0)
(2.99998 1.6498e-05 0)
(2.99995 3.91759e-05 0)
(2.99989 9.36058e-05 0)
(2.99974 0.000223711 0)
(2.99939 0.000530792 0)
(2.99853 0.00127901 0)
(2.99654 0.00302024 0)
(3 2.64808e-13 0)
(3 1.66335e-12 0)
(3 5.70909e-12 0)
(3 1.60835e-11 0)
(3 4.16635e-11 0)
(3 1.03083e-10 0)
(3 2.51458e-10 0)
(3 6.07139e-10 0)
(3 1.44813e-09 0)
(3 3.49622e-09 0)
(3 8.23793e-09 0)
(3 1.99903e-08 0)
(3 4.67828e-08 0)
(3 1.13753e-07 0)
(3 2.65666e-07 0)
(3 6.45612e-07 0)
(3 1.50957e-06 0)
(3 3.65284e-06 0)
(2.99999 8.58487e-06 0)
(2.99998 2.0617e-05 0)
(2.99994 4.88158e-05 0)
(2.99987 0.000116101 0)
(2.99968 0.00027736 0)
(2.99925 0.000653035 0)
(2.9982 0.0015753 0)
(3 1.66699e-13 0)
(3 8.97491e-13 0)
(3 3.09695e-12 0)
(3 8.52324e-12 0)
(3 2.21321e-11 0)
(3 5.43164e-11 0)
(3 1.33658e-10 0)
(3 3.17611e-10 0)
(3 7.72926e-10 0)
(3 1.81451e-09 0)
(3 4.40489e-09 0)
(3 1.03172e-08 0)
(3 2.49755e-08 0)
(3 5.86092e-08 0)
(3 1.41114e-07 0)
(3 3.33237e-07 0)
(3 7.95966e-07 0)
(3 1.89102e-06 0)
(2.99999 4.48617e-06 0)
(2.99999 1.07326e-05 0)
(2.99997 2.52364e-05 0)
(2.99993 6.07913e-05 0)
(2.99984 0.000142158 0)
(2.99961 0.00034318 0)
(2.99907 0.000802674 0)
(3 7.38758e-14 0)
(3 4.66173e-13 0)
(3 1.59466e-12 0)
(3 4.50943e-12 0)
(3 1.1472e-11 0)
(3 2.88022e-11 0)
(3 6.88529e-11 0)
(3 1.67673e-10 0)
(3 3.96728e-10 0)
(3 9.53876e-10 0)
(3 2.26103e-09 0)
(3 5.38658e-09 0)
(3 1.28456e-08 0)
(3 3.03546e-08 0)
(3 7.278e-08 0)
(3 1.71147e-07 0)
(3 4.1162e-07 0)
(3 9.6511e-07 0)
(3 2.32054e-06 0)
(2.99999 5.45415e-06 0)
(2.99998 1.3052e-05 0)
(2.99996 3.08062e-05 0)
(2.99992 7.3373e-05 0)
(2.9998 0.00017406 0)
(2.99952 0.000411979 0)
(3 2.29609e-14 0)
(3 2.11885e-13 0)
(3 7.9391e-13 0)
(3 2.11664e-12 0)
(3 5.79305e-12 0)
(3 1.41571e-11 0)
(3 3.49767e-11 0)
(3 8.31378e-11 0)
(3 2.00323e-10 0)
(3 4.74761e-10 0)
(3 1.12927e-09 0)
(3 2.69593e-09 0)
(3 6.33389e-09 0)
(3 1.5252e-08 0)
(3 3.55025e-08 0)
(3 8.60624e-08 0)
(3 1.99076e-07 0)
(3 4.83296e-07 0)
(3 1.11929e-06 0)
(3 2.70422e-06 0)
(2.99999 6.28715e-06 0)
(2.99998 1.50976e-05 0)
(2.99995 3.53603e-05 0)
(2.99989 8.39335e-05 0)
(2.99975 0.000198487 0)
(3 3.46592e-14 0)
(3 1.38406e-13 0)
(3 3.8452e-13 0)
(3 1.0388e-12 0)
(3 2.62328e-12 0)
(3 6.5042e-12 0)
(3 1.57278e-11 0)
(3 3.8063e-11 0)
(3 9.0138e-11 0)
(3 2.15208e-10 0)
(3 5.098e-10 0)
(3 1.20325e-09 0)
(3 2.86686e-09 0)
(3 6.70649e-09 0)
(3 1.60643e-08 0)
(3 3.72271e-08 0)
(3 8.961e-08 0)
(3 2.06221e-07 0)
(3 4.97057e-07 0)
(3 1.13781e-06 0)
(3 2.73872e-06 0)
(2.99999 6.26706e-06 0)
(2.99997 1.49391e-05 0)
(2.99993 3.43282e-05 0)
(2.99984 8.07556e-05 0)
(3 1.73009e-14 0)
(3 5.42576e-14 0)
(3 1.18212e-13 0)
(3 3.63861e-13 0)
(3 7.6128e-13 0)
(3 1.9466e-12 0)
(3 4.38397e-12 0)
(3 1.1161e-11 0)
(3 2.47728e-11 0)
(3 6.23809e-11 0)
(3 1.40066e-10 0)
(3 3.43153e-10 0)
(3 7.88623e-10 0)
(3 1.87662e-09 0)
(3 4.44131e-09 0)
(3 1.01338e-08 0)
(3 2.48279e-08 0)
(3 5.47261e-08 0)
(3 1.36262e-07 0)
(3 2.94633e-07 0)
(3 7.36177e-07 0)
(2.99999 1.57491e-06 0)
(2.99998 3.88804e-06 0)
(2.99995 8.38283e-06 0)
(2.99987 1.99498e-05 0)
(1.27867 1.0991 0)
(1.69403 0.898223 0)
(1.87931 0.631553 0)
(1.90578 0.363817 0)
(1.85363 0.138693 0)
(1.75469 -0.0103379 0)
(1.65466 -0.0472286 0)
(1.60507 -0.0151828 0)
(1.59713 0.0264002 0)
(1.60024 0.0462826 0)
(1.60368 0.0435656 0)
(1.60449 0.0320136 0)
(1.60294 0.0211767 0)
(1.60032 0.012848 0)
(1.59659 0.0100834 0)
(1.59448 0.010919 0)
(1.59495 0.0130273 0)
(1.5965 0.0145381 0)
(1.5983 0.0148177 0)
(1.60067 0.0145166 0)
(1.60338 0.013333 0)
(1.60601 0.0117014 0)
(1.60874 0.0102702 0)
(1.6118 0.00953509 0)
(1.61522 0.00922926 0)
(1.61885 0.00903962 0)
(1.62233 0.00881601 0)
(1.62493 0.00881478 0)
(1.6266 0.00894275 0)
(1.62713 0.00923649 0)
(1.62491 0.00983445 0)
(1.61599 0.0109512 0)
(1.59137 0.013572 0)
(1.53045 0.0197351 0)
(1.38484 0.0339029 0)
(1.04004 0.0672163 0)
(0.455148 0.146761 0)
(-0.0016049 0.191213 0)
(-0.231058 0.0961108 0)
(-0.331122 0.00826773 0)
(-0.391588 -0.0250193 0)
(-0.361399 -0.038499 0)
(-0.273333 -0.0533329 0)
(-0.174627 -0.0617538 0)
(-0.0742042 -0.0661486 0)
(0.038021 -0.0636646 0)
(0.135541 -0.0539741 0)
(0.218853 -0.047801 0)
(0.296156 -0.043633 0)
(0.367495 -0.0402022 0)
(0.433244 -0.0371612 0)
(0.492841 -0.0340797 0)
(0.549213 -0.0316281 0)
(0.605847 -0.0304271 0)
(0.662361 -0.0296804 0)
(0.71649 -0.0282439 0)
(0.768002 -0.0265692 0)
(0.817194 -0.0250795 0)
(0.864469 -0.0238527 0)
(0.909991 -0.022709 0)
(0.953982 -0.0216248 0)
(0.996514 -0.0205595 0)
(1.03774 -0.0195238 0)
(1.07771 -0.0185082 0)
(1.11653 -0.0175271 0)
(1.15422 -0.0165708 0)
(1.19085 -0.015652 0)
(1.22644 -0.014754 0)
(1.26103 -0.0138926 0)
(1.29462 -0.0130465 0)
(1.32727 -0.0122352 0)
(1.359 -0.0114358 0)
(1.38988 -0.0106699 0)
(1.41994 -0.00991471 0)
(1.44924 -0.00919453 0)
(1.47781 -0.00848785 0)
(1.50568 -0.00781933 0)
(1.53286 -0.00716468 0)
(1.55938 -0.00654569 0)
(1.58523 -0.00594052 0)
(1.61046 -0.00536046 0)
(1.63508 -0.00479436 0)
(1.65912 -0.00427695 0)
(1.6826 -0.00379264 0)
(1.70555 -0.00333289 0)
(1.72798 -0.00291419 0)
(1.74992 -0.0025491 0)
(1.7714 -0.00222504 0)
(1.79243 -0.00197695 0)
(1.81303 -0.00174945 0)
(1.83325 -0.00149389 0)
(1.85314 -0.00121483 0)
(1.8727 -0.000938121 0)
(1.89191 -0.000671573 0)
(1.91072 -0.000411643 0)
(1.92901 -0.000143335 0)
(1.94654 0.000159129 0)
(1.96273 0.00055935 0)
(1.97609 0.00100511 0)
(1.98584 0.00197318 0)
(1.37138 1.00747 0)
(1.68855 0.721714 0)
(1.86348 0.404111 0)
(1.94733 0.131525 0)
(1.99666 -0.064096 0)
(2.02579 -0.16673 0)
(2.03443 -0.171992 0)
(2.03286 -0.130467 0)
(2.01854 -0.0813772 0)
(1.99589 -0.042415 0)
(1.97892 -0.0210809 0)
(1.97412 -0.0147016 0)
(1.97499 -0.0167613 0)
(1.97704 -0.0216388 0)
(1.97879 -0.023943 0)
(1.97945 -0.0234898 0)
(1.97988 -0.0215525 0)
(1.97984 -0.0192895 0)
(1.98005 -0.0172363 0)
(1.98089 -0.015597 0)
(1.98192 -0.0146506 0)
(1.98335 -0.0141943 0)
(1.9854 -0.0139507 0)
(1.98778 -0.0136805 0)
(1.99011 -0.0132589 0)
(1.99234 -0.0127276 0)
(1.99452 -0.0121555 0)