/*--------------------------------*- C++ -*----------------------------------*\
  =========                 |
  \\      /  F ield         | OpenFOAM: The Open Source CFD Toolbox
   \\    /   O peration     | Website:  https://openfoam.org
    \\  /    A nd           | Version:  10
     \\/     M anipulation  |
\*---------------------------------------------------------------------------*/
FoamFile
{
    format      ascii;
    class       volScalarField;
    location    "0.12";
    object      beta;
}
// * * * * * * * * * * * * * * * * * * * * * * * * * * * * * * * * * * * * * //

dimensions      [0 0 0 0 0 0 0];

internalField   uniform 0;

boundaryField
{
    frontAndBack
    {
        type            empty;
    }
    inlet
    {
        type            calculated;
        value           uniform 0;
    }
    outlet
    {
        type            calculated;
        value           uniform 0;
    }
    substrate
    {
        type            calculated;
        value           nonuniform List<scalar> 
400
(
0.00300911
0.00327318
0.00352457
0.00376868
0.00400792
0.00424333
0.00447529
0.00470382
0.00492875
0.00514981
0.00536667
0.00557897
0.00578637
0.00598855
0.00618521
0.0063761
0.00656098
0.00673969
0.00691209
0.00707809
0.00723763
0.00739071
0.00753732
0.00767754
0.00781142
0.00793908
0.00806064
0.00817624
0.00828603
0.00839019
0.0084889
0.00858235
0.00867072
0.00875422
0.00883305
0.00890739
0.00897746
0.00904345
0.00910555
0.00916395
0.00921884
0.0092704
0.00931879
0.00936419
0.00940676
0.00944666
0.00948404
0.00951904
0.00955179
0.00958244
0.00961109
0.00963788
0.00966291
0.0096863
0.00970813
0.00972851
0.00974754
0.00976528
0.00978183
0.00979726
0.00981164
0.00982504
0.00983753
0.00984916
0.00985998
0.00987006
0.00987944
0.00988817
0.00989628
0.00990383
0.00991085
0.00991737
0.00992343
0.00992907
0.0099343
0.00993916
0.00994367
0.00994786
0.00995174
0.00995535
0.0099587
0.0099618
0.00996468
0.00996735
0.00996982
0.00997211
0.00997423
0.0099762
0.00997802
0.00997971
0.00998127
0.00998271
0.00998405
0.00998529
0.00998643
0.00998749
0.00998846
0.00998937
0.0099902
0.00999097
0.00999169
0.00999235
0.00999295
0.00999351
0.00999403
0.00999451
0.00999495
0.00999536
0.00999573
0.00999608
0.00999639
0.00999669
0.00999696
0.00999721
0.00999743
0.00999765
0.00999784
0.00999802
0.00999818
0.00999833
0.00999847
0.0099986
0.00999872
0.00999882
0.00999892
0.00999901
0.0099991
0.00999917
0.00999924
0.00999931
0.00999937
0.00999942
0.00999947
0.00999952
0.00999956
0.0099996
0.00999963
0.00999966
0.00999969
0.00999972
0.00999974
0.00999977
0.00999979
0.00999981
0.00999982
0.00999984
0.00999985
0.00999987
0.00999988
0.00999989
0.0099999
0.00999991
0.00999992
0.00999992
0.00999993
0.00999994
0.00999994
0.00999995
0.00999995
0.00999996
0.00999996
0.00999997
0.00999997
0.00999997
0.00999997
0.00999998
0.00999998
0.00999998
0.00999998
0.00999998
0.00999999
0.00999999
0.00999999
0.00999999
0.00999999
0.00999999
0.00999999
0.00999999
0.00999999
0.00999999
0.00999999
0.01
0.01
0.01
0.01
0.01
0.01
0.01
0.01
0.01
0.01
0.01
0.01
0.01
0.01
0.01
0.01
0.01
0.01
0.01
0.01
0.01
0.01
0.01
0.01
0.01
0.01
0.01
0.01
0.01
0.01
0.01
0.01
0.01
0.01
0.01
0.01
0.01
0.01
0.01
0.01
0.01
0.01
0.01
0.01
0.01
0.01
0.01
0.01
0.01
0.01
0.01
0.01
0.01
0.01
0.01
0.01
0.01
0.01
0.01
0.01
0.01
0.01
0.01
0.01
0.01
0.01
0.01
0.01
0.01
0.01
0.01
0.01
0.01
0.01
0.01
0.01
0.01
0.01
0.01
0.01
0.01
0.01
0.01
0.01
0.01
0.01
0.01
0.01
0.01
0.01
0.01
0.01
0.01
0.01
0.01
0.01
0.01
0.01
0.01
0.01
0.01
0.01
0.01
0.01
0.01
0.01
0.01
0.01
0.01
0.01
0.01
0.01
0.01
0.01
0.01
0.01
0.01
0.01
0.01
0.01
0.01
0.01
0.01
0.01
0.01
0.01
0.01
0.01
0.01
0.01
0.01
0.01
0.01
0.01
0.01
0.01
0.01
0.01
0.01
0.01
0.01
0.01
0.01
0.01
0.01
0.01
0.01
0.01
0.01
0.01
0.01
0.01
0.01
0.01
0.01
0.01
0.01
0.01
0.01
0.01
0.01
0.01
0.01
0.01
0.01
0.01
0.01
0.01
0.01
0.01
0.01
0.01
0.01
0.01
0.01
0.01
0.01
0.01
0.01
0.01
0.01
0.01
0.01
0.01
0.01
0.01
0.01
0.01
0.01
0.01
0.01
0.01
0.01
0.01
0.01
0.01
0.01
0.01
0.01
0.01
0.01
0.01
0.01
0.01
0.01
0.01
0.01
0.01
0.01
0.01
0.01
0.01
0.01
0.01
0.01
0.01
0.01
0.01
0.01
)
;
    }
    Wall
    {
        type            calculated;
        value           nonuniform List<scalar> 
400
(
0.00300911
0.00327318
0.00352456
0.00376867
0.00400791
0.00424333
0.00447528
0.00470381
0.00492875
0.0051498
0.00536666
0.00557895
0.00578635
0.00598853
0.00618518
0.00637606
0.00656094
0.00673964
0.00691204
0.00707804
0.00723758
0.00739065
0.00753726
0.00767747
0.00781135
0.00793901
0.00806057
0.00817616
0.00828596
0.00839012
0.00848883
0.00858227
0.00867065
0.00875415
0.00883297
0.00890732
0.00897739
0.00904338
0.00910549
0.00916389
0.00921878
0.00927033
0.00931873
0.00936413
0.0094067
0.00944661
0.00948398
0.00951898
0.00955174
0.00958239
0.00961104
0.00963783
0.00966287
0.00968625
0.00970809
0.00972848
0.0097475
0.00976525
0.0097818
0.00979723
0.00981161
0.00982501
0.0098375
0.00984913
0.00985996
0.00987004
0.00987942
0.00988814
0.00989626
0.00990381
0.00991083
0.00991735
0.00992342
0.00992905
0.00993428
0.00993914
0.00994366
0.00994784
0.00995173
0.00995534
0.00995869
0.00996179
0.00996467
0.00996734
0.00996981
0.0099721
0.00997423
0.00997619
0.00997801
0.0099797
0.00998126
0.00998271
0.00998404
0.00998528
0.00998643
0.00998748
0.00998846
0.00998936
0.0099902
0.00999097
0.00999168
0.00999234
0.00999295
0.00999351
0.00999403
0.00999451
0.00999495
0.00999535
0.00999573
0.00999607
0.00999639
0.00999669
0.00999696
0.0099972
0.00999743
0.00999764
0.00999784
0.00999802
0.00999818
0.00999833
0.00999847
0.0099986
0.00999872
0.00999882
0.00999892
0.00999901
0.0099991
0.00999917
0.00999924
0.00999931
0.00999937
0.00999942
0.00999947
0.00999952
0.00999956
0.0099996
0.00999963
0.00999966
0.00999969
0.00999972
0.00999974
0.00999977
0.00999979
0.00999981
0.00999982
0.00999984
0.00999985
0.00999987
0.00999988
0.00999989
0.0099999
0.00999991
0.00999992
0.00999992
0.00999993
0.00999994
0.00999994
0.00999995
0.00999995
0.00999996
0.00999996
0.00999997
0.00999997
0.00999997
0.00999997
0.00999998
0.00999998
0.00999998
0.00999998
0.00999998
0.00999999
0.00999999
0.00999999
0.00999999
0.00999999
0.00999999
0.00999999
0.00999999
0.00999999
0.00999999
0.00999999
0.01
0.01
0.01
0.01
0.01
0.01
0.01
0.01
0.01
0.01
0.01
0.01
0.01
0.01
0.01
0.01
0.01
0.01
0.01
0.01
0.01
0.01
0.01
0.01
0.01
0.01
0.01
0.01
0.01
0.01
0.01
0.01
0.01
0.01
0.01
0.01
0.01
0.01
0.01
0.01
0.01
0.01
0.01
0.01
0.01
0.01
0.01
0.01
0.01
0.01
0.01
0.01
0.01
0.01
0.01
0.01
0.01
0.01
0.01
0.01
0.01
0.01
0.01
0.01
0.01
0.01
0.01
0.01
0.01
0.01
0.01
0.01
0.01
0.01
0.01
0.01
0.01
0.01
0.01
0.01
0.01
0.01
0.01
0.01
0.01
0.01
0.01
0.01
0.01
0.01
0.01
0.01
0.01
0.01
0.01
0.01
0.01
0.01
0.01
0.01
0.01
0.01
0.01
0.01
0.01
0.01
0.01
0.01
0.01
0.01
0.01
0.01
0.01
0.01
0.01
0.01
0.01
0.01
0.01
0.01
0.01
0.01
0.01
0.01
0.01
0.01
0.01
0.01
0.01
0.01
0.01
0.01
0.01
0.01
0.01
0.01
0.01
0.01
0.01
0.01
0.01
0.01
0.01
0.01
0.01
0.01
0.01
0.01
0.01
0.01
0.01
0.01
0.01
0.01
0.01
0.01
0.01
0.01
0.01
0.01
0.01
0.01
0.01
0.01
0.01
0.01
0.01
0.01
0.01
0.01
0.01
0.01
0.01
0.01
0.01
0.01
0.01
0.01
0.01
0.01
0.01
0.01
0.01
0.01
0.01
0.01
0.01
0.01
0.01
0.01
0.01
0.01
0.01
0.01
0.01
0.01
0.01
0.01
0.01
0.01
0.01
0.01
0.01
0.01
0.01
0.01
0.01
0.01
0.01
0.01
0.01
0.01
0.01
0.01
0.01
0.01
0.01
0.01
0.01
)
;
    }
}


// ************************************************************************* //
