/*--------------------------------*- C++ -*----------------------------------*\
  =========                 |
  \\      /  F ield         | OpenFOAM: The Open Source CFD Toolbox
   \\    /   O peration     | Website:  https://openfoam.org
    \\  /    A nd           | Version:  10
     \\/     M anipulation  |
\*---------------------------------------------------------------------------*/
FoamFile
{
    format      ascii;
    class       volScalarField;
    location    "0.12";
    object      Exp1;
}
// * * * * * * * * * * * * * * * * * * * * * * * * * * * * * * * * * * * * * //

dimensions      [0 0 0 0 0 0 0];

internalField   uniform 0;

boundaryField
{
    frontAndBack
    {
        type            empty;
    }
    inlet
    {
        type            calculated;
        value           uniform 0;
    }
    outlet
    {
        type            calculated;
        value           uniform 0;
    }
    substrate
    {
        type            calculated;
        value           nonuniform List<scalar> 
400
(
0.0817693
0.0796727
0.077659
0.0756518
0.0736198
0.0715519
0.0694474
0.0673106
0.0651484
0.0629691
0.0607813
0.0585933
0.0564134
0.0542493
0.052108
0.0499959
0.0479186
0.0458812
0.0438878
0.0419422
0.0400475
0.038206
0.0364198
0.0346903
0.0330186
0.0314053
0.0298506
0.0283547
0.026917
0.0255372
0.0242145
0.0229478
0.0217362
0.0205783
0.0194729
0.0184184
0.0174135
0.0164565
0.0155458
0.0146799
0.0138571
0.0130758
0.0123343
0.011631
0.0109644
0.0103328
0.0097348
0.00916876
0.00863327
0.00812689
0.00764824
0.00719599
0.00676883
0.00636552
0.00598485
0.00562568
0.00528689
0.00496743
0.00466627
0.00438245
0.00411503
0.00386314
0.00362593
0.0034026
0.00319239
0.00299456
0.00280843
0.00263335
0.00246869
0.00231387
0.00216832
0.00203152
0.00190297
0.00178219
0.00166874
0.00156219
0.00146215
0.00136823
0.00128007
0.00119734
0.00111972
0.00104691
0.000978617
0.000914583
0.00085455
0.000798281
0.000745551
0.000696146
0.000649867
0.000606525
0.000565943
0.000527953
0.000492397
0.000459127
0.000428002
0.000398891
0.00037167
0.000346222
0.000322437
0.000300211
0.000279448
0.000260055
0.000241947
0.000225042
0.000209265
0.000194544
0.000180812
0.000168005
0.000156065
0.000144935
0.000134563
0.000124901
0.000115901
0.000107521
9.97197e-05
9.24597e-05
8.5705e-05
7.94222e-05
7.35798e-05
6.81486e-05
6.31008e-05
5.84109e-05
5.40545e-05
5.00092e-05
4.62537e-05
4.27683e-05
3.95345e-05
3.65349e-05
3.37535e-05
3.11749e-05
2.87853e-05
2.65712e-05
2.45205e-05
2.26217e-05
2.08639e-05
1.92372e-05
1.77322e-05
1.63403e-05
1.50534e-05
1.38638e-05
1.27645e-05
1.1749e-05
1.08112e-05
9.94532e-06
9.14615e-06
8.40875e-06
7.72856e-06
7.10132e-06
6.52308e-06
5.99017e-06
5.49919e-06
5.04697e-06
4.63058e-06
4.24729e-06
3.89459e-06
3.57012e-06
3.27171e-06
2.99737e-06
2.74521e-06
2.51352e-06
2.30071e-06
2.10529e-06
1.92589e-06
1.76125e-06
1.61021e-06
1.47168e-06
1.34467e-06
1.22825e-06
1.12158e-06
1.02386e-06
9.34373e-07
8.52451e-07
7.77478e-07
7.08884e-07
6.46147e-07
5.88783e-07
5.36349e-07
4.88437e-07
4.44669e-07
4.047e-07
3.68211e-07
3.34909e-07
3.04527e-07
2.76815e-07
2.51548e-07
2.28517e-07
2.07531e-07
1.88414e-07
1.71005e-07
1.55157e-07
1.40733e-07
1.27611e-07
1.15677e-07
1.04826e-07
9.49629e-08
8.60012e-08
7.78609e-08
7.04689e-08
6.37587e-08
5.76693e-08
5.21451e-08
4.71351e-08
4.25931e-08
3.84765e-08
3.47468e-08
3.13686e-08
2.83099e-08
2.55413e-08
2.3036e-08
2.07699e-08
1.87207e-08
1.68683e-08
1.51942e-08
1.36819e-08
1.23162e-08
1.10832e-08
9.9704e-09
8.96644e-09
8.06095e-09
7.24455e-09
6.50871e-09
5.84571e-09
5.24853e-09
4.71081e-09
4.2268e-09
3.79127e-09
3.39951e-09
3.04722e-09
2.73054e-09
2.44596e-09
2.19032e-09
1.96075e-09
1.75465e-09
1.5697e-09
1.40378e-09
1.25497e-09
1.12157e-09
1.00201e-09
8.94901e-10
7.98971e-10
7.13086e-10
6.36219e-10
5.67447e-10
5.05939e-10
4.50946e-10
4.01794e-10
3.57879e-10
3.18656e-10
2.83636e-10
2.52379e-10
2.2449e-10
1.99615e-10
1.77436e-10
1.57667e-10
1.40054e-10
1.24365e-10
1.10396e-10
9.79627e-11
8.68998e-11
7.70597e-11
6.83105e-11
6.05338e-11
5.3624e-11
4.74865e-11
4.2037e-11
3.72001e-11
3.29083e-11
2.91016e-11
2.57264e-11
2.27347e-11
2.00839e-11
1.77361e-11
1.56573e-11
1.38173e-11
1.21893e-11
1.07494e-11
9.4763e-12
8.35105e-12
7.35684e-12
6.47873e-12
5.70343e-12
5.01916e-12
4.41543e-12
3.88297e-12
3.41351e-12
2.99976e-12
2.63524e-12
2.31419e-12
2.03155e-12
1.7828e-12
1.56395e-12
1.37149e-12
1.20228e-12
1.05358e-12
9.22947e-13
8.08224e-13
7.0751e-13
6.19128e-13
5.41595e-13
4.73603e-13
4.14e-13
3.6177e-13
3.16017e-13
2.75953e-13
2.40882e-13
2.10193e-13
1.8335e-13
1.59877e-13
1.3936e-13
1.21433e-13
1.05774e-13
9.21011e-14
8.01674e-14
6.9755e-14
6.06734e-14
5.27553e-14
4.58542e-14
3.98415e-14
3.4605e-14
3.00459e-14
2.60782e-14
2.26263e-14
1.96243e-14
1.70145e-14
1.47465e-14
1.27762e-14
1.10652e-14
9.57995e-15
8.29106e-15
7.173e-15
6.20349e-15
5.36309e-15
4.63488e-15
4.00411e-15
3.45793e-15
2.98519e-15
2.57615e-15
2.22236e-15
1.91646e-15
1.65208e-15
1.42365e-15
1.22637e-15
1.05605e-15
9.09051e-16
7.82235e-16
6.72867e-16
5.78582e-16
4.97329e-16
4.27333e-16
3.67056e-16
3.15168e-16
2.70517e-16
2.32109e-16
1.99082e-16
1.70692e-16
1.46299e-16
1.25346e-16
1.07355e-16
9.19134e-17
7.86644e-17
6.73009e-17
5.75582e-17
4.92081e-17
4.20541e-17
3.59273e-17
3.0682e-17
2.61931e-17
2.23529e-17
1.90688e-17
1.62614e-17
1.38624e-17
1.1813e-17
1.00631e-17
8.56939e-18
7.29487e-18
6.20778e-18
5.28092e-18
4.49101e-18
3.81807e-18
3.24505e-18
2.75733e-18
2.34242e-18
1.98965e-18
1.68991e-18
1.4354e-18
1.21951e-18
1.03657e-18
8.8177e-19
7.51027e-19
6.40873e-19
5.48375e-19
4.7106e-19
4.06856e-19
3.54033e-19
3.11165e-19
2.77092e-19
2.50887e-19
2.31837e-19
2.19421e-19
2.13298e-19
)
;
    }
    Wall
    {
        type            calculated;
        value           nonuniform List<scalar> 
400
(
0.0817689
0.0796718
0.0776592
0.0756521
0.0736196
0.0715511
0.0694461
0.0673089
0.0651466
0.0629671
0.0607791
0.0585912
0.0564113
0.0542472
0.052106
0.049994
0.0479168
0.0458794
0.0438861
0.0419407
0.040046
0.0382046
0.0364185
0.0346891
0.0330175
0.0314043
0.0298497
0.0283539
0.0269163
0.0255366
0.0242139
0.0229473
0.0217357
0.0205779
0.0194725
0.0184181
0.0174132
0.0164562
0.0155456
0.0146797
0.013857
0.0130757
0.0123342
0.011631
0.0109644
0.0103328
0.00973478
0.00916876
0.00863327
0.0081269
0.00764826
0.00719602
0.00676886
0.00636555
0.00598489
0.00562572
0.00528694
0.00496747
0.00466632
0.0043825
0.00411508
0.00386319
0.00362598
0.00340265
0.00319243
0.00299461
0.00280848
0.00263339
0.00246873
0.00231391
0.00216836
0.00203156
0.00190301
0.00178223
0.00166878
0.00156223
0.00146218
0.00136826
0.0012801
0.00119737
0.00111975
0.00104693
0.000978644
0.000914608
0.000854575
0.000798305
0.000745573
0.000696168
0.000649888
0.000606545
0.000565962
0.000527971
0.000492415
0.000459144
0.000428018
0.000398907
0.000371685
0.000346236
0.00032245
0.000300224
0.00027946
0.000260067
0.000241958
0.000225053
0.000209275
0.000194554
0.000180821
0.000168014
0.000156073
0.000144943
0.00013457
0.000124907
0.000115907
0.000107527
9.97255e-05
9.24652e-05
8.57102e-05
7.94271e-05
7.35845e-05
6.8153e-05
6.3105e-05
5.84148e-05
5.40582e-05
5.00127e-05
4.6257e-05
4.27714e-05
3.95374e-05
3.65377e-05
3.3756e-05
3.11774e-05
2.87876e-05
2.65734e-05
2.45225e-05
2.26235e-05
2.08657e-05
1.92389e-05
1.77338e-05
1.63418e-05
1.50548e-05
1.38651e-05
1.27657e-05
1.17502e-05
1.08122e-05
9.94631e-06
9.14708e-06
8.40962e-06
7.72937e-06
7.10207e-06
6.52378e-06
5.99083e-06
5.4998e-06
5.04754e-06
4.63111e-06
4.24779e-06
3.89505e-06
3.57055e-06
3.27211e-06
2.99774e-06
2.74556e-06
2.51385e-06
2.30101e-06
2.10556e-06
1.92615e-06
1.76149e-06
1.61043e-06
1.47189e-06
1.34486e-06
1.22843e-06
1.12174e-06
1.02401e-06
9.34512e-07
8.5258e-07
7.77597e-07
7.08994e-07
6.46248e-07
5.88877e-07
5.36436e-07
4.88517e-07
4.44743e-07
4.04768e-07
3.68274e-07
3.34967e-07
3.0458e-07
2.76864e-07
2.51593e-07
2.28559e-07
2.07569e-07
1.88449e-07
1.71037e-07
1.55186e-07
1.40761e-07
1.27636e-07
1.157e-07
1.04847e-07
9.49822e-08
8.60189e-08
7.78771e-08
7.04837e-08
6.37723e-08
5.76818e-08
5.21565e-08
4.71455e-08
4.26026e-08
3.84852e-08
3.47547e-08
3.13759e-08
2.83165e-08
2.55473e-08
2.30415e-08
2.07749e-08
1.87253e-08
1.68724e-08
1.5198e-08
1.36854e-08
1.23193e-08
1.10861e-08
9.97301e-09
8.96881e-09
8.06311e-09
7.24651e-09
6.5105e-09
5.84733e-09
5.25e-09
4.71214e-09
4.22801e-09
3.79237e-09
3.4005e-09
3.04812e-09
2.73135e-09
2.4467e-09
2.19099e-09
1.96135e-09
1.7552e-09
1.57019e-09
1.40422e-09
1.25538e-09
1.12193e-09
1.00234e-09
8.95198e-10
7.99239e-10
7.13327e-10
6.36436e-10
5.67643e-10
5.06115e-10
4.51104e-10
4.01937e-10
3.58008e-10
3.18772e-10
2.8374e-10
2.52472e-10
2.24574e-10
1.9969e-10
1.77504e-10
1.57728e-10
1.40108e-10
1.24414e-10
1.1044e-10
9.8002e-11
8.6935e-11
7.70913e-11
6.83387e-11
6.0559e-11
5.36466e-11
4.75067e-11
4.20551e-11
3.72162e-11
3.29227e-11
2.91145e-11
2.57378e-11
2.27449e-11
2.00931e-11
1.77442e-11
1.56645e-11
1.38238e-11
1.21951e-11
1.07545e-11
9.48086e-12
8.3551e-12
7.36044e-12
6.48193e-12
5.70628e-12
5.02169e-12
4.41768e-12
3.88496e-12
3.41528e-12
3.00133e-12
2.63663e-12
2.31543e-12
2.03264e-12
1.78376e-12
1.5648e-12
1.37224e-12
1.20295e-12
1.05417e-12
9.23469e-13
8.08685e-13
7.07918e-13
6.19488e-13
5.41912e-13
4.73883e-13
4.14247e-13
3.61988e-13
3.16209e-13
2.76122e-13
2.41031e-13
2.10324e-13
1.83465e-13
1.59978e-13
1.39449e-13
1.21511e-13
1.05842e-13
9.21616e-14
8.02204e-14
6.98016e-14
6.07142e-14
5.27911e-14
4.58855e-14
3.9869e-14
3.4629e-14
3.0067e-14
2.60966e-14
2.26424e-14
1.96384e-14
1.70268e-14
1.47573e-14
1.27856e-14
1.10735e-14
9.58713e-15
8.29732e-15
7.17847e-15
6.20825e-15
5.36724e-15
4.6385e-15
4.00726e-15
3.46068e-15
2.98757e-15
2.57822e-15
2.22416e-15
1.91803e-15
1.65344e-15
1.42484e-15
1.2274e-15
1.05694e-15
9.09825e-16
7.82906e-16
6.73449e-16
5.79086e-16
4.97766e-16
4.27711e-16
3.67384e-16
3.15451e-16
2.70762e-16
2.32321e-16
1.99265e-16
1.70851e-16
1.46435e-16
1.25464e-16
1.07457e-16
9.20013e-17
7.87402e-17
6.73662e-17
5.76144e-17
4.92565e-17
4.20959e-17
3.59632e-17
3.07129e-17
2.62197e-17
2.23757e-17
1.90884e-17
1.62783e-17
1.38768e-17
1.18255e-17
1.00738e-17
8.57855e-18
7.30271e-18
6.2145e-18
5.28669e-18
4.49594e-18
3.8223e-18
3.24867e-18
2.76042e-18
2.34507e-18
1.99191e-18
1.69184e-18
1.43706e-18
1.22092e-18
1.03777e-18
8.82802e-19
7.5191e-19
6.41629e-19
5.49023e-19
4.71618e-19
4.07337e-19
3.54452e-19
3.11534e-19
2.77421e-19
2.51186e-19
2.3211e-19
2.19664e-19
2.13526e-19
)
;
    }
}


// ************************************************************************* //
