/*--------------------------------*- C++ -*----------------------------------*\
  =========                 |
  \\      /  F ield         | OpenFOAM: The Open Source CFD Toolbox
   \\    /   O peration     | Website:  https://openfoam.org
    \\  /    A nd           | Version:  10
     \\/     M anipulation  |
\*---------------------------------------------------------------------------*/
FoamFile
{
    format      ascii;
    class       volScalarField;
    location    "0.12";
    object      growth;
}
// * * * * * * * * * * * * * * * * * * * * * * * * * * * * * * * * * * * * * //

dimensions      [0 0 0 0 0 0 0];

internalField   uniform 0;

boundaryField
{
    frontAndBack
    {
        type            empty;
    }
    inlet
    {
        type            calculated;
        value           uniform 0;
    }
    outlet
    {
        type            calculated;
        value           uniform 0;
    }
    substrate
    {
        type            calculated;
        value           nonuniform List<scalar> 
400
(
0.699089
0.672682
0.647543
0.623132
0.599208
0.575667
0.552471
0.529618
0.507125
0.485019
0.463333
0.442103
0.421363
0.401145
0.381479
0.36239
0.343902
0.326031
0.308791
0.292191
0.276237
0.260929
0.246268
0.232246
0.218858
0.206092
0.193936
0.182376
0.171397
0.160981
0.15111
0.141765
0.132928
0.124578
0.116695
0.109261
0.102254
0.0956547
0.0894446
0.0836045
0.0781158
0.0729605
0.0681212
0.063581
0.0593238
0.0553338
0.0515961
0.0480963
0.0448208
0.0417564
0.0388908
0.0362119
0.0337087
0.0313704
0.0291868
0.0271485
0.0252464
0.0234719
0.0218169
0.0202739
0.0188357
0.0174955
0.0162471
0.0150843
0.0140017
0.0129939
0.0120561
0.0111835
0.0103718
0.00961696
0.00891517
0.00826282
0.00765659
0.00709333
0.00657011
0.0060842
0.00563304
0.00521423
0.00482553
0.00446487
0.00413028
0.00381996
0.0035322
0.00326542
0.00301815
0.002789
0.0025767
0.00238005
0.00219793
0.00202931
0.00187321
0.00172875
0.00159508
0.00147142
0.00135705
0.00125129
0.00115352
0.00106316
0.00097965
0.0009025
0.000831239
0.000765433
0.000704676
0.000648595
0.000596841
0.000549091
0.000505045
0.000464425
0.000426974
0.000392452
0.000360637
0.000331323
0.000304321
0.000279454
0.000256559
0.000235483
0.000216088
0.000198242
0.000181827
0.000166732
0.000152852
0.000140095
0.000128371
0.000117599
0.000107706
9.86202e-05
9.02791e-05
8.26231e-05
7.55977e-05
6.91526e-05
6.32413e-05
5.7821e-05
5.2852e-05
4.8298e-05
4.41254e-05
4.03031e-05
3.68026e-05
3.35977e-05
3.06641e-05
2.79796e-05
2.55235e-05
2.32771e-05
2.1223e-05
1.93452e-05
1.7629e-05
1.60609e-05
1.46285e-05
1.33204e-05
1.21262e-05
1.10361e-05
1.00414e-05
9.1339e-06
8.30628e-06
7.55165e-06
6.86377e-06
6.2369e-06
5.66578e-06
5.14559e-06
4.67191e-06
4.2407e-06
3.84826e-06
3.4912e-06
3.16642e-06
2.87108e-06
2.60257e-06
2.35854e-06
2.13681e-06
1.9354e-06
1.75249e-06
1.58644e-06
1.43572e-06
1.29897e-06
1.17491e-06
1.06241e-06
9.60419e-07
8.67976e-07
7.84211e-07
7.08333e-07
6.39617e-07
5.77406e-07
5.21099e-07
4.7015e-07
4.24063e-07
3.82385e-07
3.44705e-07
3.1065e-07
2.7988e-07
2.52085e-07
2.26986e-07
2.04327e-07
1.83877e-07
1.65426e-07
1.48783e-07
1.33776e-07
1.20248e-07
1.08056e-07
9.70721e-08
8.71793e-08
7.82717e-08
7.02536e-08
6.30383e-08
5.65473e-08
5.07098e-08
4.54614e-08
4.07441e-08
3.65054e-08
3.2698e-08
2.92789e-08
2.62095e-08
2.34548e-08
2.09833e-08
1.87667e-08
1.67791e-08
1.49975e-08
1.3401e-08
1.19708e-08
1.069e-08
9.54331e-09
8.51704e-09
7.59881e-09
6.77749e-09
6.0431e-09
5.38662e-09
4.79998e-09
4.27591e-09
3.80788e-09
3.39003e-09
3.01709e-09
2.68435e-09
2.38756e-09
2.12292e-09
1.88702e-09
1.67682e-09
1.48956e-09
1.3228e-09
1.17433e-09
1.04221e-09
9.24653e-10
8.201e-10
7.27138e-10
6.4451e-10
5.7109e-10
5.05873e-10
4.4796e-10
3.96551e-10
3.5093e-10
3.10458e-10
2.74565e-10
2.42745e-10
2.14543e-10
1.89557e-10
1.67426e-10
1.47832e-10
1.30489e-10
1.15143e-10
1.01569e-10
8.95658e-11
7.89558e-11
6.95799e-11
6.12975e-11
5.39834e-11
4.75265e-11
4.18283e-11
3.68012e-11
3.23677e-11
2.8459e-11
2.5014e-11
2.19789e-11
1.93057e-11
1.6952e-11
1.48804e-11
1.30576e-11
1.14543e-11
1.00446e-11
8.80545e-12
7.71661e-12
6.76017e-12
5.92031e-12
5.18306e-12
4.53612e-12
3.9686e-12
3.47093e-12
3.03466e-12
2.65233e-12
2.3174e-12
2.02409e-12
1.76731e-12
1.54259e-12
1.34599e-12
1.17405e-12
1.02373e-12
8.9236e-13
7.77585e-13
6.77343e-13
5.89826e-13
5.13443e-13
4.46801e-13
3.88677e-13
3.38001e-13
2.93832e-13
2.55348e-13
2.2183e-13
1.92646e-13
1.67245e-13
1.45143e-13
1.2592e-13
1.09206e-13
9.46775e-14
8.20543e-14
7.10898e-14
6.15695e-14
5.3306e-14
4.61358e-14
3.99164e-14
3.45236e-14
2.98492e-14
2.57989e-14
2.22906e-14
1.92527e-14
1.66232e-14
1.43478e-14
1.23797e-14
1.06779e-14
9.20687e-15
7.93576e-15
6.83779e-15
5.88971e-15
5.07134e-15
4.36518e-15
3.75605e-15
3.23081e-15
2.77806e-15
2.38794e-15
2.05189e-15
1.76252e-15
1.51344e-15
1.29911e-15
1.11475e-15
9.56221e-16
8.19953e-16
7.02861e-16
6.02282e-16
5.15916e-16
4.41783e-16
3.7817e-16
3.23606e-16
2.76818e-16
2.36712e-16
2.02347e-16
1.72911e-16
1.47706e-16
1.26131e-16
1.0767e-16
9.18796e-17
7.83773e-17
6.68361e-17
5.69746e-17
4.85512e-17
4.13587e-17
3.52195e-17
2.99812e-17
2.55131e-17
2.17033e-17
1.8456e-17
1.56891e-17
1.33324e-17
1.13257e-17
9.61777e-18
8.16453e-18
6.92847e-18
5.87751e-18
4.98424e-18
4.22529e-18
3.58068e-18
3.03339e-18
2.56889e-18
2.17482e-18
1.84061e-18
1.55729e-18
1.31721e-18
1.11386e-18
9.41698e-19
7.9602e-19
6.72825e-19
5.68715e-19
4.80807e-19
4.06656e-19
3.44193e-19
2.91666e-19
2.47597e-19
2.10742e-19
1.80055e-19
1.54664e-19
1.33844e-19
1.17e-19
1.03647e-19
9.34002e-20
8.5965e-20
8.11256e-20
7.87412e-20
)
;
    }
    Wall
    {
        type            calculated;
        value           nonuniform List<scalar> 
400
(
0.699089
0.672682
0.647544
0.623133
0.599209
0.575667
0.552472
0.529619
0.507125
0.48502
0.463334
0.442105
0.421365
0.401147
0.381482
0.362394
0.343906
0.326036
0.308796
0.292196
0.276242
0.260935
0.246274
0.232253
0.218865
0.206099
0.193943
0.182384
0.171404
0.160988
0.151117
0.141773
0.132935
0.124585
0.116703
0.109268
0.102261
0.0956616
0.0894515
0.0836112
0.0781223
0.0729669
0.0681274
0.0635871
0.0593296
0.0553395
0.0516016
0.0481017
0.044826
0.0417614
0.0388956
0.0362166
0.0337132
0.0313747
0.0291909
0.0271525
0.0252502
0.0234755
0.0218204
0.0202772
0.0188389
0.0174986
0.0162499
0.0150871
0.0140043
0.0129964
0.0120584
0.0111857
0.0103739
0.00961897
0.00891707
0.00826463
0.0076583
0.00709494
0.00657164
0.00608565
0.0056344
0.00521551
0.00482675
0.00446601
0.00413136
0.00382098
0.00353316
0.00326632
0.003019
0.0027898
0.00257745
0.00238075
0.00219859
0.00202992
0.00187379
0.00172929
0.00159559
0.0014719
0.0013575
0.00125171
0.00115391
0.00106352
0.000979989
0.000902816
0.000831534
0.000765708
0.000704933
0.000648834
0.000597063
0.000549298
0.000505238
0.000464605
0.000427141
0.000392607
0.000360781
0.000331457
0.000304446
0.00027957
0.000256666
0.000235582
0.00021618
0.000198328
0.000181906
0.000166805
0.00015292
0.000140157
0.000128429
0.000117653
0.000107755
9.86658e-05
9.03212e-05
8.26619e-05
7.56335e-05
6.91857e-05
6.32718e-05
5.78491e-05
5.28779e-05
4.83219e-05
4.41473e-05
4.03233e-05
3.68212e-05
3.36148e-05
3.06798e-05
2.7994e-05
2.55368e-05
2.32893e-05
2.12342e-05
1.93555e-05
1.76384e-05
1.60695e-05
1.46364e-05
1.33277e-05
1.21328e-05
1.10421e-05
1.00469e-05
9.13897e-06
8.31091e-06
7.55589e-06
6.86765e-06
6.24044e-06
5.66901e-06
5.14854e-06
4.6746e-06
4.24316e-06
3.85051e-06
3.49325e-06
3.16828e-06
2.87277e-06
2.60412e-06
2.35995e-06
2.13809e-06
1.93657e-06
1.75355e-06
1.5874e-06
1.4366e-06
1.29976e-06
1.17564e-06
1.06307e-06
9.61016e-07
8.68517e-07
7.84702e-07
7.08778e-07
6.40021e-07
5.77772e-07
5.2143e-07
4.7045e-07
4.24334e-07
3.82631e-07
3.44928e-07
3.10851e-07
2.80062e-07
2.5225e-07
2.27134e-07
2.04461e-07
1.83998e-07
1.65535e-07
1.48882e-07
1.33865e-07
1.20328e-07
1.08129e-07
9.71375e-08
8.72381e-08
7.83247e-08
7.03013e-08
6.30813e-08
5.6586e-08
5.07446e-08
4.54927e-08
4.07722e-08
3.65307e-08
3.27207e-08
2.92993e-08
2.62278e-08
2.34712e-08
2.09981e-08
1.87799e-08
1.67909e-08
1.50081e-08
1.34105e-08
1.19793e-08
1.06976e-08
9.55016e-09
8.52317e-09
7.60429e-09
6.7824e-09
6.04748e-09
5.39054e-09
4.80348e-09
4.27904e-09
3.81067e-09
3.39252e-09
3.01932e-09
2.68634e-09
2.38933e-09
2.1245e-09
1.88843e-09
1.67807e-09
1.49068e-09
1.32379e-09
1.17522e-09
1.043e-09
9.25356e-10
8.20725e-10
7.27694e-10
6.45004e-10
5.71529e-10
5.06263e-10
4.48307e-10
3.96859e-10
3.51203e-10
3.107e-10
2.7478e-10
2.42935e-10
2.14712e-10
1.89706e-10
1.67559e-10
1.47949e-10
1.30593e-10
1.15235e-10
1.0165e-10
8.96379e-11
7.90195e-11
6.96363e-11
6.13473e-11
5.40274e-11
4.75654e-11
4.18626e-11
3.68315e-11
3.23944e-11
2.84825e-11
2.50348e-11
2.19972e-11
1.93218e-11
1.69662e-11
1.48929e-11
1.30686e-11
1.14641e-11
1.00531e-11
8.81297e-12
7.72322e-12
6.76598e-12
5.92541e-12
5.18755e-12
4.54006e-12
3.97206e-12
3.47397e-12
3.03732e-12
2.65467e-12
2.31945e-12
2.02589e-12
1.76888e-12
1.54397e-12
1.3472e-12
1.17511e-12
1.02466e-12
8.9317e-13
7.78293e-13
6.77963e-13
5.90368e-13
5.13916e-13
4.47215e-13
3.89039e-13
3.38316e-13
2.94107e-13
2.55589e-13
2.22039e-13
1.92829e-13
1.67404e-13
1.45282e-13
1.26041e-13
1.09311e-13
9.47692e-14
8.2134e-14
7.11592e-14
6.16299e-14
5.33584e-14
4.61814e-14
3.9956e-14
3.45581e-14
2.98791e-14
2.58249e-14
2.23131e-14
1.92722e-14
1.66401e-14
1.43625e-14
1.23925e-14
1.06889e-14
9.21643e-15
7.94404e-15
6.84496e-15
5.89591e-15
5.07671e-15
4.36982e-15
3.76006e-15
3.23428e-15
2.78106e-15
2.39052e-15
2.05412e-15
1.76445e-15
1.5151e-15
1.30055e-15
1.11599e-15
9.57287e-16
8.20871e-16
7.03652e-16
6.02962e-16
5.16502e-16
4.42287e-16
3.78604e-16
3.23979e-16
2.77138e-16
2.36988e-16
2.02584e-16
1.73115e-16
1.47881e-16
1.26281e-16
1.07799e-16
9.19898e-17
7.84719e-17
6.69172e-17
5.7044e-17
4.86106e-17
4.14097e-17
3.52631e-17
3.00185e-17
2.5545e-17
2.17306e-17
1.84793e-17
1.57091e-17
1.33494e-17
1.13403e-17
9.63018e-18
8.17512e-18
6.9375e-18
5.88521e-18
4.99081e-18
4.23088e-18
3.58545e-18
3.03745e-18
2.57235e-18
2.17776e-18
1.84311e-18
1.55942e-18
1.31902e-18
1.1154e-18
9.43005e-19
7.9713e-19
6.73768e-19
5.69516e-19
4.81487e-19
4.07233e-19
3.44683e-19
2.92082e-19
2.47951e-19
2.11043e-19
1.80313e-19
1.54885e-19
1.34036e-19
1.17167e-19
1.03795e-19
9.35342e-20
8.60869e-20
8.12347e-20
7.88436e-20
)
;
    }
}


// ************************************************************************* //
