/*--------------------------------*- C++ -*----------------------------------*\
  =========                 |
  \\      /  F ield         | OpenFOAM: The Open Source CFD Toolbox
   \\    /   O peration     | Website:  https://openfoam.org
    \\  /    A nd           | Version:  10
     \\/     M anipulation  |
\*---------------------------------------------------------------------------*/
FoamFile
{
    format      ascii;
    class       volScalarField;
    location    "0.12";
    object      N1;
}
// * * * * * * * * * * * * * * * * * * * * * * * * * * * * * * * * * * * * * //

dimensions      [0 0 0 0 0 0 0];

internalField   nonuniform List<scalar> 
8000
(
0.621104
0.605465
0.590428
0.575419
0.560203
0.544697
0.528895
0.512831
0.496557
0.480136
0.463632
0.447112
0.430637
0.414266
0.398054
0.382049
0.366296
0.350833
0.335693
0.320907
0.306496
0.292482
0.278881
0.265704
0.252959
0.240654
0.22879
0.217369
0.206388
0.195845
0.185733
0.176047
0.166777
0.157917
0.149454
0.14138
0.133683
0.12635
0.119372
0.112734
0.106426
0.100434
0.0947471
0.0893522
0.0842374
0.0793908
0.0748007
0.0704557
0.0663446
0.0624566
0.0587811
0.0553079
0.0520271
0.0489291
0.0460049
0.0432455
0.0406426
0.0381879
0.0358738
0.0336927
0.0316376
0.0297017
0.0278785
0.0261619
0.0245461
0.0230254
0.0215946
0.0202487
0.0189828
0.0177926
0.0166736
0.0156218
0.0146335
0.0137049
0.0128326
0.0120133
0.011244
0.0105218
0.00984398
0.00920783
0.00861096
0.00805106
0.00752593
0.00703351
0.00657187
0.00613916
0.00573366
0.00535373
0.00499784
0.00466453
0.00435244
0.00406028
0.00378685
0.00353098
0.00329162
0.00306775
0.0028584
0.00266269
0.00247977
0.00230884
0.00214916
0.00200002
0.00186075
0.00173075
0.00160941
0.0014962
0.00139059
0.00129209
0.00120026
0.00111467
0.0010349
0.000960586
0.000891371
0.000826921
0.000766926
0.000711091
0.000659142
0.000610822
0.00056589
0.000524119
0.000485298
0.000449228
0.000415724
0.000384612
0.00035573
0.000328924
0.000304053
0.000280984
0.000259592
0.000239761
0.000221383
0.000204355
0.000188583
0.00017398
0.000160461
0.00014795
0.000136376
0.000125671
0.000115773
0.000106624
9.81699e-05
9.03599e-05
8.31471e-05
7.64879e-05
7.03416e-05
6.46704e-05
5.94392e-05
5.46151e-05
5.0168e-05
4.60695e-05
4.22934e-05
3.88155e-05
3.56131e-05
3.26653e-05
2.99527e-05
2.74572e-05
2.51623e-05
2.30523e-05
2.1113e-05
1.93311e-05
1.76944e-05
1.61914e-05
1.48117e-05
1.35455e-05
1.23839e-05
1.13185e-05
1.03417e-05
9.44631e-06
8.62588e-06
7.87434e-06
7.18612e-06
6.55607e-06
5.97946e-06
5.45192e-06
4.96942e-06
4.52824e-06
4.12498e-06
3.75649e-06
3.41988e-06
3.11248e-06
2.83185e-06
2.57574e-06
2.34207e-06
2.12894e-06
1.93462e-06
1.75749e-06
1.59609e-06
1.44906e-06
1.31517e-06
1.19329e-06
1.08236e-06
9.8144e-07
8.89653e-07
8.06199e-07
7.30346e-07
6.61422e-07
5.98816e-07
5.41966e-07
4.90359e-07
4.43526e-07
4.0104e-07
3.62509e-07
3.27577e-07
2.95917e-07
2.67232e-07
2.41251e-07
2.17727e-07
1.96434e-07
1.77167e-07
1.59738e-07
1.43978e-07
1.29731e-07
1.16857e-07
1.05226e-07
9.47219e-08
8.52391e-08
7.66809e-08
6.89595e-08
6.19956e-08
5.57167e-08
5.00575e-08
4.49585e-08
4.03656e-08
3.62301e-08
3.25077e-08
2.91581e-08
2.61451e-08
2.34357e-08
2.10002e-08
1.88115e-08
1.68454e-08
1.50798e-08
1.34948e-08
1.20723e-08
1.07962e-08
9.65182e-09
8.62583e-09
7.70633e-09
6.88255e-09
6.14477e-09
5.48424e-09
4.89306e-09
4.36415e-09
3.8911e-09
3.46815e-09
3.09014e-09
2.75239e-09
2.45074e-09
2.1814e-09
1.94101e-09
1.72652e-09
1.53521e-09
1.36463e-09
1.2126e-09
1.07713e-09
9.56473e-10
8.4904e-10
7.53416e-10
6.68333e-10
5.92655e-10
5.25366e-10
4.65556e-10
4.12414e-10
3.65212e-10
3.233e-10
2.861e-10
2.53093e-10
2.23816e-10
1.97858e-10
1.74849e-10
1.54463e-10
1.36406e-10
1.20418e-10
1.06267e-10
9.37464e-11
8.26722e-11
7.28808e-11
6.42266e-11
5.65803e-11
4.98269e-11
4.38642e-11
3.86016e-11
3.39584e-11
2.98633e-11
2.62528e-11
2.30707e-11
2.02672e-11
1.77981e-11
1.56243e-11
1.37112e-11
1.20281e-11
1.05479e-11
9.24657e-12
8.10294e-12
7.09824e-12
6.21593e-12
5.44136e-12
4.76162e-12
4.16532e-12
3.64241e-12
3.18401e-12
2.78232e-12
2.43044e-12
2.12231e-12
1.85259e-12
1.61657e-12
1.41011e-12
1.22959e-12
1.0718e-12
9.33919e-13
8.13489e-13
7.08336e-13
6.16555e-13
5.36475e-13
4.6663e-13
4.05733e-13
3.52657e-13
3.06415e-13
2.66142e-13
2.31079e-13
2.00563e-13
1.74015e-13
1.50927e-13
1.30856e-13
1.13413e-13
9.826e-14
8.51011e-14
7.3678e-14
6.37653e-14
5.51665e-14
4.77101e-14
4.12467e-14
3.56462e-14
3.0795e-14
2.65945e-14
2.29586e-14
1.98128e-14
1.70918e-14
1.47392e-14
1.27059e-14
1.09491e-14
9.43184e-15
8.1219e-15
6.99138e-15
6.01605e-15
5.17492e-15
4.44979e-15
3.82488e-15
3.28656e-15
2.82297e-15
2.42391e-15
2.08051e-15
1.78511e-15
1.53111e-15
1.31277e-15
1.12516e-15
9.64016e-16
8.25652e-16
7.06892e-16
6.04996e-16
5.17601e-16
4.42671e-16
3.78452e-16
3.23432e-16
2.76311e-16
2.35971e-16
2.01447e-16
1.71912e-16
1.46655e-16
1.25064e-16
1.06613e-16
9.08523e-17
7.73938e-17
6.59059e-17
5.61037e-17
4.77431e-17
4.06148e-17
3.45396e-17
2.93642e-17
2.49572e-17
2.12062e-17
1.80152e-17
1.53021e-17
1.29968e-17
1.10395e-17
9.37905e-18
7.97208e-18
6.78156e-18
5.77604e-18
4.92886e-18
4.21747e-18
3.62285e-18
3.12907e-18
2.72281e-18
2.39312e-18
2.13107e-18
1.92953e-18
1.78302e-18
1.68753e-18
1.64045e-18
0.623621
0.610062
0.596097
0.58175
0.566992
0.551827
0.536286
0.520421
0.504297
0.487983
0.471547
0.455059
0.438585
0.422186
0.405918
0.389833
0.373978
0.358393
0.343114
0.328172
0.313594
0.2994
0.285608
0.272234
0.259286
0.246772
0.234697
0.223062
0.211867
0.20111
0.190786
0.18089
0.171413
0.162349
0.153688
0.145419
0.137532
0.130016
0.122859
0.116049
0.109575
0.103423
0.0975813
0.0920382
0.0867814
0.0817988
0.0770787
0.0726095
0.0683799
0.0643789
0.0605958
0.0570203
0.0536422
0.0504518
0.0474399
0.0445974
0.0419156
0.0393863
0.0370015
0.0347535
0.0326352
0.0306396
0.02876
0.0269902
0.025324
0.0237559
0.0222804
0.0208923
0.0195867
0.018359
0.0172048
0.0161199
0.0151003
0.0141423
0.0132424
0.0123972
0.0116035
0.0108584
0.0101589
0.00950255
0.00888668
0.00830892
0.00776705
0.00725892
0.00678253
0.006336
0.00591754
0.00552546
0.00515818
0.0048142
0.00449212
0.00419061
0.00390841
0.00364435
0.00339732
0.00316626
0.00295021
0.00274822
0.00255943
0.00238301
0.00221821
0.00206428
0.00192054
0.00178636
0.00166113
0.00154428
0.00143528
0.00133362
0.00123884
0.00115049
0.00106816
0.000991462
0.000920023
0.000853503
0.000791579
0.00073395
0.000680331
0.000630458
0.000584082
0.000540968
0.000500899
0.00046367
0.00042909
0.000396978
0.000367166
0.000339499
0.000313829
0.000290018
0.000267938
0.00024747
0.0002285
0.000210925
0.000194647
0.000179573
0.00016562
0.000152707
0.000140761
0.000129712
0.000119495
0.000110052
0.000101326
9.32651e-05
8.58204e-05
7.89471e-05
7.26032e-05
6.67497e-05
6.13502e-05
5.63711e-05
5.17809e-05
4.75506e-05
4.36532e-05
4.00634e-05
3.67581e-05
3.37155e-05
3.09157e-05
2.834e-05
2.59712e-05
2.37934e-05
2.17918e-05
1.99526e-05
1.82633e-05
1.6712e-05
1.52879e-05
1.3981e-05
1.2782e-05
1.16824e-05
1.06742e-05
9.75001e-06
8.9032e-06
8.1275e-06
7.41715e-06
6.76685e-06
6.1717e-06
5.62719e-06
5.12918e-06
4.67382e-06
4.2576e-06
3.87726e-06
3.52983e-06
3.21255e-06
2.92289e-06
2.65854e-06
2.41736e-06
2.19738e-06
1.99681e-06
1.81399e-06
1.6474e-06
1.49565e-06
1.35745e-06
1.23165e-06
1.11715e-06
1.01299e-06
9.18253e-07
8.32116e-07
7.53824e-07
6.82685e-07
6.18066e-07
5.59388e-07
5.06122e-07
4.57784e-07
4.13932e-07
3.74163e-07
3.38107e-07
3.05429e-07
2.75823e-07
2.49006e-07
2.24726e-07
2.02748e-07
1.82862e-07
1.64873e-07
1.48606e-07
1.33901e-07
1.20613e-07
1.08608e-07
9.77668e-08
8.79791e-08
7.91457e-08
7.11762e-08
6.39884e-08
5.75077e-08
5.16666e-08
4.64036e-08
4.16632e-08
3.73947e-08
3.35526e-08
3.00954e-08
2.69855e-08
2.4189e-08
2.16752e-08
1.94162e-08
1.73869e-08
1.55645e-08
1.39285e-08
1.24604e-08
1.11433e-08
9.96205e-09
8.90308e-09
7.95403e-09
7.10377e-09
6.34227e-09
5.66051e-09
5.05033e-09
4.50442e-09
4.01616e-09
3.57962e-09
3.18946e-09
2.84086e-09
2.52951e-09
2.25151e-09
2.00339e-09
1.78201e-09
1.58455e-09
1.40849e-09
1.25157e-09
1.11175e-09
9.87214e-10
8.76328e-10
7.77631e-10
6.89813e-10
6.11702e-10
5.4225e-10
4.80519e-10
4.25668e-10
3.76949e-10
3.33691e-10
2.95295e-10
2.61227e-10
2.31009e-10
2.04216e-10
1.80468e-10
1.59427e-10
1.4079e-10
1.24288e-10
1.09682e-10
9.67592e-11
8.53291e-11
7.5223e-11
6.62907e-11
5.83986e-11
5.14282e-11
4.52739e-11
3.98421e-11
3.50497e-11
3.0823e-11
2.70965e-11
2.38121e-11
2.09185e-11
1.83701e-11
1.61264e-11
1.41518e-11
1.24146e-11
1.08868e-11
9.54371e-12
8.36332e-12
7.32634e-12
6.41567e-12
5.61621e-12
4.91463e-12
4.29917e-12
3.75945e-12
3.28633e-12
2.87173e-12
2.50854e-12
2.19051e-12
1.91212e-12
1.66851e-12
1.45543e-12
1.2691e-12
1.10624e-12
9.63928e-13
8.39628e-13
7.31096e-13
6.36366e-13
5.53713e-13
4.81624e-13
4.1877e-13
3.63989e-13
3.16261e-13
2.74693e-13
2.38503e-13
2.07007e-13
1.79606e-13
1.55777e-13
1.3506e-13
1.17057e-13
1.01417e-13
8.78354e-14
7.60452e-14
6.5814e-14
5.6939e-14
4.9243e-14
4.2572e-14
3.67914e-14
3.17844e-14
2.74489e-14
2.36963e-14
2.04493e-14
1.76409e-14
1.52128e-14
1.31141e-14
1.13009e-14
9.73486e-15
8.38284e-15
7.21599e-15
6.20933e-15
5.34117e-15
4.59274e-15
3.94776e-15
3.39214e-15
2.91367e-15
2.50178e-15
2.14735e-15
1.84246e-15
1.58029e-15
1.35494e-15
1.16131e-15
9.94985e-16
8.52176e-16
7.29601e-16
6.24432e-16
5.34229e-16
4.56892e-16
3.90609e-16
3.33822e-16
2.85188e-16
2.43551e-16
2.07918e-16
1.77435e-16
1.51366e-16
1.29081e-16
1.10038e-16
9.37707e-17
7.98799e-17
6.8023e-17
5.79059e-17
4.92767e-17
4.19194e-17
3.56491e-17
3.03074e-17
2.57588e-17
2.18874e-17
1.85939e-17
1.57936e-17
1.34143e-17
1.13941e-17
9.68031e-18
8.22814e-18
6.99938e-18
5.96156e-18
5.08717e-18
4.35293e-18
3.73921e-18
3.22956e-18
2.81026e-18
2.46999e-18
2.19952e-18
1.99151e-18
1.84029e-18
1.74173e-18
1.69317e-18
0.624905
0.613152
0.600372
0.586823
0.572629
0.557875
0.542642
0.527009
0.511056
0.494864
0.478509
0.462066
0.445604
0.429189
0.412879
0.39673
0.38079
0.365101
0.349702
0.334626
0.3199
0.305549
0.291592
0.278044
0.264917
0.25222
0.239958
0.228135
0.216751
0.205805
0.195293
0.185211
0.175551
0.166306
0.157468
0.149027
0.140971
0.133292
0.125976
0.119013
0.11239
0.106095
0.100117
0.0944416
0.0890581
0.0839541
0.0791179
0.0745378
0.0702023
0.0661004
0.0622211
0.0585541
0.055089
0.051816
0.0487256
0.0458087
0.0430564
0.0404602
0.0380122
0.0357044
0.0335295
0.0314804
0.0295502
0.0277327
0.0260215
0.0244109
0.0228953
0.0214694
0.0201283
0.018867
0.0176812
0.0165666
0.015519
0.0145347
0.01361
0.0127415
0.0119259
0.0111602
0.0104415
0.00976692
0.00913399
0.00854023
0.00798334
0.00746111
0.00697151
0.00651258
0.00608249
0.00567951
0.00530202
0.00494848
0.00461744
0.00430753
0.00401747
0.00374606
0.00349214
0.00325465
0.00303257
0.00282495
0.00263089
0.00244956
0.00228015
0.00212193
0.00197418
0.00183626
0.00170753
0.00158742
0.00147537
0.00137088
0.00127345
0.00118264
0.00109801
0.00101916
0.00094573
0.000877352
0.000813698
0.000754459
0.000699343
0.000648076
0.000600404
0.000556086
0.000514898
0.000476628
0.000441081
0.000408072
0.000377428
0.000348987
0.0003226
0.000298124
0.000275427
0.000254386
0.000234887
0.000216821
0.000200087
0.000184592
0.000170249
0.000156975
0.000144695
0.000133337
0.000122835
0.000113128
0.000104158
9.58718e-05
8.82191e-05
8.11537e-05
7.46325e-05
6.86153e-05
6.3065e-05
5.79467e-05
5.32282e-05
4.88797e-05
4.48733e-05
4.11832e-05
3.77855e-05
3.46579e-05
3.17798e-05
2.91321e-05
2.66971e-05
2.44585e-05
2.24009e-05
2.05103e-05
1.87738e-05
1.71791e-05
1.57152e-05
1.43718e-05
1.31393e-05
1.20089e-05
1.09725e-05
1.00225e-05
9.15205e-06
8.35467e-06
7.62446e-06
6.95599e-06
6.3442e-06
5.78448e-06
5.27254e-06
4.80446e-06
4.3766e-06
3.98563e-06
3.62849e-06
3.30234e-06
3.00459e-06
2.73285e-06
2.48493e-06
2.2588e-06
2.05263e-06
1.86469e-06
1.69345e-06
1.53745e-06
1.3954e-06
1.26607e-06
1.14838e-06
1.0413e-06
9.43919e-07
8.55374e-07
7.74894e-07
7.01767e-07
6.35341e-07
5.75023e-07
5.20268e-07
4.70579e-07
4.25502e-07
3.84621e-07
3.47558e-07
3.13966e-07
2.83532e-07
2.55966e-07
2.31007e-07
2.08415e-07
1.87973e-07
1.69481e-07
1.5276e-07
1.37644e-07
1.23984e-07
1.11644e-07
1.00499e-07
9.04382e-08
8.13579e-08
7.31656e-08
6.57769e-08
5.91151e-08
5.31107e-08
4.77006e-08
4.28277e-08
3.84399e-08
3.44904e-08
3.09366e-08
2.77398e-08
2.48651e-08
2.2281e-08
1.99589e-08
1.78728e-08
1.59995e-08
1.43178e-08
1.28086e-08
1.14547e-08
1.02405e-08
9.15193e-09
8.17635e-09
7.30232e-09
6.51954e-09
5.81872e-09
5.1915e-09
4.63032e-09
4.12842e-09
3.67968e-09
3.27861e-09
2.92026e-09
2.60021e-09
2.31444e-09
2.05939e-09
1.83182e-09
1.62884e-09
1.44786e-09
1.28655e-09
1.14282e-09
1.01481e-09
9.00822e-10
7.99366e-10
7.09094e-10
6.288e-10
5.57407e-10
4.9395e-10
4.37566e-10
3.87485e-10
3.43018e-10
3.03549e-10
2.68528e-10
2.37466e-10
2.09924e-10
1.85513e-10
1.63883e-10
1.44725e-10
1.27762e-10
1.12748e-10
9.94637e-11
8.77141e-11
7.73255e-11
6.81436e-11
6.00309e-11
5.28657e-11
4.65393e-11
4.09557e-11
3.60294e-11
3.16845e-11
2.78538e-11
2.44777e-11
2.15032e-11
1.88835e-11
1.65772e-11
1.45474e-11
1.27616e-11
1.11911e-11
9.81046e-12
8.59709e-12
7.53112e-12
6.595e-12
5.77319e-12
5.052e-12
4.41934e-12
3.86453e-12
3.37818e-12
2.95199e-12
2.57866e-12
2.25173e-12
1.96556e-12
1.71515e-12
1.49611e-12
1.30457e-12
1.13716e-12
9.90871e-13
8.63097e-13
7.51531e-13
6.54154e-13
5.6919e-13
4.95086e-13
4.30475e-13
3.74163e-13
3.25101e-13
2.82371e-13
2.4517e-13
2.12794e-13
1.84627e-13
1.60131e-13
1.38835e-13
1.20329e-13
1.04252e-13
9.02905e-14
7.81708e-14
6.76536e-14
5.85305e-14
5.06194e-14
4.37619e-14
3.78198e-14
3.26728e-14
2.82161e-14
2.43586e-14
2.10209e-14
1.8134e-14
1.5638e-14
1.34806e-14
1.16168e-14
1.0007e-14
8.61715e-15
7.41769e-15
6.38289e-15
5.49047e-15
4.72112e-15
4.05811e-15
3.48696e-15
2.99511e-15
2.57171e-15
2.20737e-15
1.89396e-15
1.62447e-15
1.39282e-15
1.19377e-15
1.0228e-15
8.75996e-16
7.49995e-16
6.41886e-16
5.49162e-16
4.69663e-16
4.01527e-16
3.43153e-16
2.93159e-16
2.50359e-16
2.1373e-16
1.82395e-16
1.55597e-16
1.3269e-16
1.13114e-16
9.63918e-17
8.21128e-17
6.99244e-17
5.95245e-17
5.06541e-17
4.30912e-17
3.66456e-17
3.11546e-17
2.64789e-17
2.24992e-17
1.91136e-17
1.62351e-17
1.37892e-17
1.17126e-17
9.9509e-18
8.45814e-18
7.19503e-18
6.1282e-18
5.22937e-18
4.47461e-18
3.84374e-18
3.31985e-18
2.88883e-18
2.53905e-18
2.26103e-18
2.04721e-18
1.89176e-18
1.79041e-18
1.74048e-18
0.625716
0.615349
0.603628
0.590863
0.57725
0.56293
0.548024
0.532636
0.516866
0.500805
0.484539
0.468148
0.451708
0.435287
0.418948
0.402747
0.386736
0.37096
0.35546
0.340269
0.325418
0.310931
0.29683
0.283132
0.26985
0.256994
0.24457
0.232584
0.221035
0.209924
0.199249
0.189004
0.179184
0.169782
0.160789
0.152197
0.143994
0.136172
0.128717
0.12162
0.114867
0.108447
0.102347
0.0965565
0.0910618
0.0858514
0.0809132
0.0762356
0.0718071
0.0676164
0.0636526
0.0599051
0.0563635
0.0530178
0.0498584
0.046876
0.0440616
0.0414067
0.0389029
0.0365424
0.0343177
0.0322215
0.0302468
0.0283872
0.0266364
0.0249884
0.0234375
0.0219783
0.0206057
0.0193149
0.0181013
0.0169604
0.0158882
0.0148807
0.0139341
0.0130451
0.0122102
0.0114264
0.0106906
0.0100001
0.0093521
0.00874423
0.00817409
0.00763944
0.00713818
0.00666831
0.00622797
0.00581539
0.00542889
0.00506691
0.00472796
0.00441065
0.00411366
0.00383576
0.00357577
0.0033326
0.00310521
0.00289262
0.00269392
0.00250825
0.00233479
0.00217278
0.0020215
0.00188027
0.00174846
0.00162547
0.00151074
0.00140374
0.00130398
0.00121099
0.00112433
0.0010436
0.000968405
0.000898387
0.000833208
0.000772549
0.000716111
0.000663616
0.000614801
0.00056942
0.000527245
0.000488058
0.000451658
0.000417858
0.000386479
0.000357356
0.000330336
0.000305273
0.000282032
0.000260487
0.00024052
0.00022202
0.000204885
0.000189019
0.000174332
0.00016074
0.000148165
0.000136535
0.000125781
0.000115841
0.000106656
9.8171e-05
9.03347e-05
8.30999e-05
7.64223e-05
7.02609e-05
6.45774e-05
5.93363e-05
5.45047e-05
5.00519e-05
4.59494e-05
4.21709e-05
3.86916e-05
3.5489e-05
3.25419e-05
2.98307e-05
2.73374e-05
2.5045e-05
2.29381e-05
2.10022e-05
1.9224e-05
1.75911e-05
1.60921e-05
1.47165e-05
1.34544e-05
1.22969e-05
1.12356e-05
1.02629e-05
9.37153e-06
8.55502e-06
7.80731e-06
7.1228e-06
6.49634e-06
5.9232e-06
5.39898e-06
4.91967e-06
4.48155e-06
4.08121e-06
3.7155e-06
3.38153e-06
3.07664e-06
2.79839e-06
2.54452e-06
2.31297e-06
2.10185e-06
1.90941e-06
1.73406e-06
1.57432e-06
1.42886e-06
1.29643e-06
1.17592e-06
1.06627e-06
9.66554e-07
8.75886e-07
7.93476e-07
7.18595e-07
6.50577e-07
5.88812e-07
5.32744e-07
4.81864e-07
4.35705e-07
3.93844e-07
3.55892e-07
3.21495e-07
2.90331e-07
2.62104e-07
2.36547e-07
2.13413e-07
1.9248e-07
1.73545e-07
1.56423e-07
1.40945e-07
1.26957e-07
1.14321e-07
1.02909e-07
9.26068e-08
8.33088e-08
7.49201e-08
6.73542e-08
6.05326e-08
5.43843e-08
4.88445e-08
4.38546e-08
3.93617e-08
3.53175e-08
3.16784e-08
2.84049e-08
2.54613e-08
2.28153e-08
2.04375e-08
1.83014e-08
1.63832e-08
1.46612e-08
1.31158e-08
1.17294e-08
1.0486e-08
9.37138e-09
8.37241e-09
7.47742e-09
6.67587e-09
5.95825e-09
5.31598e-09
4.74135e-09
4.22741e-09
3.76791e-09
3.35722e-09
2.99029e-09
2.66256e-09
2.36994e-09
2.10877e-09
1.87574e-09
1.6679e-09
1.48258e-09
1.3174e-09
1.17023e-09
1.03914e-09
9.22421e-10
8.18533e-10
7.26096e-10
6.43877e-10
5.70772e-10
5.05793e-10
4.48058e-10
3.96776e-10
3.51243e-10
3.10827e-10
2.74967e-10
2.4316e-10
2.14958e-10
1.89961e-10
1.67812e-10
1.48195e-10
1.30825e-10
1.15451e-10
1.01849e-10
8.98172e-11
7.91796e-11
6.97774e-11
6.14703e-11
5.41332e-11
4.76552e-11
4.19377e-11
3.68933e-11
3.24442e-11
2.85217e-11
2.50646e-11
2.20188e-11
1.93363e-11
1.69746e-11
1.48962e-11
1.30676e-11
1.14595e-11
1.00457e-11
8.80321e-12
7.71169e-12
6.75312e-12
5.91161e-12
5.17313e-12
4.5253e-12
3.95719e-12
3.45918e-12
3.02277e-12
2.64048e-12
2.30572e-12
2.01269e-12
1.75627e-12
1.53198e-12
1.33585e-12
1.16442e-12
1.01463e-12
8.83791e-13
7.6955e-13
6.69838e-13
5.82837e-13
5.06956e-13
4.40796e-13
3.83134e-13
3.32895e-13
2.89141e-13
2.51048e-13
2.17896e-13
1.89053e-13
1.6397e-13
1.42164e-13
1.23214e-13
1.06751e-13
9.24553e-14
8.0045e-14
6.92757e-14
5.99338e-14
5.18331e-14
4.48111e-14
3.87266e-14
3.34562e-14
2.88926e-14
2.49426e-14
2.15249e-14
1.85688e-14
1.60129e-14
1.38039e-14
1.18953e-14
1.02469e-14
8.82376e-15
7.59554e-15
6.53592e-15
5.62211e-15
4.83431e-15
4.15541e-15
3.57056e-15
3.06692e-15
2.63337e-15
2.26029e-15
1.93937e-15
1.66341e-15
1.42621e-15
1.22239e-15
1.04732e-15
8.96999e-16
7.67977e-16
6.57276e-16
5.62328e-16
4.80923e-16
4.11155e-16
3.5138e-16
3.00188e-16
2.56361e-16
2.18854e-16
1.86768e-16
1.59328e-16
1.35871e-16
1.15826e-16
9.87029e-17
8.40815e-17
7.16009e-17
6.09517e-17
5.18686e-17
4.41243e-17
3.75242e-17
3.19016e-17
2.71137e-17
2.30386e-17
1.95719e-17
1.66243e-17
1.41198e-17
1.19934e-17
1.01895e-17
8.66093e-18
7.36753e-18
6.27513e-18
5.35475e-18
4.58189e-18
3.93589e-18
3.39944e-18
2.95809e-18
2.59992e-18
2.31525e-18
2.09632e-18
1.93715e-18
1.83337e-18
1.78224e-18
0.626287
0.61697
0.606125
0.594056
0.580984
0.567081
0.552494
0.537349
0.52176
0.50583
0.489655
0.473321
0.456908
0.440489
0.42413
0.407889
0.391822
0.375975
0.360389
0.345102
0.330145
0.315544
0.301322
0.287497
0.274083
0.261091
0.24853
0.236404
0.224715
0.213463
0.202648
0.192264
0.182308
0.172771
0.163646
0.154924
0.146595
0.13865
0.131077
0.123864
0.116999
0.110472
0.104269
0.0983783
0.092788
0.087486
0.0824601
0.0776987
0.0731902
0.0689232
0.0648866
0.0610698
0.0574623
0.0540541
0.0508352
0.0477964
0.0449285
0.0422229
0.0396712
0.0372653
0.0349976
0.0328608
0.0308478
0.0289519
0.0271669
0.0254866
0.0239052
0.0224173
0.0210177
0.0197014
0.0184638
0.0173003
0.0162068
0.0151792
0.0142139
0.0133071
0.0124556
0.0116561
0.0109056
0.0102013
0.00954034
0.00892029
0.00833872
0.00779335
0.00728202
0.00680272
0.00635353
0.00593266
0.00553839
0.00516912
0.00482335
0.00449966
0.00419669
0.00391319
0.00364796
0.00339989
0.00316791
0.00295104
0.00274833
0.00255891
0.00238195
0.00221667
0.00206233
0.00191826
0.00178378
0.00165831
0.00154126
0.00143211
0.00133033
0.00123546
0.00114705
0.00106469
0.000987976
0.000916544
0.000850048
0.000788163
0.000730585
0.000677029
0.000627228
0.00058093
0.000537902
0.000497923
0.000460788
0.000426304
0.000394291
0.00036458
0.000337014
0.000311444
0.000287733
0.000265753
0.000245382
0.000226508
0.000209027
0.00019284
0.000177856
0.000163989
0.00015116
0.000139295
0.000128324
0.000118183
0.000108812
0.000100156
9.21609e-05
8.47798e-05
7.79672e-05
7.16812e-05
6.58828e-05
6.05358e-05
5.56066e-05
5.10638e-05
4.68783e-05
4.30234e-05
3.94738e-05
3.62064e-05
3.31998e-05
3.04338e-05
2.789e-05
2.55513e-05
2.34018e-05
2.14268e-05
1.96126e-05
1.79467e-05
1.64174e-05
1.5014e-05
1.37264e-05
1.25455e-05
1.14628e-05
1.04703e-05
9.56098e-06
8.72796e-06
7.96513e-06
7.26679e-06
6.62767e-06
6.04293e-06
5.50812e-06
5.01912e-06
4.57215e-06
4.16371e-06
3.79061e-06
3.44989e-06
3.13884e-06
2.85496e-06
2.59595e-06
2.35973e-06
2.14434e-06
1.94801e-06
1.76911e-06
1.60615e-06
1.45774e-06
1.32264e-06
1.19969e-06
1.08783e-06
9.86092e-07
8.93592e-07
8.09516e-07
7.33121e-07
6.63728e-07
6.00715e-07
5.43514e-07
4.91604e-07
4.44513e-07
4.01805e-07
3.63086e-07
3.27994e-07
2.962e-07
2.67403e-07
2.41328e-07
2.17727e-07
1.96371e-07
1.77053e-07
1.59585e-07
1.43794e-07
1.29524e-07
1.16632e-07
1.0499e-07
9.44788e-08
8.49928e-08
7.64345e-08
6.87157e-08
6.17562e-08
5.54836e-08
4.98318e-08
4.47411e-08
4.01573e-08
3.60314e-08
3.23187e-08
2.89791e-08
2.5976e-08
2.32765e-08
2.08506e-08
1.86714e-08
1.67144e-08
1.49575e-08
1.33809e-08
1.19665e-08
1.0698e-08
9.56081e-09
8.54165e-09
7.62857e-09
6.81082e-09
6.07869e-09
5.42343e-09
4.83719e-09
4.31286e-09
3.84407e-09
3.42508e-09
3.05073e-09
2.71638e-09
2.41784e-09
2.15139e-09
1.91366e-09
1.70161e-09
1.51255e-09
1.34403e-09
1.19388e-09
1.06014e-09
9.41067e-10
8.35078e-10
7.40773e-10
6.56892e-10
5.82309e-10
5.16017e-10
4.57115e-10
4.04796e-10
3.58342e-10
3.1711e-10
2.80525e-10
2.48075e-10
2.19303e-10
1.938e-10
1.71204e-10
1.5119e-10
1.3347e-10
1.17785e-10
1.03907e-10
9.16328e-11
8.07801e-11
7.11879e-11
6.27128e-11
5.52274e-11
4.86185e-11
4.27854e-11
3.7639e-11
3.31e-11
2.90982e-11
2.55712e-11
2.24639e-11
1.97272e-11
1.73178e-11
1.51973e-11
1.33318e-11
1.16911e-11
1.02487e-11
8.98116e-12
7.86757e-12
6.88963e-12
6.03111e-12
5.2777e-12
4.61677e-12
4.03718e-12
3.5291e-12
3.08387e-12
2.69386e-12
2.35233e-12
2.05337e-12
1.79177e-12
1.56294e-12
1.36286e-12
1.18796e-12
1.03514e-12
9.01656e-13
7.85106e-13
6.83378e-13
5.94619e-13
5.17204e-13
4.49707e-13
3.90879e-13
3.39625e-13
2.94986e-13
2.56123e-13
2.223e-13
1.92875e-13
1.67285e-13
1.45038e-13
1.25705e-13
1.08909e-13
9.43242e-14
8.16631e-14
7.06761e-14
6.11454e-14
5.28809e-14
4.5717e-14
3.95094e-14
3.41325e-14
2.94767e-14
2.54468e-14
2.196e-14
1.89442e-14
1.63366e-14
1.40829e-14
1.21357e-14
1.0454e-14
9.00213e-15
7.74908e-15
6.66805e-15
5.73576e-15
4.93204e-15
4.23941e-15
3.64274e-15
3.12892e-15
2.68661e-15
2.30599e-15
1.97858e-15
1.69704e-15
1.45504e-15
1.2471e-15
1.06849e-15
9.15133e-16
7.83502e-16
6.70563e-16
5.73697e-16
4.90646e-16
4.19467e-16
3.58484e-16
3.06257e-16
2.61544e-16
2.23279e-16
1.90544e-16
1.62549e-16
1.38618e-16
1.18168e-16
1.00698e-16
8.57814e-17
7.30485e-17
6.21839e-17
5.29172e-17
4.50164e-17
3.82829e-17
3.25466e-17
2.76619e-17
2.35044e-17
1.99676e-17
1.69605e-17
1.44053e-17
1.22359e-17
1.03955e-17
8.83604e-18
7.51649e-18
6.402e-18
5.463e-18
4.67452e-18
4.01546e-18
3.46816e-18
3.01789e-18
2.65249e-18
2.36206e-18
2.13872e-18
1.97634e-18
1.87046e-18
1.8183e-18
0.626705
0.618183
0.608035
0.596547
0.583944
0.570413
0.556115
0.541193
0.525773
0.509967
0.493879
0.477601
0.461218
0.444805
0.428433
0.412163
0.396051
0.380147
0.364492
0.349127
0.334083
0.319388
0.305066
0.291136
0.277613
0.264509
0.251834
0.239592
0.227786
0.216418
0.205487
0.194988
0.184917
0.175268
0.166033
0.157203
0.14877
0.140722
0.133049
0.12574
0.118783
0.112166
0.105876
0.0999027
0.0942327
0.0888541
0.083755
0.0789235
0.0743481
0.0700172
0.0659199
0.0620452
0.0583826
0.0549219
0.0516534
0.0485673
0.0456547
0.0429067
0.0403148
0.0378709
0.0355672
0.0333964
0.0313512
0.0294251
0.0276114
0.025904
0.0242972
0.0227852
0.0213629
0.0200253
0.0187675
0.0175851
0.0164738
0.0154294
0.0144483
0.0135267
0.0126613
0.0118487
0.0110858
0.0103699
0.00969811
0.00906786
0.00847671
0.00792235
0.0074026
0.00691539
0.00645878
0.00603095
0.00563017
0.0052548
0.00490332
0.00457426
0.00426628
0.00397809
0.00370847
0.00345629
0.00322047
0.003
0.00279394
0.00260138
0.00242148
0.00225346
0.00209657
0.0019501
0.0018134
0.00168584
0.00156685
0.00145588
0.00135242
0.00125598
0.0011661
0.00108237
0.00100438
0.000931765
0.000864165
0.000801253
0.000742719
0.000688274
0.000637645
0.000590579
0.000546836
0.000506193
0.000468442
0.000433385
0.00040084
0.000370636
0.000342611
0.000316617
0.000292513
0.000270167
0.000249458
0.000230271
0.000212499
0.000196043
0.00018081
0.000166713
0.000153671
0.000141609
0.000130456
0.000120146
0.00011062
0.000101819
9.36918e-05
8.61881e-05
7.92624e-05
7.28719e-05
6.69773e-05
6.15414e-05
5.65303e-05
5.1912e-05
4.76571e-05
4.3738e-05
4.01295e-05
3.68079e-05
3.37513e-05
3.09393e-05
2.83533e-05
2.59758e-05
2.37905e-05
2.17827e-05
1.99384e-05
1.82448e-05
1.66901e-05
1.52634e-05
1.39544e-05
1.27539e-05
1.16532e-05
1.06443e-05
9.7198e-06
8.87295e-06
8.09745e-06
7.3875e-06
6.73776e-06
6.14332e-06
5.59962e-06
5.1025e-06
4.6481e-06
4.23288e-06
3.85358e-06
3.5072e-06
3.19098e-06
2.90238e-06
2.63908e-06
2.39893e-06
2.17996e-06
1.98037e-06
1.7985e-06
1.63283e-06
1.48196e-06
1.34461e-06
1.21962e-06
1.1059e-06
1.00247e-06
9.08436e-07
8.22963e-07
7.453e-07
6.74754e-07
6.10694e-07
5.52542e-07
4.99771e-07
4.51897e-07
4.0848e-07
3.69118e-07
3.33443e-07
3.0112e-07
2.71845e-07
2.45337e-07
2.21344e-07
1.99633e-07
1.79995e-07
1.62236e-07
1.46182e-07
1.31675e-07
1.18569e-07
1.06734e-07
9.60483e-08
8.64047e-08
7.77043e-08
6.98572e-08
6.27821e-08
5.64053e-08
5.06596e-08
4.54844e-08
4.08244e-08
3.66299e-08
3.28556e-08
2.94605e-08
2.64075e-08
2.36631e-08
2.1197e-08
1.89815e-08
1.6992e-08
1.5206e-08
1.36032e-08
1.21653e-08
1.08757e-08
9.71964e-09
8.68354e-09
7.7553e-09
6.92396e-09
6.17967e-09
5.51353e-09
4.91755e-09
4.38451e-09
3.90793e-09
3.48198e-09
3.10141e-09
2.7615e-09
2.45801e-09
2.18713e-09
1.94545e-09
1.72988e-09
1.53767e-09
1.36636e-09
1.21372e-09
1.07776e-09
9.56701e-10
8.48952e-10
7.5308e-10
6.67805e-10
5.91984e-10
5.2459e-10
4.64709e-10
4.11521e-10
3.64296e-10
3.22378e-10
2.85186e-10
2.52196e-10
2.22946e-10
1.9702e-10
1.74049e-10
1.53702e-10
1.35687e-10
1.19742e-10
1.05634e-10
9.31552e-11
8.21222e-11
7.23706e-11
6.37548e-11
5.6145e-11
4.94263e-11
4.34963e-11
3.82644e-11
3.365e-11
2.95817e-11
2.59961e-11
2.28371e-11
2.00549e-11
1.76055e-11
1.54498e-11
1.35533e-11
1.18854e-11
1.0419e-11
9.13039e-12
7.9983e-12
7.0041e-12
6.13132e-12
5.36539e-12
4.69348e-12
4.10426e-12
3.58774e-12
3.13511e-12
2.73862e-12
2.39142e-12
2.08749e-12
1.82154e-12
1.58891e-12
1.3855e-12
1.2077e-12
1.05234e-12
9.16638e-13
7.98152e-13
6.94733e-13
6.045e-13
5.25798e-13
4.57179e-13
3.97374e-13
3.45268e-13
2.99888e-13
2.60379e-13
2.25994e-13
1.9608e-13
1.70065e-13
1.47448e-13
1.27794e-13
1.10719e-13
9.58917e-14
8.30202e-14
7.18506e-14
6.21615e-14
5.37597e-14
4.64767e-14
4.0166e-14
3.46997e-14
2.99666e-14
2.58697e-14
2.2325e-14
1.9259e-14
1.66081e-14
1.4317e-14
1.23374e-14
1.06278e-14
9.15174e-15
7.87787e-15
6.77887e-15
5.83109e-15
5.01401e-15
4.30987e-15
3.70329e-15
3.18092e-15
2.73126e-15
2.34431e-15
2.01146e-15
1.72525e-15
1.47923e-15
1.26783e-15
1.08625e-15
9.30344e-16
7.96526e-16
6.81709e-16
5.83233e-16
4.98802e-16
4.26439e-16
3.64443e-16
3.11348e-16
2.65892e-16
2.2699e-16
1.93711e-16
1.65251e-16
1.40922e-16
1.20132e-16
1.02372e-16
8.72074e-17
7.42628e-17
6.32177e-17
5.37969e-17
4.57648e-17
3.89193e-17
3.30876e-17
2.81218e-17
2.38952e-17
2.02995e-17
1.72424e-17
1.46448e-17
1.24393e-17
1.05683e-17
8.98294e-18
7.64145e-18
6.50843e-18
5.55383e-18
4.75223e-18
4.08222e-18
3.52582e-18
3.06806e-18
2.69659e-18
2.40134e-18
2.17428e-18
2.00922e-18
1.90158e-18
1.84855e-18
0.627012
0.619082
0.609468
0.59844
0.586218
0.572995
0.558943
0.544213
0.528939
0.513242
0.49723
0.481003
0.464648
0.448245
0.431865
0.415574
0.399428
0.383479
0.367772
0.352345
0.337232
0.322463
0.308062
0.294048
0.280439
0.267246
0.254479
0.242145
0.230247
0.218786
0.207762
0.197171
0.187009
0.17727
0.167947
0.159032
0.150514
0.142385
0.134632
0.127246
0.120214
0.113525
0.107167
0.101126
0.0953924
0.0899525
0.0847947
0.079907
0.0752779
0.0708959
0.0667497
0.0628285
0.0591217
0.0556191
0.0523106
0.0491867
0.0462381
0.043456
0.0408319
0.0383575
0.0360249
0.0338268
0.0317558
0.0298053
0.0279686
0.0262395
0.0246121
0.0230809
0.0216404
0.0202856
0.0190117
0.017814
0.0166884
0.0156306
0.0146367
0.0137032
0.0128266
0.0120034
0.0112307
0.0105055
0.00982493
0.00918648
0.00858763
0.00802605
0.00749952
0.00700595
0.00654339
0.00610997
0.00570395
0.00532368
0.00496759
0.00463424
0.00432223
0.00403026
0.00375711
0.00350163
0.00326272
0.00303936
0.0028306
0.00263552
0.00245327
0.00228304
0.00212409
0.0019757
0.0018372
0.00170798
0.00158743
0.001475
0.00137018
0.00127247
0.00118141
0.00109658
0.00101757
0.000944002
0.000875514
0.000811776
0.000752473
0.000697313
0.00064602
0.000598336
0.000554018
0.000512842
0.000474594
0.000439077
0.000406105
0.000375504
0.000347112
0.000320776
0.000296355
0.000273716
0.000252735
0.000233296
0.000215291
0.000198618
0.000183185
0.000168903
0.00015569
0.000143469
0.000132169
0.000121725
0.000112073
0.000103157
9.49226e-05
8.73203e-05
8.03036e-05
7.38292e-05
6.78571e-05
6.23499e-05
5.72729e-05
5.2594e-05
4.82831e-05
4.43126e-05
4.06567e-05
3.72914e-05
3.41947e-05
3.13458e-05
2.87258e-05
2.6317e-05
2.41031e-05
2.20689e-05
2.02003e-05
1.84845e-05
1.69094e-05
1.54639e-05
1.41377e-05
1.29215e-05
1.18063e-05
1.07841e-05
9.84749e-06
8.98952e-06
8.20383e-06
7.48455e-06
6.82628e-06
6.22403e-06
5.67319e-06
5.16953e-06
4.70916e-06
4.28849e-06
3.90421e-06
3.55327e-06
3.2329e-06
2.94051e-06
2.67375e-06
2.43044e-06
2.2086e-06
2.00639e-06
1.82213e-06
1.65428e-06
1.50143e-06
1.36228e-06
1.23564e-06
1.12043e-06
1.01564e-06
9.20371e-07
8.33776e-07
7.55092e-07
6.83619e-07
6.18718e-07
5.59802e-07
5.06337e-07
4.57834e-07
4.13847e-07