/*--------------------------------*- C++ -*----------------------------------*\
  =========                 |
  \\      /  F ield         | OpenFOAM: The Open Source CFD Toolbox
   \\    /   O peration     | Website:  https://openfoam.org
    \\  /    A nd           | Version:  10
     \\/     M anipulation  |
\*---------------------------------------------------------------------------*/
FoamFile
{
    format      ascii;
    class       volScalarField;
    location    "0.5";
    object      Exp1;
}
// * * * * * * * * * * * * * * * * * * * * * * * * * * * * * * * * * * * * * //

dimensions      [0 0 0 0 0 0 0];

internalField   uniform 0;

boundaryField
{
    frontAndBack
    {
        type            empty;
    }
    inlet
    {
        type            calculated;
        value           uniform 0;
    }
    outlet
    {
        type            calculated;
        value           uniform 0;
    }
    substrate
    {
        type            calculated;
        value           nonuniform List<scalar> 
400
(
7.73077e-10
2.31508e-09
3.84743e-09
5.36582e-09
6.86655e-09
8.34633e-09
9.8023e-09
1.12319e-08
1.26329e-08
1.40035e-08
1.53419e-08
1.66468e-08
1.7917e-08
1.91516e-08
2.03499e-08
2.15114e-08
2.26358e-08
2.37228e-08
2.47725e-08
2.57849e-08
2.67602e-08
2.76989e-08
2.86012e-08
2.94676e-08
3.02988e-08
3.10953e-08
3.18578e-08
3.25869e-08
3.32835e-08
3.39481e-08
3.45817e-08
3.51849e-08
3.57585e-08
3.63033e-08
3.68202e-08
3.73098e-08
3.77729e-08
3.82103e-08
3.86226e-08
3.90107e-08
3.93753e-08
3.9717e-08
4.00364e-08
4.03344e-08
4.06114e-08
4.08682e-08
4.11052e-08
4.13232e-08
4.15226e-08
4.17041e-08
4.18681e-08
4.20151e-08
4.21457e-08
4.22603e-08
4.23593e-08
4.24433e-08
4.25127e-08
4.25678e-08
4.26092e-08
4.2637e-08
4.26519e-08
4.2654e-08
4.26438e-08
4.26216e-08
4.25878e-08
4.25426e-08
4.24864e-08
4.24195e-08
4.23421e-08
4.22546e-08
4.21573e-08
4.20503e-08
4.19341e-08
4.18087e-08
4.16746e-08
4.15318e-08
4.13808e-08
4.12216e-08
4.10546e-08
4.088e-08
4.06979e-08
4.05086e-08
4.03123e-08
4.01093e-08
3.98997e-08
3.96837e-08
3.94615e-08
3.92333e-08
3.89994e-08
3.87598e-08
3.85148e-08
3.82646e-08
3.80093e-08
3.77492e-08
3.74843e-08
3.7215e-08
3.69412e-08
3.66633e-08
3.63814e-08
3.60956e-08
3.58061e-08
3.55131e-08
3.52167e-08
3.49171e-08
3.46144e-08
3.43089e-08
3.40005e-08
3.36896e-08
3.33762e-08
3.30605e-08
3.27426e-08
3.24227e-08
3.21009e-08
3.17773e-08
3.14522e-08
3.11255e-08
3.07975e-08
3.04683e-08
3.0138e-08
2.98067e-08
2.94746e-08
2.91418e-08
2.88084e-08
2.84745e-08
2.81403e-08
2.78058e-08
2.74712e-08
2.71365e-08
2.6802e-08
2.64676e-08
2.61336e-08
2.58e-08
2.54669e-08
2.51343e-08
2.48025e-08
2.44715e-08
2.41414e-08
2.38123e-08
2.34842e-08
2.31573e-08
2.28316e-08
2.25073e-08
2.21843e-08
2.18629e-08
2.15429e-08
2.12247e-08
2.09081e-08
2.05933e-08
2.02804e-08
1.99693e-08
1.96602e-08
1.93532e-08
1.90482e-08
1.87454e-08
1.84448e-08
1.81464e-08
1.78504e-08
1.75567e-08
1.72654e-08
1.69765e-08
1.66901e-08
1.64063e-08
1.6125e-08
1.58463e-08
1.55703e-08
1.52969e-08
1.50263e-08
1.47584e-08
1.44932e-08
1.42308e-08
1.39713e-08
1.37145e-08
1.34607e-08
1.32097e-08
1.29616e-08
1.27163e-08
1.24741e-08
1.22347e-08
1.19983e-08
1.17648e-08
1.15343e-08
1.13068e-08
1.10822e-08
1.08607e-08
1.06421e-08
1.04264e-08
1.02138e-08
1.00041e-08
9.79737e-09
9.59363e-09
9.39285e-09
9.19503e-09
9.00015e-09
8.8082e-09
8.61919e-09
8.43309e-09
8.2499e-09
8.0696e-09
7.89218e-09
7.71761e-09
7.5459e-09
7.37701e-09
7.21094e-09
7.04766e-09
6.88715e-09
6.7294e-09
6.57438e-09
6.42208e-09
6.27247e-09
6.12552e-09
5.98122e-09
5.83954e-09
5.70047e-09
5.56396e-09
5.43e-09
5.29856e-09
5.16962e-09
5.04316e-09
4.91913e-09
4.79752e-09
4.6783e-09
4.56144e-09
4.44691e-09
4.33468e-09
4.22474e-09
4.11704e-09
4.01155e-09
3.90826e-09
3.80713e-09
3.70813e-09
3.61123e-09
3.5164e-09
3.42362e-09
3.33285e-09
3.24406e-09
3.15722e-09
3.07231e-09
2.9893e-09
2.90815e-09
2.82883e-09
2.75132e-09
2.67559e-09
2.6016e-09
2.52933e-09
2.45875e-09
2.38984e-09
2.32255e-09
2.25687e-09
2.19276e-09
2.1302e-09
2.06915e-09
2.0096e-09
1.95151e-09
1.89486e-09
1.83961e-09
1.78575e-09
1.73324e-09
1.68206e-09
1.63218e-09
1.58358e-09
1.53623e-09
1.49011e-09
1.44518e-09
1.40144e-09
1.35884e-09
1.31737e-09
1.27701e-09
1.23772e-09
1.19949e-09
1.16229e-09
1.12611e-09
1.09091e-09
1.05668e-09
1.02339e-09
9.91032e-10
9.59572e-10
9.28994e-10
8.99277e-10
8.70401e-10
8.42346e-10
8.15094e-10
7.88624e-10
7.62918e-10
7.37958e-10
7.13725e-10
6.90201e-10
6.6737e-10
6.45213e-10
6.23714e-10
6.02856e-10
5.82624e-10
5.63001e-10
5.43971e-10
5.25519e-10
5.0763e-10
4.90289e-10
4.73483e-10
4.57196e-10
4.41415e-10
4.26126e-10
4.11316e-10
3.96972e-10
3.83082e-10
3.69632e-10
3.56611e-10
3.44006e-10
3.31807e-10
3.20002e-10
3.08579e-10
2.97527e-10
2.86837e-10
2.76498e-10
2.66499e-10
2.56832e-10
2.47485e-10
2.3845e-10
2.29717e-10
2.21278e-10
2.13124e-10
2.05247e-10
1.97637e-10
1.90288e-10
1.8319e-10
1.76337e-10
1.69721e-10
1.63334e-10
1.5717e-10
1.51222e-10
1.45482e-10
1.39946e-10
1.34605e-10
1.29454e-10
1.24487e-10
1.19697e-10
1.15081e-10
1.10631e-10
1.06342e-10
1.0221e-10
9.82293e-11
9.43947e-11
9.07016e-11
8.71453e-11
8.37215e-11
8.04258e-11
7.72539e-11
7.42018e-11
7.12654e-11
6.8441e-11
6.57248e-11
6.31133e-11
6.06028e-11
5.81901e-11
5.58719e-11
5.36449e-11
5.15062e-11
4.94528e-11
4.74819e-11
4.55906e-11
4.37763e-11
4.20365e-11
4.03686e-11
3.87702e-11
3.72391e-11
3.5773e-11
3.43698e-11
3.30274e-11
3.17439e-11
3.05172e-11
2.93457e-11
2.82275e-11
2.71609e-11
2.61444e-11
2.51763e-11
2.42552e-11
2.33797e-11
2.25484e-11
2.17601e-11
2.10135e-11
2.03074e-11
1.96407e-11
1.90124e-11
1.84215e-11
1.7867e-11
1.7348e-11
1.68638e-11
1.64136e-11
1.59965e-11
1.56121e-11
1.52595e-11
1.49383e-11
1.4648e-11
1.4388e-11
1.41579e-11
1.39575e-11
1.37862e-11
1.3644e-11
1.35304e-11
1.34454e-11
1.33888e-11
1.33606e-11
)
;
    }
    Wall
    {
        type            calculated;
        value           nonuniform List<scalar> 
400
(
7.73079e-10
2.3151e-09
3.84748e-09
5.36589e-09
6.86663e-09
8.34642e-09
9.80238e-09
1.1232e-08
1.2633e-08
1.40035e-08
1.53419e-08
1.66468e-08
1.79169e-08
1.91515e-08
2.03498e-08
2.15113e-08
2.26356e-08
2.37226e-08
2.47722e-08
2.57846e-08
2.67599e-08
2.76985e-08
2.86008e-08
2.94672e-08
3.02984e-08
3.10949e-08
3.18573e-08
3.25864e-08
3.32829e-08
3.39475e-08
3.45811e-08
3.51842e-08
3.57578e-08
3.63027e-08
3.68195e-08
3.7309e-08
3.77721e-08
3.82095e-08
3.86218e-08
3.90099e-08
3.93745e-08
3.97161e-08
4.00356e-08
4.03335e-08
4.06105e-08
4.08673e-08
4.11043e-08
4.13223e-08
4.15217e-08
4.17031e-08
4.18671e-08
4.20141e-08
4.21447e-08
4.22592e-08
4.23583e-08
4.24423e-08
4.25117e-08
4.25668e-08
4.26081e-08
4.2636e-08
4.26508e-08
4.26529e-08
4.26427e-08
4.26206e-08
4.25867e-08
4.25415e-08
4.24853e-08
4.24184e-08
4.2341e-08
4.22535e-08
4.21562e-08
4.20492e-08
4.1933e-08
4.18076e-08
4.16735e-08
4.15307e-08
4.13797e-08
4.12205e-08
4.10535e-08
4.08789e-08
4.06968e-08
4.05075e-08
4.03112e-08
4.01082e-08
3.98986e-08
3.96826e-08
3.94604e-08
3.92322e-08
3.89983e-08
3.87587e-08
3.85137e-08
3.82635e-08
3.80083e-08
3.77481e-08
3.74833e-08
3.72139e-08
3.69402e-08
3.66623e-08
3.63803e-08
3.60946e-08
3.58051e-08
3.55121e-08
3.52157e-08
3.49161e-08
3.46134e-08
3.43079e-08
3.39996e-08
3.36886e-08
3.33752e-08
3.30595e-08
3.27417e-08
3.24218e-08
3.21e-08
3.17764e-08
3.14513e-08
3.11246e-08
3.07966e-08
3.04674e-08
3.01371e-08
2.98059e-08
2.94738e-08
2.9141e-08
2.88076e-08
2.84737e-08
2.81394e-08
2.7805e-08
2.74704e-08
2.71357e-08
2.68012e-08
2.64669e-08
2.61328e-08
2.57992e-08
2.54661e-08
2.51336e-08
2.48018e-08
2.44708e-08
2.41407e-08
2.38115e-08
2.34835e-08
2.31566e-08
2.28309e-08
2.25066e-08
2.21836e-08
2.18622e-08
2.15423e-08
2.1224e-08
2.09075e-08
2.05927e-08
2.02798e-08
1.99687e-08
1.96596e-08
1.93526e-08
1.90476e-08
1.87448e-08
1.84442e-08
1.81459e-08
1.78498e-08
1.75561e-08
1.72648e-08
1.6976e-08
1.66896e-08
1.64058e-08
1.61245e-08
1.58459e-08
1.55698e-08
1.52965e-08
1.50258e-08
1.47579e-08
1.44928e-08
1.42304e-08
1.39708e-08
1.37141e-08
1.34603e-08
1.32093e-08
1.29612e-08
1.2716e-08
1.24737e-08
1.22343e-08
1.19979e-08
1.17645e-08
1.1534e-08
1.13065e-08
1.10819e-08
1.08603e-08
1.06417e-08
1.04261e-08
1.02135e-08
1.00038e-08
9.79708e-09
9.59334e-09
9.39257e-09
9.19475e-09
8.99988e-09
8.80794e-09
8.61893e-09
8.43284e-09
8.24965e-09
8.06936e-09
7.89194e-09
7.71738e-09
7.54567e-09
7.37679e-09
7.21072e-09
7.04745e-09
6.88694e-09
6.7292e-09
6.57419e-09
6.42189e-09
6.27228e-09
6.12534e-09
5.98104e-09
5.83937e-09
5.7003e-09
5.56379e-09
5.42984e-09
5.29841e-09
5.16947e-09
5.04301e-09
4.91898e-09
4.79738e-09
4.67816e-09
4.5613e-09
4.44678e-09
4.33456e-09
4.22461e-09
4.11691e-09
4.01144e-09
3.90815e-09
3.80702e-09
3.70802e-09
3.61112e-09
3.5163e-09
3.42352e-09
3.33275e-09
3.24396e-09
3.15713e-09
3.07222e-09
2.98921e-09
2.90806e-09
2.82875e-09
2.75124e-09
2.67551e-09
2.60152e-09
2.52926e-09
2.45868e-09
2.38977e-09
2.32248e-09
2.2568e-09
2.1927e-09
2.13014e-09
2.06909e-09
2.00954e-09
1.95146e-09
1.8948e-09
1.83956e-09
1.7857e-09
1.73319e-09
1.68201e-09
1.63214e-09
1.58354e-09
1.53619e-09
1.49007e-09
1.44514e-09
1.4014e-09
1.3588e-09
1.31733e-09
1.27697e-09
1.23768e-09
1.19946e-09
1.16226e-09
1.12608e-09
1.09088e-09
1.05665e-09
1.02337e-09
9.91005e-10
9.59546e-10
9.28968e-10
8.99252e-10
8.70377e-10
8.42323e-10
8.15071e-10
7.88602e-10
7.62897e-10
7.37938e-10
7.13705e-10
6.90183e-10
6.67352e-10
6.45196e-10
6.23697e-10
6.0284e-10
5.82608e-10
5.62986e-10
5.43956e-10
5.25505e-10
5.07617e-10
4.90277e-10
4.7347e-10
4.57184e-10
4.41403e-10
4.26115e-10
4.11305e-10
3.96962e-10
3.83072e-10
3.69622e-10
3.56602e-10
3.43998e-10
3.31799e-10
3.19993e-10
3.08571e-10
2.9752e-10
2.8683e-10
2.76491e-10
2.66493e-10
2.56825e-10
2.47479e-10
2.38444e-10
2.29712e-10
2.21273e-10
2.13119e-10
2.05242e-10
1.97632e-10
1.90283e-10
1.83186e-10
1.76333e-10
1.69717e-10
1.6333e-10
1.57166e-10
1.51218e-10
1.45479e-10
1.39942e-10
1.34601e-10
1.29451e-10
1.24484e-10
1.19695e-10
1.15078e-10
1.10628e-10
1.0634e-10
1.02208e-10
9.82271e-11
9.43925e-11
9.06995e-11
8.71434e-11
8.37197e-11
8.0424e-11
7.72522e-11
7.42002e-11
7.12639e-11
6.84395e-11
6.57234e-11
6.31119e-11
6.06015e-11
5.81889e-11
5.58707e-11
5.36438e-11
5.15052e-11
4.94518e-11
4.74809e-11
4.55896e-11
4.37754e-11
4.20356e-11
4.03677e-11
3.87694e-11
3.72384e-11
3.57723e-11
3.43691e-11
3.30268e-11
3.17432e-11
3.05166e-11
2.93451e-11
2.82269e-11
2.71604e-11
2.61439e-11
2.51758e-11
2.42548e-11
2.33793e-11
2.25481e-11
2.17597e-11
2.10131e-11
2.0307e-11
1.96404e-11
1.90121e-11
1.84212e-11
1.78667e-11
1.73478e-11
1.68636e-11
1.64133e-11
1.59963e-11
1.56118e-11
1.52593e-11
1.49381e-11
1.46478e-11
1.43878e-11
1.41577e-11
1.39573e-11
1.3786e-11
1.36438e-11
1.35302e-11
1.34452e-11
1.33887e-11
1.33605e-11
)
;
    }
}


// ************************************************************************* //
