/*--------------------------------*- C++ -*----------------------------------*\
  =========                 |
  \\      /  F ield         | OpenFOAM: The Open Source CFD Toolbox
   \\    /   O peration     | Website:  https://openfoam.org
    \\  /    A nd           | Version:  10
     \\/     M anipulation  |
\*---------------------------------------------------------------------------*/
FoamFile
{
    format      ascii;
    class       volScalarField;
    location    "0.02";
    object      growth;
}
// * * * * * * * * * * * * * * * * * * * * * * * * * * * * * * * * * * * * * //

dimensions      [0 0 0 0 0 0 0];

internalField   uniform 0;

boundaryField
{
    frontAndBack
    {
        type            empty;
    }
    inlet
    {
        type            calculated;
        value           uniform 0;
    }
    outlet
    {
        type            calculated;
        value           uniform 0;
    }
    substrate
    {
        type            calculated;
        value           nonuniform List<scalar> 
400
(
0.0494562
0.0430944
0.0377406
0.0331339
0.0291232
0.0256082
0.022516
0.0197898
0.0173833
0.015258
0.0133808
0.0117232
0.0102603
0.00897005
0.00783303
0.00683199
0.00595158
0.00517812
0.00449942
0.00390457
0.00338388
0.0029287
0.00253129
0.0021848
0.00188312
0.00162082
0.00139308
0.00119562
0.00102467
0.000876885
0.000749315
0.000639358
0.000544724
0.000463402
0.000393625
0.000333847
0.000282714
0.000239044
0.000201807
0.000170106
0.000143159
0.000120292
0.000100917
8.45282e-05
7.06877e-05
5.90184e-05
4.9196e-05
4.09419e-05
3.40172e-05
2.82175e-05
2.33682e-05
1.93204e-05
1.59474e-05
1.31414e-05
1.08111e-05
8.87916e-06
7.28026e-06
5.95926e-06
4.86974e-06
3.9727e-06
3.23542e-06
2.6305e-06
2.13504e-06
1.72996e-06
1.39934e-06
1.12997e-06
9.10889e-07
7.33026e-07
5.88881e-07
4.72267e-07
3.78094e-07
3.02178e-07
2.41088e-07
1.92016e-07
1.52669e-07
1.21174e-07
9.60101e-08
7.59402e-08
5.99617e-08
4.72632e-08
3.71894e-08
2.92121e-08
2.29061e-08
1.79303e-08
1.40111e-08
1.09295e-08
8.51096e-09
6.61612e-09
5.13424e-09
3.97738e-09
3.07586e-09
2.37457e-09
1.83001e-09
1.4079e-09
1.08129e-09
8.29013e-10
6.34505e-10
4.84798e-10
3.69779e-10
2.81564e-10
2.14027e-10
1.62411e-10
1.23033e-10
9.30435e-11
7.02442e-11
5.29414e-11
3.9833e-11
2.99195e-11
2.24352e-11
1.67946e-11
1.2551e-11
9.36387e-12
6.97432e-12
5.18584e-12
3.84955e-12
2.85282e-12
2.11064e-12
1.55894e-12
1.14954e-12
8.46255e-13
6.21954e-13
4.5635e-13
3.3429e-13
2.44475e-13
1.78499e-13
1.30114e-13
9.46903e-14
6.87986e-14
4.99056e-14
3.61422e-14
2.61324e-14
1.88644e-14
1.3596e-14
9.78322e-15
7.02843e-15
5.0413e-15
3.61024e-15
2.58131e-15
1.84272e-15
1.31339e-15
9.34636e-16
6.64067e-16
4.71088e-16
3.33668e-16
2.35968e-16
1.66616e-16
1.17465e-16
8.26864e-17
5.81153e-17
4.07832e-17
2.85765e-17
1.99929e-17
1.39664e-17
9.74166e-18
6.78465e-18
4.71812e-18
3.27612e-18
2.27143e-18
1.57251e-18
1.08703e-18
7.50323e-19
5.17146e-19
3.55909e-19
2.44584e-19
1.67834e-19
1.15001e-19
7.86852e-20
5.37594e-20
3.66767e-20
2.49862e-20
1.69976e-20
1.15467e-20
7.8326e-21
5.30566e-21
3.58887e-21
2.42418e-21
1.63517e-21
1.10141e-21
7.40855e-22
4.97636e-22
3.33802e-22
2.23597e-22
1.4957e-22
9.99147e-23
6.66529e-23
4.44036e-23
2.95411e-23
1.96267e-23
1.30222e-23
8.62852e-24
5.70962e-24
3.7731e-24
2.49008e-24
1.64116e-24
1.08023e-24
7.10087e-25
4.66161e-25
3.05628e-25
2.00118e-25
1.30862e-25
8.54638e-26
5.5743e-26
3.63112e-26
2.3623e-26
1.53489e-26
9.96019e-27
6.45518e-27
4.17832e-27
2.70115e-27
1.74403e-27
1.12464e-27
7.24331e-28
4.65931e-28
2.99344e-28
1.92081e-28
1.23102e-28
7.87985e-29
5.03781e-29
3.21691e-29
2.05169e-29
1.30696e-29
8.31553e-30
5.28445e-30
3.35423e-30
2.12652e-30
1.34659e-30
8.517e-31
5.38059e-31
3.39519e-31
2.1399e-31
1.34716e-31
8.47111e-32
5.32061e-32
3.33798e-32
2.09175e-32
1.3093e-32
8.18609e-33
5.11236e-33
3.18916e-33
1.98721e-33
1.23687e-33
7.68986e-34
4.77563e-34
2.96252e-34
1.83575e-34
1.13628e-34
7.02562e-35
4.33918e-35
2.67706e-35
1.64982e-35
1.01566e-35
6.24582e-36
3.83677e-36
2.35439e-36
1.4432e-36
8.8372e-37
5.40559e-37
3.30304e-37
2.01618e-37
1.22939e-37
7.48851e-38
4.5567e-38
2.76985e-38
1.68196e-38
1.02029e-38
6.18289e-39
3.74295e-39
2.26358e-39
1.36753e-39
8.25349e-40
4.97625e-40
2.99731e-40
1.80354e-40
1.08415e-40
6.51057e-41
3.9059e-41
2.34096e-41
1.40165e-41
8.38422e-42
5.01027e-42
2.99114e-42
1.78399e-42
1.06299e-42
6.32771e-43
3.76312e-43
2.23581e-43
1.32712e-43
7.86994e-44
4.66254e-44
2.75972e-44
1.63192e-44
9.64112e-45
5.69051e-45
3.3556e-45
1.97692e-45
1.1636e-45
6.84262e-46
4.02015e-46
2.35974e-46
1.38386e-46
8.10823e-47
4.74643e-47
2.77598e-47
1.6221e-47
9.46995e-48
5.52372e-48
3.21907e-48
1.87432e-48
1.09037e-48
6.33755e-49
3.68034e-49
2.13538e-49
1.2379e-49
7.16998e-50
4.1493e-50
2.39915e-50
1.38601e-50
8.00025e-51
4.61392e-51
2.65869e-51
1.53072e-51
8.80559e-52
5.06121e-52
2.90661e-52
1.66784e-52
9.56227e-53
5.4778e-53
3.13539e-53
1.79316e-53
1.02468e-53
5.85062e-54
3.3378e-54
1.90267e-54
1.08372e-54
6.1676e-55
3.50724e-55
1.99281e-55
1.13141e-55
6.41836e-56
3.63817e-56
2.06062e-56
1.16619e-56
6.59474e-57
3.72636e-57
2.10393e-57
1.18697e-57
6.69126e-58
3.76912e-58
2.12147e-58
1.19316e-58
6.70541e-59
3.76548e-59
2.11292e-59
1.18472e-59
6.63771e-60
3.71614e-60
2.07893e-60
1.16214e-60
6.49164e-61
3.62347e-61
2.02102e-61
1.12641e-61
6.27335e-62
3.49126e-62
1.94154e-62
1.07892e-62
5.99126e-63
3.32453e-63
1.84343e-63
1.02143e-63
5.65555e-64
3.12918e-64
1.73011e-64
9.55891e-65
5.27755e-65
2.91171e-65
1.6053e-65
8.84415e-66
4.86913e-66
2.67881e-66
1.47274e-66
8.09116e-67
4.44213e-67
2.43709e-67
1.33614e-67
7.32035e-68
4.00787e-68
2.1928e-68
1.19891e-68
6.55057e-69
3.57667e-69
1.9516e-69
1.06423e-69
5.80045e-70
3.16126e-70
1.72527e-70
9.47432e-71
5.31868e-71
3.20141e-71
2.31337e-71
)
;
    }
    Wall
    {
        type            calculated;
        value           nonuniform List<scalar> 
400
(
0.0494562
0.0430944
0.0377407
0.0331339
0.0291231
0.0256081
0.022516
0.0197899
0.0173835
0.0152582
0.013381
0.0117235
0.0102606
0.00897031
0.00783328
0.00683224
0.00595182
0.00517835
0.00449963
0.00390478
0.00338407
0.00292887
0.00253146
0.00218496
0.00188326
0.00162095
0.00139319
0.00119572
0.00102476
0.000876971
0.000749392
0.000639427
0.000544786
0.000463457
0.000393674
0.000333891
0.000282753
0.000239079
0.000201838
0.000170132
0.000143183
0.000120312
0.000100935
8.45437e-05
7.07012e-05
5.90302e-05
4.92062e-05
4.09507e-05
3.40248e-05
2.8224e-05
2.33738e-05
1.93252e-05
1.59515e-05
1.31449e-05
1.08141e-05
8.88172e-06
7.28244e-06
5.9611e-06
4.8713e-06
3.97402e-06
3.23653e-06
2.63143e-06
2.13583e-06
1.73061e-06
1.39988e-06
1.13042e-06
9.11269e-07
7.33343e-07
5.89143e-07
4.72485e-07
3.78274e-07
3.02326e-07
2.4121e-07
1.92117e-07
1.52751e-07
1.21241e-07
9.60651e-08
7.59851e-08
5.99982e-08
4.72929e-08
3.72135e-08
2.92315e-08
2.29219e-08
1.7943e-08
1.40213e-08
1.09377e-08
8.51752e-09
6.62137e-09
5.13843e-09
3.98072e-09
3.07851e-09
2.37668e-09
1.83168e-09
1.40922e-09
1.08233e-09
8.29836e-10
6.35152e-10
4.85307e-10
3.70177e-10
2.81876e-10
2.1427e-10
1.62601e-10
1.23181e-10
9.31581e-11
7.0333e-11
5.30101e-11
3.9886e-11
2.99603e-11
2.24666e-11
1.68188e-11
1.25695e-11
9.37803e-12
6.98514e-12
5.19409e-12
3.85583e-12
2.85759e-12
2.11425e-12
1.56168e-12
1.15161e-12
8.47815e-13
6.23128e-13
4.57233e-13
3.34952e-13
2.44971e-13
1.78869e-13
1.30391e-13
9.48963e-14
6.89518e-14
5.00193e-14
3.62265e-14
2.61947e-14
1.89105e-14
1.36299e-14
9.8082e-15
7.04678e-15
5.05476e-15
3.62009e-15
2.58852e-15
1.84797e-15
1.31721e-15
9.37419e-16
6.66087e-16
4.72552e-16
3.34728e-16
2.36733e-16
1.67168e-16
1.17863e-16
8.2972e-17
5.83202e-17
4.093e-17
2.86815e-17
2.00679e-17
1.40198e-17
9.7797e-18
6.81169e-18
4.7373e-18
3.2897e-18
2.28104e-18
1.57929e-18
1.09181e-18
7.53688e-19
5.1951e-19
3.57568e-19
2.45746e-19
1.68647e-19
1.15569e-19
7.90809e-20
5.4035e-20
3.68682e-20
2.51191e-20
1.70898e-20
1.16104e-20
7.87663e-21
5.33603e-21
3.60979e-21
2.43857e-21
1.64505e-21
1.10819e-21
7.45494e-22
5.00808e-22
3.35967e-22
2.25073e-22
1.50575e-22
1.00597e-22
6.71163e-23
4.47176e-23
2.97536e-23
1.97703e-23
1.31191e-23
8.69381e-24
5.75355e-24
3.80262e-24
2.50988e-24
1.65443e-24
1.08911e-24
7.16019e-25
4.70119e-25
3.08265e-25
2.01872e-25
1.32028e-25
8.62373e-26
5.62556e-26
3.66504e-26
2.38472e-26
1.54968e-26
1.00577e-26
6.51935e-27
4.2205e-27
2.72884e-27
1.76218e-27
1.13653e-27
7.321e-28
4.71004e-28
3.02652e-28
1.94235e-28
1.24504e-28
7.97088e-29
5.09686e-29
3.25517e-29
2.07645e-29
1.32296e-29
8.4188e-30
5.35102e-30
3.39709e-30
2.15408e-30
1.36429e-30
8.63053e-31
5.45332e-31
3.44173e-31
2.16964e-31
1.36614e-31
8.5921e-32
5.39765e-32
3.38697e-32
2.12287e-32
1.32904e-32
8.31118e-33
5.19153e-33
3.2392e-33
2.0188e-33
1.25679e-33
7.81538e-34
4.85461e-34
3.01215e-34
1.8669e-34
1.15582e-34
7.14794e-35
4.4157e-35
2.72487e-35
1.67966e-35
1.03426e-35
6.36164e-36
3.90881e-36
2.39914e-36
1.47097e-36
9.00937e-37
5.5122e-37
3.36898e-37
2.05692e-37
1.25453e-37
7.64351e-38
4.65216e-38
2.82857e-38
1.71804e-38
1.04244e-38
6.31869e-39
3.82613e-39
2.31447e-39
1.39863e-39
8.44339e-40
5.09207e-40
3.06787e-40
1.84649e-40
1.11026e-40
6.66915e-41
4.00211e-41
2.39928e-41
1.43696e-41
8.59778e-42
5.13931e-42
3.06903e-42
1.83096e-42
1.09128e-42
6.49798e-43
3.86549e-43
2.29729e-43
1.364e-43
8.09103e-44
4.79493e-44
2.83892e-44
1.67925e-44
9.92369e-45
5.85905e-45
3.45603e-45
2.0367e-45
1.19916e-45
7.05388e-46
4.14555e-46
2.43411e-46
1.42792e-46
8.369e-47
4.90063e-47
2.86708e-47
1.67586e-47
9.78701e-48
5.71051e-48
3.329e-48
1.93896e-48
1.12835e-48
6.56047e-49
3.81107e-49
2.21197e-49
1.28273e-49
7.43216e-50
4.30249e-50
2.48857e-50
1.43817e-50
8.30418e-51
4.79087e-51
2.76162e-51
1.59054e-51
9.15294e-52
5.26273e-52
3.02342e-52
1.73549e-52
9.95371e-53
5.7041e-53
3.26611e-53
1.8686e-53
1.06818e-53
6.10127e-54
3.48209e-54
1.98567e-54
1.13141e-54
6.44147e-55
3.66437e-55
2.08288e-55
1.183e-55
6.7136e-56
3.807e-56
2.15708e-56
1.22125e-56
6.90883e-57
3.90537e-57
2.20587e-57
1.24497e-57
7.02106e-58
3.95648e-58
2.22782e-58
1.25348e-58
7.04726e-59
3.95906e-59
2.22246e-59
1.24665e-59
6.98757e-60
3.91364e-60
2.19032e-60
1.22493e-60
6.84522e-61
3.82245e-61
2.13291e-61
1.18927e-61
6.62629e-62
3.68926e-62
2.05253e-62
1.1411e-62
6.33927e-63
3.51917e-63
1.95221e-63
1.08218e-63
5.99458e-64
3.31823e-64
1.83546e-64
1.01455e-64
5.6039e-65
3.09315e-65
1.7061e-65
9.40378e-66
5.17959e-66
2.85091e-66
1.56809e-66
8.61892e-67
4.73407e-67
2.59846e-67
1.42527e-67
7.81236e-68
4.27925e-68
2.34238e-68
1.2813e-68
7.00405e-69
3.82609e-69
2.0887e-69
1.13953e-69
6.21387e-70
3.38819e-70
1.84998e-70
1.01637e-70
5.70761e-71
3.4361e-71
2.48294e-71
)
;
    }
}


// ************************************************************************* //
