/*--------------------------------*- C++ -*----------------------------------*\
  =========                 |
  \\      /  F ield         | OpenFOAM: The Open Source CFD Toolbox
   \\    /   O peration     | Website:  https://openfoam.org
    \\  /    A nd           | Version:  10
     \\/     M anipulation  |
\*---------------------------------------------------------------------------*/
FoamFile
{
    format      ascii;
    class       volScalarField;
    location    "0.64";
    object      cov;
}
// * * * * * * * * * * * * * * * * * * * * * * * * * * * * * * * * * * * * * //

dimensions      [0 0 0 0 0 0 0];

internalField   uniform 0;

boundaryField
{
    frontAndBack
    {
        type            empty;
    }
    inlet
    {
        type            calculated;
        value           uniform 0;
    }
    outlet
    {
        type            calculated;
        value           uniform 0;
    }
    substrate
    {
        type            calculated;
        value           nonuniform List<scalar> 
400
(
0.734673
0.712425
0.691347
0.670899
0.650825
0.631001
0.611366
0.591896
0.572588
0.553452
0.534506
0.515774
0.497281
0.479053
0.461116
0.443497
0.426218
0.409302
0.392768
0.376634
0.360915
0.345622
0.330766
0.316355
0.302393
0.288885
0.27583
0.26323
0.251081
0.239379
0.22812
0.217296
0.206902
0.196927
0.187364
0.178202
0.16943
0.161039
0.153017
0.145352
0.138033
0.131048
0.124386
0.118035
0.111983
0.106218
0.100731
0.0955082
0.09054
0.0858157
0.0813246
0.0770567
0.0730021
0.0691513
0.065495
0.0620244
0.0587308
0.055606
0.0526418
0.0498307
0.0471653
0.0446385
0.0422434
0.0399737
0.0378231
0.0357856
0.0338556
0.0320277
0.0302966
0.0286574
0.0271054
0.0256362
0.0242455
0.0229291
0.0216833
0.0205043
0.0193887
0.0183331
0.0173344
0.0163895
0.0154957
0.0146502
0.0138504
0.013094
0.0123786
0.0117019
0.0110621
0.010457
0.00988477
0.00934371
0.00883211
0.00834839
0.00789103
0.00745861
0.0070498
0.0066633
0.00629792
0.0059525
0.00562596
0.00531728
0.00502548
0.00474966
0.00448893
0.00424248
0.00400953
0.00378934
0.00358122
0.0033845
0.00319857
0.00302284
0.00285675
0.00269976
0.00255139
0.00241117
0.00227864
0.00215339
0.00203501
0.00192313
0.0018174
0.00171747
0.00162304
0.00153379
0.00144944
0.00136973
0.0012944
0.00122321
0.00115594
0.00109236
0.00103227
0.000975493
0.000921834
0.000871124
0.000823203
0.000777917
0.000735121
0.000694679
0.000656461
0.000620344
0.000586214
0.000553962
0.000523483
0.000494681
0.000467462
0.000441742
0.000417436
0.000394467
0.000372762
0.000352251
0.000332868
0.000314552
0.000297243
0.000280887
0.00026543
0.000250824
0.000237022
0.000223979
0.000211653
0.000200006
0.000189
0.000178599
0.000168771
0.000159484
0.000150707
0.000142414
0.000134576
0.00012717
0.000120172
0.000113559
0.000107309
0.000101404
9.58236e-05
9.05502e-05
8.5567e-05
8.0858e-05
7.64082e-05
7.22032e-05
6.82297e-05
6.44748e-05
6.09266e-05
5.75736e-05
5.44051e-05
5.1411e-05
4.85817e-05
4.59081e-05
4.33816e-05
4.09942e-05
3.87381e-05
3.66062e-05
3.45916e-05
3.26879e-05
3.0889e-05
2.9189e-05
2.75826e-05
2.60647e-05
2.46302e-05
2.32747e-05
2.19938e-05
2.07834e-05
1.96396e-05
1.85587e-05
1.75374e-05
1.65722e-05
1.56602e-05
1.47983e-05
1.39839e-05
1.32143e-05
1.24871e-05
1.17998e-05
1.11504e-05
1.05368e-05
9.95688e-06
9.4089e-06
8.89108e-06
8.40176e-06
7.93937e-06
7.50242e-06
7.08952e-06
6.69935e-06
6.33065e-06
5.98224e-06
5.653e-06
5.34189e-06
5.04789e-06
4.77008e-06
4.50755e-06
4.25947e-06
4.02505e-06
3.80353e-06
3.59419e-06
3.39638e-06
3.20946e-06
3.03282e-06
2.8659e-06
2.70818e-06
2.55913e-06
2.41828e-06
2.28518e-06
2.15941e-06
2.04057e-06
1.92826e-06
1.82213e-06
1.72185e-06
1.62708e-06
1.53753e-06
1.45291e-06
1.37294e-06
1.29738e-06
1.22597e-06
1.15849e-06
1.09473e-06
1.03448e-06
9.77542e-07
9.23738e-07
8.72896e-07
8.24852e-07
7.79452e-07
7.36551e-07
6.9601e-07
6.57701e-07
6.21501e-07
5.87293e-07
5.54967e-07
5.24421e-07
4.95556e-07
4.68279e-07
4.42504e-07
4.18147e-07
3.95131e-07
3.73381e-07
3.52829e-07
3.33408e-07
3.15056e-07
2.97713e-07
2.81326e-07
2.6584e-07
2.51207e-07
2.37379e-07
2.24312e-07
2.11964e-07
2.00296e-07
1.8927e-07
1.78851e-07
1.69005e-07
1.59702e-07
1.5091e-07
1.42602e-07
1.34752e-07
1.27334e-07
1.20324e-07
1.137e-07
1.0744e-07
1.01525e-07
9.59358e-08
9.06541e-08
8.56631e-08
8.09468e-08
7.64902e-08
7.22788e-08
6.82993e-08
6.45389e-08
6.09854e-08
5.76276e-08
5.44546e-08
5.14563e-08
4.8623e-08
4.59457e-08
4.34158e-08
4.10251e-08
3.87661e-08
3.66315e-08
3.46143e-08
3.27083e-08
3.09071e-08
2.92052e-08
2.75969e-08
2.60772e-08
2.46412e-08
2.32842e-08
2.2002e-08
2.07904e-08
1.96454e-08
1.85636e-08
1.75413e-08
1.65754e-08
1.56626e-08
1.48001e-08
1.39851e-08
1.3215e-08
1.24874e-08
1.17998e-08
1.11501e-08
1.05362e-08
9.9562e-09
9.40812e-09
8.89026e-09
8.40095e-09
7.93862e-09
7.50179e-09
7.08906e-09
6.69909e-09
6.33065e-09
5.98255e-09
5.65367e-09
5.34295e-09
5.04941e-09
4.77209e-09
4.51011e-09
4.26262e-09
4.02884e-09
3.808e-09
3.59941e-09
3.4024e-09
3.21632e-09
3.04058e-09
2.87463e-09
2.71792e-09
2.56995e-09
2.43025e-09
2.29837e-09
2.17388e-09
2.05639e-09
1.94552e-09
1.84091e-09
1.74222e-09
1.64915e-09
1.56138e-09
1.47864e-09
1.40067e-09
1.32721e-09
1.25802e-09
1.19289e-09
1.1316e-09
1.07396e-09
1.01978e-09
9.68887e-10
9.2112e-10
8.76324e-10
8.34355e-10
7.95078e-10
7.58366e-10
7.24102e-10
6.92176e-10
6.62485e-10
6.34933e-10
6.09432e-10
5.859e-10
5.64261e-10
5.44446e-10
5.26391e-10
5.10038e-10
4.95333e-10
4.82231e-10
4.70689e-10
4.60669e-10
4.5214e-10
4.45074e-10
4.39448e-10
4.35244e-10
4.32449e-10
4.31054e-10
)
;
    }
    Wall
    {
        type            calculated;
        value           nonuniform List<scalar> 
400
(
0.734673
0.712424
0.691347
0.670899
0.650826
0.631001
0.611366
0.591895
0.572587
0.553451
0.534506
0.515774
0.497281
0.479053
0.461117
0.443498
0.42622
0.409304
0.392771
0.376637
0.360918
0.345625
0.33077
0.316359
0.302397
0.288889
0.275835
0.263234
0.251085
0.239384
0.228124
0.217301
0.206907
0.196932
0.187369
0.178207
0.169435
0.161044
0.153022
0.145357
0.138038
0.131053
0.124391
0.118039
0.111987
0.106223
0.100735
0.0955123
0.0905441
0.0858196
0.0813284
0.0770603
0.0730056
0.0691547
0.0654983
0.0620276
0.0587339
0.0556089
0.0526446
0.0498334
0.0471679
0.0446409
0.0422458
0.039976
0.0378252
0.0357877
0.0338576
0.0320295
0.0302983
0.0286591
0.027107
0.0256377
0.0242469
0.0229304
0.0216845
0.0205055
0.0193898
0.0183342
0.0173354
0.0163905
0.0154966
0.014651
0.0138512
0.0130947
0.0123793
0.0117026
0.0110627
0.0104576
0.00988533
0.00934423
0.0088326
0.00834884
0.00789145
0.00745901
0.00705017
0.00666365
0.00629824
0.0059528
0.00562624
0.00531754
0.00502573
0.00474989
0.00448914
0.00424268
0.00400971
0.00378951
0.00358137
0.00338465
0.00319871
0.00302297
0.00285686
0.00269987
0.0025515
0.00241126
0.00227873
0.00215347
0.00203508
0.0019232
0.00181746
0.00171753
0.00162309
0.00153384
0.00144949
0.00136978
0.00129444
0.00122325
0.00115597
0.00109239
0.0010323
0.000975519
0.000921858
0.000871146
0.000823224
0.000777936
0.000735139
0.000694695
0.000656475
0.000620358
0.000586227
0.000553973
0.000523493
0.00049469
0.000467471
0.000441749
0.000417443
0.000394473
0.000372768
0.000352256
0.000332873
0.000314556
0.000297247
0.00028089
0.000265433
0.000250827
0.000237024
0.000223981
0.000211656
0.000200008
0.000189002
0.000178601
0.000168773
0.000159485
0.000150708
0.000142415
0.000134577
0.000127171
0.000120173
0.00011356
0.00010731
0.000101405
9.58241e-05
9.05507e-05
8.55674e-05
8.08584e-05
7.64086e-05
7.22036e-05
6.823e-05
6.44751e-05
6.09268e-05
5.75738e-05
5.44053e-05
5.14112e-05
4.85819e-05
4.59082e-05
4.33817e-05
4.09943e-05
3.87382e-05
3.66063e-05
3.45917e-05
3.2688e-05
3.0889e-05
2.91891e-05
2.75827e-05
2.60647e-05
2.46302e-05
2.32747e-05
2.19938e-05
2.07834e-05
1.96396e-05
1.85588e-05
1.75374e-05
1.65722e-05
1.56602e-05
1.47983e-05
1.39839e-05
1.32143e-05
1.24871e-05
1.17998e-05
1.11504e-05
1.05368e-05
9.95688e-06
9.4089e-06
8.89108e-06
8.40176e-06
7.93937e-06
7.50242e-06
7.08952e-06
6.69935e-06
6.33065e-06
5.98224e-06
5.653e-06
5.34188e-06
5.04789e-06
4.77008e-06
4.50755e-06
4.25947e-06
4.02505e-06
3.80353e-06
3.59419e-06
3.39638e-06
3.20946e-06
3.03282e-06
2.8659e-06
2.70817e-06
2.55912e-06
2.41828e-06
2.28518e-06
2.15941e-06
2.04057e-06
1.92826e-06
1.82213e-06
1.72185e-06
1.62708e-06
1.53753e-06
1.45291e-06
1.37294e-06
1.29738e-06
1.22597e-06
1.15849e-06
1.09473e-06
1.03448e-06
9.77541e-07
9.23738e-07
8.72896e-07
8.24852e-07
7.79452e-07
7.3655e-07
6.9601e-07
6.57701e-07
6.21501e-07
5.87293e-07
5.54967e-07
5.24421e-07
4.95555e-07
4.68279e-07
4.42504e-07
4.18147e-07
3.95131e-07
3.73381e-07
3.52829e-07
3.33408e-07
3.15056e-07
2.97713e-07
2.81326e-07
2.6584e-07
2.51207e-07
2.37378e-07
2.24312e-07
2.11964e-07
2.00296e-07
1.8927e-07
1.78851e-07
1.69005e-07
1.59702e-07
1.5091e-07
1.42602e-07
1.34752e-07
1.27334e-07
1.20324e-07
1.137e-07
1.0744e-07
1.01525e-07
9.59358e-08
9.06541e-08
8.56631e-08
8.09468e-08
7.64902e-08
7.22788e-08
6.82993e-08
6.45389e-08
6.09854e-08
5.76276e-08
5.44546e-08
5.14563e-08
4.8623e-08
4.59457e-08
4.34158e-08
4.10251e-08
3.87661e-08
3.66315e-08
3.46143e-08
3.27083e-08
3.09071e-08
2.92052e-08
2.75969e-08
2.60772e-08
2.46412e-08
2.32842e-08
2.2002e-08
2.07904e-08
1.96455e-08
1.85636e-08
1.75413e-08
1.65754e-08
1.56626e-08
1.48001e-08
1.39851e-08
1.3215e-08
1.24874e-08
1.17998e-08
1.11501e-08
1.05362e-08
9.9562e-09
9.40813e-09
8.89026e-09
8.40095e-09
7.93862e-09
7.50179e-09
7.08906e-09
6.69909e-09
6.33065e-09
5.98255e-09
5.65367e-09
5.34295e-09
5.04941e-09
4.77209e-09
4.51011e-09
4.26262e-09
4.02884e-09
3.80801e-09
3.59941e-09
3.4024e-09
3.21632e-09
3.04058e-09
2.87463e-09
2.71792e-09
2.56995e-09
2.43025e-09
2.29837e-09
2.17388e-09
2.05639e-09
1.94552e-09
1.84091e-09
1.74222e-09
1.64915e-09
1.56138e-09
1.47864e-09
1.40067e-09
1.32721e-09
1.25802e-09
1.19289e-09
1.1316e-09
1.07396e-09
1.01978e-09
9.68887e-10
9.2112e-10
8.76324e-10
8.34355e-10
7.95078e-10
7.58366e-10
7.24103e-10
6.92176e-10
6.62485e-10
6.34933e-10
6.09432e-10
5.859e-10
5.64262e-10
5.44446e-10
5.26391e-10
5.10038e-10
4.95333e-10
4.82231e-10
4.70689e-10
4.60669e-10
4.5214e-10
4.45074e-10
4.39448e-10
4.35244e-10
4.32449e-10
4.31054e-10
)
;
    }
}


// ************************************************************************* //
