/*--------------------------------*- C++ -*----------------------------------*\
  =========                 |
  \\      /  F ield         | OpenFOAM: The Open Source CFD Toolbox
   \\    /   O peration     | Website:  https://openfoam.org
    \\  /    A nd           | Version:  10
     \\/     M anipulation  |
\*---------------------------------------------------------------------------*/
FoamFile
{
    format      ascii;
    class       volScalarField;
    location    "0.64";
    object      Exp1;
}
// * * * * * * * * * * * * * * * * * * * * * * * * * * * * * * * * * * * * * //

dimensions      [0 0 0 0 0 0 0];

internalField   uniform 0;

boundaryField
{
    frontAndBack
    {
        type            empty;
    }
    inlet
    {
        type            calculated;
        value           uniform 0;
    }
    outlet
    {
        type            calculated;
        value           uniform 0;
    }
    substrate
    {
        type            calculated;
        value           nonuniform List<scalar> 
400
(
6.72772e-12
2.01475e-11
3.34843e-11
4.67017e-11
5.97681e-11
7.26557e-11
8.53402e-11
9.78002e-11
1.10017e-10
1.21975e-10
1.3366e-10
1.4506e-10
1.56167e-10
1.66972e-10
1.77471e-10
1.87658e-10
1.97533e-10
2.07092e-10
2.16337e-10
2.25269e-10
2.3389e-10
2.42202e-10
2.50211e-10
2.5792e-10
2.65334e-10
2.72458e-10
2.793e-10
2.85864e-10
2.92157e-10
2.98187e-10
3.03959e-10
3.0948e-10
3.14757e-10
3.19797e-10
3.24607e-10
3.29193e-10
3.33563e-10
3.37722e-10
3.41677e-10
3.45435e-10
3.49e-10
3.5238e-10
3.55581e-10
3.58606e-10
3.61464e-10
3.64157e-10
3.66692e-10
3.69074e-10
3.71306e-10
3.73395e-10
3.75344e-10
3.77157e-10
3.78839e-10
3.80393e-10
3.81823e-10
3.83134e-10
3.84328e-10
3.85408e-10
3.86379e-10
3.87243e-10
3.88003e-10
3.88662e-10
3.89223e-10
3.89688e-10
3.90061e-10
3.90342e-10
3.90536e-10
3.90644e-10
3.90668e-10
3.90611e-10
3.90474e-10
3.9026e-10
3.89971e-10
3.89607e-10
3.89172e-10
3.88667e-10
3.88093e-10
3.87453e-10
3.86747e-10
3.85978e-10
3.85146e-10
3.84254e-10
3.83303e-10
3.82294e-10
3.81228e-10
3.80107e-10
3.78932e-10
3.77705e-10
3.76426e-10
3.75097e-10
3.73719e-10
3.72294e-10
3.70821e-10
3.69304e-10
3.67742e-10
3.66136e-10
3.64489e-10
3.628e-10
3.61072e-10
3.59304e-10
3.57498e-10
3.55655e-10
3.53777e-10
3.51863e-10
3.49915e-10
3.47934e-10
3.45921e-10
3.43877e-10
3.41803e-10
3.39699e-10
3.37567e-10
3.35407e-10
3.33221e-10
3.31009e-10
3.28773e-10
3.26512e-10
3.24229e-10
3.21923e-10
3.19596e-10
3.17248e-10
3.14881e-10
3.12495e-10
3.10091e-10
3.0767e-10
3.05232e-10
3.02779e-10
3.00312e-10
2.9783e-10
2.95335e-10
2.92827e-10
2.90308e-10
2.87778e-10
2.85238e-10
2.82689e-10
2.8013e-10
2.77564e-10
2.74991e-10
2.72411e-10
2.69825e-10
2.67234e-10
2.64639e-10
2.6204e-10
2.59438e-10
2.56833e-10
2.54227e-10
2.51619e-10
2.49011e-10
2.46403e-10
2.43796e-10
2.4119e-10
2.38586e-10
2.35985e-10
2.33386e-10
2.30792e-10
2.28201e-10
2.25615e-10
2.23035e-10
2.2046e-10
2.17892e-10
2.1533e-10
2.12776e-10
2.10229e-10
2.07691e-10
2.05162e-10
2.02642e-10
2.00131e-10
1.97631e-10
1.95141e-10
1.92663e-10
1.90195e-10
1.87739e-10
1.85296e-10
1.82865e-10
1.80447e-10
1.78042e-10
1.75651e-10
1.73273e-10
1.7091e-10
1.68562e-10
1.66228e-10
1.6391e-10
1.61607e-10
1.5932e-10
1.57049e-10
1.54794e-10
1.52555e-10
1.50334e-10
1.48129e-10
1.45942e-10
1.43772e-10
1.41619e-10
1.39485e-10
1.37368e-10
1.3527e-10
1.3319e-10
1.31128e-10
1.29085e-10
1.27061e-10
1.25056e-10
1.23069e-10
1.21102e-10
1.19154e-10
1.17226e-10
1.15317e-10
1.13427e-10
1.11557e-10
1.09707e-10
1.07876e-10
1.06065e-10
1.04274e-10
1.02503e-10
1.00751e-10
9.90196e-11
9.7308e-11
9.56162e-11
9.39443e-11
9.22923e-11
9.06602e-11
8.9048e-11
8.74556e-11
8.5883e-11
8.43302e-11
8.27971e-11
8.12838e-11
7.979e-11
7.83159e-11
7.68612e-11
7.5426e-11
7.40102e-11
7.26137e-11
7.12364e-11
6.98783e-11
6.85391e-11
6.72189e-11
6.59176e-11
6.4635e-11
6.33711e-11
6.21256e-11
6.08986e-11
5.96899e-11
5.84994e-11
5.73269e-11
5.61723e-11
5.50355e-11
5.39164e-11
5.28147e-11
5.17305e-11
5.06635e-11
4.96137e-11
4.85807e-11
4.75646e-11
4.65652e-11
4.55822e-11
4.46156e-11
4.36652e-11
4.27308e-11
4.18123e-11
4.09096e-11
4.00224e-11
3.91506e-11
3.8294e-11
3.74525e-11
3.66259e-11
3.58141e-11
3.50168e-11
3.42339e-11
3.34653e-11
3.27107e-11
3.197e-11
3.12431e-11
3.05297e-11
2.98297e-11
2.91429e-11
2.84692e-11
2.78084e-11
2.71602e-11
2.65247e-11
2.59014e-11
2.52904e-11
2.46915e-11
2.41043e-11
2.35289e-11
2.29651e-11
2.24125e-11
2.18712e-11
2.13409e-11
2.08215e-11
2.03128e-11
1.98147e-11
1.93269e-11
1.88494e-11
1.83819e-11
1.79243e-11
1.74764e-11
1.70382e-11
1.66094e-11
1.61899e-11
1.57795e-11
1.5378e-11
1.49854e-11
1.46015e-11
1.42261e-11
1.38591e-11
1.35003e-11
1.31497e-11
1.2807e-11
1.2472e-11
1.21448e-11
1.18251e-11
1.15128e-11
1.12078e-11
1.09099e-11
1.0619e-11
1.0335e-11
1.00577e-11
9.78709e-12
9.52293e-12
9.26515e-12
9.01361e-12
8.7682e-12
8.52881e-12
8.29531e-12
8.06759e-12
7.84553e-12
7.62903e-12
7.41798e-12
7.21226e-12
7.01177e-12
6.81641e-12
6.62607e-12
6.44065e-12
6.26005e-12
6.08418e-12
5.91293e-12
5.74621e-12
5.58393e-12
5.426e-12
5.27233e-12
5.12282e-12
4.9774e-12
4.83597e-12
4.69846e-12
4.56477e-12
4.43484e-12
4.30859e-12
4.18593e-12
4.06679e-12
3.9511e-12
3.83879e-12
3.72978e-12
3.62401e-12
3.52141e-12
3.42191e-12
3.32545e-12
3.23196e-12
3.14139e-12
3.05367e-12
2.96875e-12
2.88657e-12
2.80707e-12
2.73021e-12
2.65592e-12
2.58416e-12
2.51487e-12
2.44802e-12
2.38355e-12
2.32141e-12
2.26157e-12
2.20398e-12
2.1486e-12
2.09539e-12
2.04431e-12
1.99533e-12
1.94841e-12
1.90351e-12
1.86061e-12
1.81966e-12
1.78065e-12
1.74354e-12
1.7083e-12
1.67491e-12
1.64334e-12
1.61357e-12
1.58558e-12
1.55934e-12
1.53484e-12
1.51205e-12
1.49096e-12
1.47156e-12
1.45382e-12
1.43774e-12
1.42331e-12
1.4105e-12
1.39931e-12
1.38974e-12
1.38177e-12
1.37541e-12
1.37064e-12
1.36746e-12
1.36587e-12
)
;
    }
    Wall
    {
        type            calculated;
        value           nonuniform List<scalar> 
400
(
6.72774e-12
2.01476e-11
3.34847e-11
4.67023e-11
5.97688e-11
7.26564e-11
8.53409e-11
9.78008e-11
1.10018e-10
1.21975e-10
1.3366e-10
1.4506e-10
1.56166e-10
1.66972e-10
1.7747e-10
1.87657e-10
1.97531e-10
2.0709e-10
2.16335e-10
2.25267e-10
2.33887e-10
2.42199e-10
2.50208e-10
2.57916e-10
2.6533e-10
2.72454e-10
2.79296e-10
2.8586e-10
2.92153e-10
2.98182e-10
3.03953e-10
3.09474e-10
3.14751e-10
3.19791e-10
3.24601e-10
3.29187e-10
3.33557e-10
3.37716e-10
3.4167e-10
3.45428e-10
3.48993e-10
3.52373e-10
3.55573e-10
3.58599e-10
3.61456e-10
3.64149e-10
3.66684e-10
3.69066e-10
3.71298e-10
3.73387e-10
3.75335e-10
3.77148e-10
3.7883e-10
3.80384e-10
3.81815e-10
3.83125e-10
3.84319e-10
3.85399e-10
3.8637e-10
3.87234e-10
3.87994e-10
3.88653e-10
3.89214e-10
3.89679e-10
3.90051e-10
3.90333e-10
3.90526e-10
3.90634e-10
3.90659e-10
3.90601e-10
3.90465e-10
3.9025e-10
3.89961e-10
3.89597e-10
3.89162e-10
3.88657e-10
3.88083e-10
3.87443e-10
3.86737e-10
3.85968e-10
3.85136e-10
3.84244e-10
3.83293e-10
3.82284e-10
3.81218e-10
3.80097e-10
3.78922e-10
3.77695e-10
3.76416e-10
3.75087e-10
3.73709e-10
3.72284e-10
3.70812e-10
3.69294e-10
3.67732e-10
3.66127e-10
3.64479e-10
3.6279e-10
3.61062e-10
3.59294e-10
3.57488e-10
3.55646e-10
3.53767e-10
3.51853e-10
3.49905e-10
3.47925e-10
3.45912e-10
3.43868e-10
3.41793e-10
3.3969e-10
3.37558e-10
3.35398e-10
3.33212e-10
3.31e-10
3.28764e-10
3.26503e-10
3.2422e-10
3.21914e-10
3.19587e-10
3.1724e-10
3.14872e-10
3.12486e-10
3.10082e-10
3.07661e-10
3.05224e-10
3.02771e-10
3.00303e-10
2.97821e-10
2.95326e-10
2.92819e-10
2.903e-10
2.8777e-10
2.8523e-10
2.82681e-10
2.80122e-10
2.77556e-10
2.74983e-10
2.72403e-10
2.69818e-10
2.67227e-10
2.64632e-10
2.62033e-10
2.59431e-10
2.56826e-10
2.5422e-10
2.51612e-10
2.49004e-10
2.46396e-10
2.43789e-10
2.41183e-10
2.38579e-10
2.35978e-10
2.3338e-10
2.30785e-10
2.28194e-10
2.25609e-10
2.23028e-10
2.20454e-10
2.17885e-10
2.15324e-10
2.1277e-10
2.10223e-10
2.07685e-10
2.05156e-10
2.02636e-10
2.00126e-10
1.97625e-10
1.95136e-10
1.92657e-10
1.9019e-10
1.87734e-10
1.85291e-10
1.8286e-10
1.80442e-10
1.78037e-10
1.75646e-10
1.73268e-10
1.70905e-10
1.68557e-10
1.66223e-10
1.63905e-10
1.61602e-10
1.59315e-10
1.57044e-10
1.54789e-10
1.52551e-10
1.50329e-10
1.48125e-10
1.45937e-10
1.43767e-10
1.41615e-10
1.39481e-10
1.37364e-10
1.35266e-10
1.33186e-10
1.31124e-10
1.29081e-10
1.27057e-10
1.25052e-10
1.23066e-10
1.21099e-10
1.19151e-10
1.17222e-10
1.15313e-10
1.13424e-10
1.11554e-10
1.09704e-10
1.07873e-10
1.06062e-10
1.04271e-10
1.025e-10
1.00748e-10
9.90167e-11
9.73051e-11
9.56133e-11
9.39415e-11
9.22896e-11
9.06575e-11
8.90453e-11
8.7453e-11
8.58805e-11
8.43277e-11
8.27947e-11
8.12814e-11
7.97877e-11
7.83136e-11
7.6859e-11
7.54238e-11
7.4008e-11
7.26116e-11
7.12343e-11
6.98762e-11
6.85371e-11
6.7217e-11
6.59157e-11
6.46331e-11
6.33692e-11
6.21238e-11
6.08968e-11
5.96881e-11
5.84976e-11
5.73252e-11
5.61706e-11
5.50339e-11
5.39148e-11
5.28132e-11
5.1729e-11
5.0662e-11
4.96122e-11
4.85793e-11
4.75632e-11
4.65638e-11
4.55809e-11
4.46143e-11
4.36639e-11
4.27296e-11
4.18111e-11
4.09084e-11
4.00212e-11
3.91494e-11
3.82929e-11
3.74514e-11
3.66248e-11
3.5813e-11
3.50158e-11
3.42329e-11
3.34643e-11
3.27097e-11
3.19691e-11
3.12422e-11
3.05288e-11
2.98288e-11
2.91421e-11
2.84684e-11
2.78076e-11
2.71595e-11
2.65239e-11
2.59007e-11
2.52897e-11
2.46907e-11
2.41036e-11
2.35282e-11
2.29644e-11
2.24119e-11
2.18706e-11
2.13403e-11
2.08209e-11
2.03122e-11
1.98141e-11
1.93263e-11
1.88488e-11
1.83813e-11
1.79238e-11
1.74759e-11
1.70377e-11
1.66089e-11
1.61894e-11
1.5779e-11
1.53776e-11
1.4985e-11
1.46011e-11
1.42257e-11
1.38587e-11
1.35e-11
1.31493e-11
1.28066e-11
1.24717e-11
1.21445e-11
1.18248e-11
1.15125e-11
1.12075e-11
1.09096e-11
1.06187e-11
1.03347e-11
1.00575e-11
9.78681e-12
9.52266e-12
9.26488e-12
9.01335e-12
8.76796e-12
8.52857e-12
8.29507e-12
8.06736e-12
7.84531e-12
7.62882e-12
7.41777e-12
7.21206e-12
7.01157e-12
6.81622e-12
6.62588e-12
6.44047e-12
6.25988e-12
6.08401e-12
5.91277e-12
5.74605e-12
5.58378e-12
5.42585e-12
5.27218e-12
5.12268e-12
4.97726e-12
4.83584e-12
4.69833e-12
4.56465e-12
4.43472e-12
4.30847e-12
4.18582e-12
4.06668e-12
3.951e-12
3.83869e-12
3.72968e-12
3.62391e-12
3.52131e-12
3.42182e-12
3.32536e-12
3.23187e-12
3.14131e-12
3.05359e-12
2.96867e-12
2.88649e-12
2.807e-12
2.73014e-12
2.65585e-12
2.58409e-12
2.51481e-12
2.44796e-12
2.38349e-12
2.32135e-12
2.26151e-12
2.20393e-12
2.14855e-12
2.09534e-12
2.04426e-12
1.99528e-12
1.94836e-12
1.90347e-12
1.86056e-12
1.81962e-12
1.78061e-12
1.7435e-12
1.70826e-12
1.67487e-12
1.6433e-12
1.61353e-12
1.58554e-12
1.5593e-12
1.5348e-12
1.51202e-12
1.49093e-12
1.47153e-12
1.45379e-12
1.43771e-12
1.42327e-12
1.41047e-12
1.39928e-12
1.38971e-12
1.38174e-12
1.37537e-12
1.37061e-12
1.36744e-12
1.36586e-12
)
;
    }
}


// ************************************************************************* //
