/*--------------------------------*- C++ -*----------------------------------*\
  =========                 |
  \\      /  F ield         | OpenFOAM: The Open Source CFD Toolbox
   \\    /   O peration     | Website:  https://openfoam.org
    \\  /    A nd           | Version:  10
     \\/     M anipulation  |
\*---------------------------------------------------------------------------*/
FoamFile
{
    format      ascii;
    class       volScalarField;
    location    "0.64";
    object      N1;
}
// * * * * * * * * * * * * * * * * * * * * * * * * * * * * * * * * * * * * * //

dimensions      [0 0 0 0 0 0 0];

internalField   nonuniform List<scalar> 
8000
(
5.10697e-11
1.52999e-10
2.54375e-10
3.54915e-10
4.54378e-10
5.52549e-10
6.49243e-10
7.44294e-10
8.37558e-10
9.2891e-10
1.01824e-09
1.10546e-09
1.19049e-09
1.27328e-09
1.35377e-09
1.43193e-09
1.50774e-09
1.58119e-09
1.65226e-09
1.72097e-09
1.78733e-09
1.85136e-09
1.91308e-09
1.97252e-09
2.02973e-09
2.08473e-09
2.13758e-09
2.1883e-09
2.23696e-09
2.2836e-09
2.32827e-09
2.37102e-09
2.41189e-09
2.45095e-09
2.48823e-09
2.5238e-09
2.5577e-09
2.58997e-09
2.62068e-09
2.64986e-09
2.67756e-09
2.70382e-09
2.7287e-09
2.75223e-09
2.77446e-09
2.79542e-09
2.81515e-09
2.8337e-09
2.85109e-09
2.86737e-09
2.88256e-09
2.8967e-09
2.90983e-09
2.92197e-09
2.93315e-09
2.94339e-09
2.95274e-09
2.9612e-09
2.96882e-09
2.9756e-09
2.98158e-09
2.98678e-09
2.99122e-09
2.99492e-09
2.99789e-09
3.00017e-09
3.00176e-09
3.00268e-09
3.00296e-09
3.00261e-09
3.00164e-09
3.00007e-09
2.99792e-09
2.9952e-09
2.99192e-09
2.9881e-09
2.98374e-09
2.97888e-09
2.9735e-09
2.96764e-09
2.96129e-09
2.95448e-09
2.9472e-09
2.93948e-09
2.93132e-09
2.92274e-09
2.91374e-09
2.90433e-09
2.89453e-09
2.88434e-09
2.87377e-09
2.86283e-09
2.85153e-09
2.83988e-09
2.82789e-09
2.81557e-09
2.80292e-09
2.78995e-09
2.77667e-09
2.76309e-09
2.74922e-09
2.73506e-09
2.72063e-09
2.70592e-09
2.69095e-09
2.67573e-09
2.66026e-09
2.64455e-09
2.6286e-09
2.61243e-09
2.59604e-09
2.57944e-09
2.56264e-09
2.54563e-09
2.52844e-09
2.51106e-09
2.4935e-09
2.47578e-09
2.45788e-09
2.43984e-09
2.42163e-09
2.40329e-09
2.3848e-09
2.36619e-09
2.34744e-09
2.32858e-09
2.3096e-09
2.29052e-09
2.27133e-09
2.25205e-09
2.23268e-09
2.21323e-09
2.19369e-09
2.17409e-09
2.15441e-09
2.13468e-09
2.11489e-09
2.09505e-09
2.07516e-09
2.05524e-09
2.03528e-09
2.01529e-09
1.99528e-09
1.97525e-09
1.95521e-09
1.93515e-09
1.9151e-09
1.89504e-09
1.87499e-09
1.85495e-09
1.83492e-09
1.81491e-09
1.79493e-09
1.77498e-09
1.75505e-09
1.73517e-09
1.71532e-09
1.69552e-09
1.67577e-09
1.65607e-09
1.63642e-09
1.61684e-09
1.59732e-09
1.57787e-09
1.55848e-09
1.53918e-09
1.51995e-09
1.5008e-09
1.48174e-09
1.46276e-09
1.44387e-09
1.42508e-09
1.40638e-09
1.38779e-09
1.36929e-09
1.3509e-09
1.33262e-09
1.31444e-09
1.29638e-09
1.27844e-09
1.26061e-09
1.24289e-09
1.2253e-09
1.20784e-09
1.19049e-09
1.17328e-09
1.15619e-09
1.13924e-09
1.12241e-09
1.10573e-09
1.08917e-09
1.07276e-09
1.05648e-09
1.04034e-09
1.02434e-09
1.00849e-09
9.92774e-10
9.77206e-10
9.61784e-10
9.46508e-10
9.31379e-10
9.16399e-10
9.01566e-10
8.86884e-10
8.72351e-10
8.57969e-10
8.43738e-10
8.29658e-10
8.15731e-10
8.01955e-10
7.88332e-10
7.74862e-10
7.61545e-10
7.48381e-10
7.35369e-10
7.22511e-10
7.09806e-10
6.97254e-10
6.84854e-10
6.72608e-10
6.60513e-10
6.48571e-10
6.3678e-10
6.25141e-10
6.13653e-10
6.02316e-10
5.91128e-10
5.8009e-10
5.69201e-10
5.58461e-10
5.47868e-10
5.37423e-10
5.27124e-10
5.16971e-10
5.06962e-10
4.97098e-10
4.87377e-10
4.77799e-10
4.68362e-10
4.59066e-10
4.4991e-10
4.40892e-10
4.32012e-10
4.2327e-10
4.14663e-10
4.0619e-10
3.97852e-10
3.89646e-10
3.81571e-10
3.73627e-10
3.65812e-10
3.58126e-10
3.50566e-10
3.43132e-10
3.35822e-10
3.28636e-10
3.21572e-10
3.14629e-10
3.07806e-10
3.01101e-10
2.94513e-10
2.88042e-10
2.81684e-10
2.75441e-10
2.69309e-10
2.63288e-10
2.57376e-10
2.51573e-10
2.45877e-10
2.40286e-10
2.34799e-10
2.29416e-10
2.24134e-10
2.18952e-10
2.1387e-10
2.08885e-10
2.03997e-10
1.99204e-10
1.94505e-10
1.89898e-10
1.85383e-10
1.80957e-10
1.76621e-10
1.72371e-10
1.68208e-10
1.6413e-10
1.60135e-10
1.56223e-10
1.52392e-10
1.4864e-10
1.44968e-10
1.41372e-10
1.37853e-10
1.34409e-10
1.31038e-10
1.2774e-10
1.24514e-10
1.21357e-10
1.1827e-10
1.15251e-10
1.12298e-10
1.09411e-10
1.06588e-10
1.03829e-10
1.01132e-10
9.84963e-11
9.59206e-11
9.34039e-11
9.09452e-11
8.85434e-11
8.61975e-11
8.39065e-11
8.16693e-11
7.9485e-11
7.73526e-11
7.5271e-11
7.32394e-11
7.12568e-11
6.93223e-11
6.74349e-11
6.55938e-11
6.37979e-11
6.20466e-11
6.03388e-11
5.86737e-11
5.70505e-11
5.54684e-11
5.39265e-11
5.2424e-11
5.09601e-11
4.95341e-11
4.81451e-11
4.67925e-11
4.54754e-11
4.41933e-11
4.29452e-11
4.17306e-11
4.05487e-11
3.93988e-11
3.82804e-11
3.71927e-11
3.61351e-11
3.5107e-11
3.41077e-11
3.31367e-11
3.21934e-11
3.12771e-11
3.03873e-11
2.95236e-11
2.86852e-11
2.78717e-11
2.70826e-11
2.63174e-11
2.55755e-11
2.48565e-11
2.41599e-11
2.34853e-11
2.28322e-11
2.22002e-11
2.15888e-11
2.09976e-11
2.04263e-11
1.98744e-11
1.93415e-11
1.88273e-11
1.83315e-11
1.78536e-11
1.73934e-11
1.69505e-11
1.65246e-11
1.61153e-11
1.57225e-11
1.53458e-11
1.49849e-11
1.46396e-11
1.43096e-11
1.39947e-11
1.36947e-11
1.34093e-11
1.31383e-11
1.28815e-11
1.26387e-11
1.24097e-11
1.21944e-11
1.19926e-11
1.18042e-11
1.16289e-11
1.14668e-11
1.13175e-11
1.11811e-11
1.10575e-11
1.09464e-11
1.08479e-11
1.07619e-11
1.06883e-11
1.0627e-11
1.05781e-11
1.05414e-11
1.05169e-11
1.05047e-11
5.15923e-11
1.54613e-10
2.57165e-10
3.58979e-10
4.59815e-10
5.59459e-10
6.57721e-10
7.54432e-10
8.49441e-10
9.42618e-10
1.03385e-09
1.12303e-09
1.21009e-09
1.29495e-09
1.37756e-09
1.45787e-09
1.53586e-09
1.61151e-09
1.6848e-09
1.75573e-09
1.8243e-09
1.89054e-09
1.95446e-09
2.01609e-09
2.07545e-09
2.13258e-09
2.18751e-09
2.2403e-09
2.29097e-09
2.33958e-09
2.38618e-09
2.4308e-09
2.4735e-09
2.51433e-09
2.55334e-09
2.59057e-09
2.62608e-09
2.65991e-09
2.69211e-09
2.72273e-09
2.75182e-09
2.77942e-09
2.80557e-09
2.83032e-09
2.85371e-09
2.87579e-09
2.89658e-09
2.91614e-09
2.93449e-09
2.95168e-09
2.96773e-09
2.98269e-09
2.99658e-09
3.00944e-09
3.0213e-09
3.03218e-09
3.04212e-09
3.05114e-09
3.05927e-09
3.06653e-09
3.07295e-09
3.07855e-09
3.08335e-09
3.08738e-09
3.09065e-09
3.09319e-09
3.09502e-09
3.09615e-09
3.09661e-09
3.0964e-09
3.09555e-09
3.09408e-09
3.09199e-09
3.08931e-09
3.08605e-09
3.08222e-09
3.07784e-09
3.07292e-09
3.06747e-09
3.06151e-09
3.05505e-09
3.0481e-09
3.04067e-09
3.03277e-09
3.02443e-09
3.01563e-09
3.00641e-09
2.99676e-09
2.98669e-09
2.97623e-09
2.96537e-09
2.95413e-09
2.94251e-09
2.93053e-09
2.9182e-09
2.90551e-09
2.89249e-09
2.87914e-09
2.86546e-09
2.85148e-09
2.83719e-09
2.8226e-09
2.80773e-09
2.79257e-09
2.77715e-09
2.76145e-09
2.7455e-09
2.72931e-09
2.71287e-09
2.69619e-09
2.67929e-09
2.66217e-09
2.64484e-09
2.6273e-09
2.60957e-09
2.59164e-09
2.57353e-09
2.55524e-09
2.53679e-09
2.51816e-09
2.49939e-09
2.48046e-09
2.46139e-09
2.44218e-09
2.42284e-09
2.40337e-09
2.38379e-09
2.3641e-09
2.3443e-09
2.32441e-09
2.30442e-09
2.28434e-09
2.26418e-09
2.24395e-09
2.22365e-09
2.20328e-09
2.18286e-09
2.16238e-09
2.14186e-09
2.1213e-09
2.1007e-09
2.08007e-09
2.05942e-09
2.03875e-09
2.01806e-09
1.99736e-09
1.97666e-09
1.95596e-09
1.93527e-09
1.91458e-09
1.89391e-09
1.87327e-09
1.85264e-09
1.83204e-09
1.81148e-09
1.79096e-09
1.77047e-09
1.75003e-09
1.72965e-09
1.70931e-09
1.68904e-09
1.66883e-09
1.64868e-09
1.6286e-09
1.6086e-09
1.58867e-09
1.56882e-09
1.54906e-09
1.52938e-09
1.5098e-09
1.4903e-09
1.47091e-09
1.45161e-09
1.43241e-09
1.41332e-09
1.39434e-09
1.37547e-09
1.35671e-09
1.33807e-09
1.31955e-09
1.30114e-09
1.28286e-09
1.26471e-09
1.24668e-09
1.22878e-09
1.21101e-09
1.19337e-09
1.17587e-09
1.15851e-09
1.14128e-09
1.1242e-09
1.10725e-09
1.09045e-09
1.0738e-09
1.05728e-09
1.04092e-09
1.0247e-09
1.00863e-09
9.92714e-10
9.76947e-10
9.61332e-10
9.45869e-10
9.3056e-10
9.15405e-10
9.00405e-10
8.85561e-10
8.70872e-10
8.5634e-10
8.41964e-10
8.27746e-10
8.13685e-10
7.99781e-10
7.86036e-10
7.72448e-10
7.59019e-10
7.45747e-10
7.32633e-10
7.19677e-10
7.06879e-10
6.94238e-10
6.81755e-10
6.69429e-10
6.57259e-10
6.45245e-10
6.33388e-10
6.21686e-10
6.10139e-10
5.98746e-10
5.87507e-10
5.76421e-10
5.65488e-10
5.54706e-10
5.44076e-10
5.33596e-10
5.23266e-10
5.13085e-10
5.03051e-10
4.93165e-10
4.83424e-10
4.73829e-10
4.64379e-10
4.55071e-10
4.45906e-10
4.36882e-10
4.27998e-10
4.19253e-10
4.10646e-10
4.02177e-10
3.93842e-10
3.85643e-10
3.77577e-10
3.69643e-10
3.6184e-10
3.54167e-10
3.46622e-10
3.39205e-10
3.31914e-10
3.24748e-10
3.17705e-10
3.10784e-10
3.03985e-10
2.97305e-10
2.90743e-10
2.84299e-10
2.7797e-10
2.71755e-10
2.65653e-10
2.59664e-10
2.53784e-10
2.48013e-10
2.4235e-10
2.36794e-10
2.31342e-10
2.25994e-10
2.20748e-10
2.15603e-10
2.10558e-10
2.0561e-10
2.0076e-10
1.96005e-10
1.91345e-10
1.86777e-10
1.82301e-10
1.77915e-10
1.73618e-10
1.69408e-10
1.65285e-10
1.61247e-10
1.57293e-10
1.53421e-10
1.4963e-10
1.45919e-10
1.42286e-10
1.38731e-10
1.35252e-10
1.31848e-10
1.28518e-10
1.2526e-10
1.22074e-10
1.18957e-10
1.15909e-10
1.1293e-10
1.10016e-10
1.07168e-10
1.04384e-10
1.01664e-10
9.90054e-11
9.64078e-11
9.387e-11
9.13909e-11
8.89696e-11
8.66049e-11
8.42958e-11
8.20412e-11
7.98402e-11
7.76917e-11
7.55948e-11
7.35484e-11
7.15517e-11
6.96036e-11
6.77032e-11
6.58497e-11
6.4042e-11
6.22793e-11
6.05606e-11
5.88852e-11
5.72522e-11
5.56607e-11
5.41099e-11
5.25989e-11
5.11271e-11
4.96934e-11
4.82973e-11
4.69379e-11
4.56145e-11
4.43263e-11
4.30726e-11
4.18527e-11
4.06659e-11
3.95115e-11
3.83888e-11
3.72972e-11
3.6236e-11
3.52046e-11
3.42024e-11
3.32287e-11
3.22829e-11
3.13646e-11
3.0473e-11
2.96077e-11
2.87681e-11
2.79536e-11
2.71637e-11
2.6398e-11
2.56559e-11
2.49369e-11
2.42406e-11
2.35665e-11
2.29141e-11
2.22831e-11
2.16729e-11
2.10832e-11
2.05135e-11
1.99635e-11
1.94328e-11
1.8921e-11
1.84278e-11
1.79528e-11
1.74956e-11
1.7056e-11
1.66336e-11
1.62281e-11
1.58393e-11
1.54668e-11
1.51104e-11
1.47698e-11
1.44448e-11
1.41351e-11
1.38405e-11
1.35608e-11
1.32957e-11
1.30451e-11
1.28088e-11
1.25866e-11
1.23783e-11
1.21838e-11
1.20029e-11
1.18355e-11
1.16815e-11
1.15407e-11
1.14131e-11
1.12985e-11
1.11968e-11
1.1108e-11
1.1032e-11
1.09688e-11
1.09182e-11
1.08804e-11
1.08552e-11
1.08426e-11
5.21042e-11
1.56172e-10
2.59825e-10
3.6281e-10
4.64893e-10
5.65864e-10
6.65533e-10
7.63726e-10
8.60292e-10
9.55094e-10
1.04801e-09
1.13894e-09
1.2278e-09
1.3145e-09
1.39899e-09
1.48122e-09
1.56115e-09
1.63875e-09
1.71401e-09
1.78691e-09
1.85747e-09
1.92568e-09
1.99155e-09
2.05512e-09
2.1164e-09
2.17543e-09
2.23224e-09
2.28686e-09
2.33933e-09
2.3897e-09
2.43802e-09
2.48432e-09
2.52866e-09
2.57107e-09
2.61162e-09
2.65035e-09
2.6873e-09
2.72252e-09
2.75607e-09
2.78799e-09
2.81832e-09
2.84711e-09
2.87441e-09
2.90026e-09
2.9247e-09
2.94778e-09
2.96953e-09
2.98999e-09
3.00921e-09
3.02721e-09
3.04404e-09
3.05973e-09
3.07432e-09
3.08783e-09
3.1003e-09
3.11175e-09
3.12223e-09
3.13174e-09
3.14034e-09
3.14803e-09
3.15484e-09
3.1608e-09
3.16594e-09
3.17027e-09
3.17381e-09
3.17659e-09
3.17863e-09
3.17995e-09
3.18057e-09
3.18049e-09
3.17975e-09
3.17836e-09
3.17634e-09
3.1737e-09
3.17045e-09
3.16662e-09
3.16221e-09
3.15724e-09
3.15173e-09
3.14569e-09
3.13912e-09
3.13205e-09
3.12449e-09
3.11644e-09
3.10792e-09
3.09894e-09
3.08951e-09
3.07965e-09
3.06935e-09
3.05864e-09
3.04753e-09
3.03601e-09
3.02411e-09
3.01183e-09
2.99919e-09
2.98618e-09
2.97283e-09
2.95913e-09
2.9451e-09
2.93075e-09
2.91609e-09
2.90112e-09
2.88585e-09
2.87029e-09
2.85446e-09
2.83834e-09
2.82197e-09
2.80533e-09
2.78845e-09
2.77132e-09
2.75397e-09
2.73638e-09
2.71858e-09
2.70056e-09
2.68234e-09
2.66392e-09
2.64531e-09
2.62652e-09
2.60756e-09
2.58843e-09
2.56913e-09
2.54968e-09
2.53008e-09
2.51034e-09
2.49047e-09
2.47047e-09
2.45034e-09
2.4301e-09
2.40976e-09
2.38931e-09
2.36876e-09
2.34813e-09
2.32741e-09
2.30662e-09
2.28575e-09
2.26482e-09
2.24383e-09
2.22278e-09
2.20169e-09
2.18055e-09
2.15938e-09
2.13818e-09
2.11695e-09
2.0957e-09
2.07444e-09
2.05317e-09
2.03189e-09
2.01061e-09
1.98934e-09
1.96808e-09
1.94683e-09
1.92561e-09
1.90441e-09
1.88324e-09
1.8621e-09
1.841e-09
1.81995e-09
1.79894e-09
1.77798e-09
1.75708e-09
1.73624e-09
1.71546e-09
1.69475e-09
1.67411e-09
1.65355e-09
1.63307e-09
1.61267e-09
1.59235e-09
1.57212e-09
1.55199e-09
1.53195e-09
1.51201e-09
1.49218e-09
1.47245e-09
1.45282e-09
1.43331e-09
1.41391e-09
1.39463e-09
1.37547e-09
1.35643e-09
1.33751e-09
1.31872e-09
1.30005e-09
1.28152e-09
1.26312e-09
1.24486e-09
1.22673e-09
1.20874e-09
1.19089e-09
1.17318e-09
1.15562e-09
1.1382e-09
1.12093e-09
1.10381e-09
1.08683e-09
1.07001e-09
1.05334e-09
1.03682e-09
1.02046e-09
1.00425e-09
9.882e-10
9.72305e-10
9.56568e-10
9.4099e-10
9.2557e-10
9.10311e-10
8.95212e-10
8.80273e-10
8.65496e-10
8.5088e-10
8.36426e-10
8.22134e-10
8.08005e-10
7.94037e-10
7.80232e-10
7.6659e-10
7.5311e-10
7.39792e-10
7.26636e-10
7.13642e-10
7.00809e-10
6.88138e-10
6.75629e-10
6.63279e-10
6.51091e-10
6.39061e-10
6.27191e-10
6.1548e-10
6.03927e-10
5.92531e-10
5.81293e-10
5.7021e-10
5.59283e-10
5.4851e-10
5.37891e-10
5.27425e-10
5.17111e-10
5.06948e-10
4.96936e-10
4.87073e-10
4.77358e-10
4.6779e-10
4.58369e-10
4.49092e-10
4.3996e-10
4.30971e-10
4.22124e-10
4.13417e-10
4.0485e-10
3.96421e-10
3.8813e-10
3.79974e-10
3.71953e-10
3.64066e-10
3.5631e-10
3.48686e-10
3.41191e-10
3.33824e-10
3.26585e-10
3.19471e-10
3.12481e-10
3.05614e-10
2.98869e-10
2.92245e-10
2.85739e-10
2.7935e-10
2.73078e-10
2.66921e-10
2.60877e-10
2.54945e-10
2.49124e-10
2.43412e-10
2.37808e-10
2.3231e-10
2.26918e-10
2.21629e-10
2.16443e-10
2.11357e-10
2.06371e-10
2.01484e-10
1.96693e-10
1.91997e-10
1.87396e-10
1.82887e-10
1.7847e-10
1.74143e-10
1.69905e-10
1.65754e-10
1.61689e-10
1.57709e-10
1.53812e-10
1.49997e-10
1.46263e-10
1.42609e-10
1.39033e-10
1.35533e-10
1.3211e-10
1.28761e-10
1.25486e-10
1.22282e-10
1.19149e-10
1.16086e-10
1.13091e-10
1.10163e-10
1.07302e-10
1.04505e-10
1.01773e-10
9.91023e-11
9.64936e-11
9.39453e-11
9.14563e-11
8.90255e-11
8.66518e-11
8.43342e-11
8.20717e-11
7.98632e-11
7.77076e-11
7.56041e-11
7.35515e-11
7.1549e-11
6.95955e-11
6.76901e-11
6.58319e-11
6.40199e-11
6.22533e-11
6.05311e-11
5.88524e-11
5.72164e-11
5.56223e-11
5.40691e-11
5.2556e-11
5.10824e-11
4.96472e-11
4.82498e-11
4.68894e-11
4.55652e-11
4.42765e-11
4.30225e-11
4.18025e-11
4.06158e-11
3.94618e-11
3.83396e-11
3.72488e-11
3.61886e-11
3.51583e-11
3.41574e-11
3.31852e-11
3.22412e-11
3.13247e-11
3.04352e-11
2.95721e-11
2.87349e-11
2.79229e-11
2.71358e-11
2.6373e-11
2.56339e-11
2.49181e-11
2.42252e-11
2.35546e-11
2.29059e-11
2.22786e-11
2.16724e-11
2.10869e-11
2.05215e-11
1.9976e-11
1.94499e-11
1.89428e-11
1.84545e-11
1.79846e-11
1.75327e-11
1.70985e-11
1.66817e-11
1.6282e-11
1.58991e-11
1.55328e-11
1.51826e-11
1.48485e-11
1.45302e-11
1.42273e-11
1.39398e-11
1.36673e-11
1.34097e-11
1.31668e-11
1.29384e-11
1.27243e-11
1.25243e-11
1.23384e-11
1.21663e-11
1.2008e-11
1.18633e-11
1.17321e-11
1.16142e-11
1.15097e-11
1.14185e-11
1.13403e-11
1.12753e-11
1.12234e-11
1.11845e-11
1.11586e-11
1.11456e-11
5.25836e-11
1.57623e-10
2.62283e-10
3.66324e-10
4.69523e-10
5.71673e-10
6.72584e-10
7.72084e-10
8.70017e-10
9.66245e-10
1.06064e-09
1.1531e-09
1.24353e-09
1.33185e-09
1.41799e-09
1.50189e-09
1.58352e-09
1.66283e-09
1.73982e-09
1.81445e-09
1.88674e-09
1.95667e-09
2.02427e-09
2.08954e-09
2.15251e-09
2.2132e-09
2.27165e-09
2.32788e-09
2.38194e-09
2.43386e-09
2.48369e-09
2.53147e-09
2.57724e-09
2.62106e-09
2.66296e-09
2.703e-09
2.74123e-09
2.77768e-09
2.81242e-09
2.84548e-09
2.87691e-09
2.90676e-09
2.93507e-09
2.96189e-09
2.98725e-09
3.01121e-09
3.03381e-09
3.05508e-09
3.07506e-09
3.09379e-09
3.1113e-09
3.12764e-09
3.14284e-09
3.15693e-09
3.16994e-09
3.1819e-09
3.19285e-09
3.20281e-09
3.21181e-09
3.21988e-09
3.22705e-09
3.23333e-09
3.23876e-09
3.24336e-09
3.24714e-09
3.25014e-09
3.25237e-09
3.25386e-09
3.25461e-09
3.25466e-09
3.25402e-09
3.25271e-09
3.25074e-09
3.24813e-09
3.2449e-09
3.24106e-09
3.23664e-09
3.23163e-09
3.22606e-09
3.21994e-09
3.21329e-09
3.20611e-09
3.19843e-09
3.19024e-09
3.18158e-09
3.17243e-09
3.16283e-09
3.15277e-09
3.14227e-09
3.13135e-09
3.12e-09
3.10825e-09
3.0961e-09
3.08356e-09
3.07064e-09
3.05735e-09
3.0437e-09
3.02971e-09
3.01537e-09
3.0007e-09
2.9857e-09
2.97039e-09
2.95478e-09
2.93886e-09
2.92266e-09
2.90618e-09
2.88943e-09
2.87241e-09
2.85513e-09
2.83761e-09
2.81985e-09
2.80185e-09
2.78363e-09
2.76519e-09
2.74654e-09
2.72769e-09
2.70865e-09
2.68941e-09
2.67e-09
2.65042e-09
2.63066e-09
2.61075e-09
2.59069e-09
2.57048e-09
2.55014e-09
2.52966e-09
2.50906e-09
2.48834e-09
2.46751e-09
2.44657e-09
2.42554e-09
2.40441e-09
2.3832e-09
2.36191e-09
2.34055e-09
2.31911e-09
2.29762e-09
2.27607e-09
2.25448e-09
2.23284e-09
2.21116e-09
2.18945e-09
2.16771e-09
2.14596e-09
2.12418e-09
2.1024e-09
2.08061e-09
2.05883e-09
2.03705e-09
2.01528e-09
1.99352e-09
1.97179e-09
1.95008e-09
1.9284e-09
1.90676e-09
1.88516e-09
1.8636e-09
1.84208e-09
1.82063e-09
1.79922e-09
1.77788e-09
1.75661e-09
1.7354e-09
1.71427e-09
1.69321e-09
1.67224e-09
1.65135e-09
1.63055e-09
1.60983e-09
1.58922e-09
1.5687e-09
1.54828e-09
1.52797e-09
1.50777e-09
1.48767e-09
1.46769e-09
1.44783e-09
1.42808e-09
1.40846e-09
1.38896e-09
1.36959e-09
1.35035e-09
1.33124e-09
1.31226e-09
1.29342e-09
1.27472e-09
1.25615e-09
1.23773e-09
1.21946e-09
1.20132e-09
1.18334e-09
1.1655e-09
1.14782e-09
1.13028e-09
1.1129e-09
1.09568e-09
1.07861e-09
1.06169e-09
1.04494e-09
1.02834e-09
1.01191e-09
9.95629e-10
9.79515e-10
9.63563e-10
9.47774e-10
9.32148e-10
9.16687e-10
9.0139e-10
8.86258e-10
8.71292e-10
8.56491e-10
8.41857e-10
8.27388e-10
8.13086e-10
7.98949e-10
7.84979e-10
7.71176e-10
7.57538e-10
7.44067e-10
7.30761e-10
7.17621e-10
7.04646e-10
6.91836e-10
6.79191e-10
6.6671e-10
6.54392e-10
6.42237e-10
6.30245e-10
6.18415e-10
6.06746e-10
5.95237e-10
5.83889e-10
5.72699e-10
5.61668e-10
5.50794e-10
5.40077e-10
5.29516e-10
5.19109e-10
5.08857e-10
4.98757e-10
4.88809e-10
4.79012e-10
4.69364e-10
4.59866e-10
4.50514e-10
4.4131e-10
4.3225e-10
4.23335e-10
4.14562e-10
4.05931e-10
3.97441e-10
3.89089e-10
3.80876e-10
3.72799e-10
3.64858e-10
3.5705e-10
3.49376e-10
3.41832e-10
3.34419e-10
3.27134e-10
3.19977e-10
3.12946e-10
3.06039e-10
2.99255e-10
2.92593e-10
2.86052e-10
2.79629e-10
2.73324e-10
2.67135e-10
2.61061e-10
2.551e-10
2.49251e-10
2.43513e-10
2.37883e-10
2.32361e-10
2.26946e-10
2.21635e-10
2.16427e-10
2.11322e-10
2.06317e-10
2.01411e-10
1.96603e-10
1.91891e-10
1.87275e-10
1.82752e-10
1.78321e-10
1.73981e-10
1.6973e-10
1.65568e-10
1.61492e-10
1.57501e-10
1.53595e-10
1.49772e-10
1.4603e-10
1.42368e-10
1.38785e-10
1.35279e-10
1.3185e-10
1.28496e-10
1.25215e-10
1.22007e-10
1.18871e-10
1.15804e-10
1.12806e-10
1.09876e-10
1.07012e-10
1.04214e-10
1.0148e-10
9.88083e-11
9.61989e-11
9.36502e-11
9.1161e-11
8.87304e-11
8.63573e-11
8.40405e-11
8.1779e-11
7.95717e-11
7.74177e-11
7.53159e-11
7.32653e-11
7.1265e-11
6.93139e-11
6.74111e-11
6.55557e-11
6.37466e-11
6.19831e-11
6.02642e-11
5.85889e-11
5.69565e-11
5.53661e-11
5.38168e-11
5.23077e-11
5.08382e-11
4.94073e-11
4.80142e-11
4.66582e-11
4.53386e-11
4.40545e-11
4.28053e-11
4.15901e-11
4.04084e-11
3.92593e-11
3.81423e-11
3.70567e-11
3.60017e-11
3.49768e-11
3.39813e-11
3.30146e-11
3.20762e-11
3.11653e-11
3.02815e-11
2.94242e-11
2.85928e-11
2.77868e-11
2.70056e-11
2.62488e-11
2.55159e-11
2.48063e-11
2.41196e-11
2.34553e-11
2.28131e-11
2.21923e-11
2.15927e-11
2.10138e-11
2.04551e-11
1.99164e-11
1.93972e-11
1.88972e-11
1.8416e-11
1.79533e-11
1.75087e-11
1.70819e-11
1.66726e-11
1.62805e-11
1.59054e-11
1.55469e-11
1.52047e-11
1.48787e-11
1.45686e-11
1.42742e-11
1.39952e-11
1.37314e-11
1.34827e-11
1.32488e-11
1.30295e-11
1.28248e-11
1.26344e-11
1.24582e-11
1.2296e-11
1.21479e-11
1.20135e-11
1.18928e-11
1.17858e-11
1.16924e-11
1.16124e-11
1.15458e-11
1.14926e-11
1.14527e-11
1.14262e-11
1.1413e-11
5.30141e-11
1.58923e-10
2.64477e-10
3.69449e-10
4.73622e-10
5.76796e-10
6.78782e-10
7.79409e-10
8.7852e-10
9.75973e-10
1.07164e-09
1.16542e-09
1.2572e-09
1.3469e-09
1.43445e-09
1.51979e-09
1.60287e-09
1.68365e-09
1.76212e-09
1.83824e-09
1.91201e-09
1.98342e-09
2.0525e-09
2.11923e-09
2.18365e-09
2.24577e-09
2.30563e-09
2.36325e-09
2.41867e-09
2.47193e-09
2.52306e-09
2.57211e-09
2.61913e-09
2.66415e-09
2.70722e-09
2.7484e-09
2.78772e-09
2.82524e-09
2.86099e-09
2.89504e-09
2.92742e-09
2.95818e-09
2.98737e-09
3.01502e-09
3.04119e-09
3.06592e-09
3.08924e-09
3.1112e-09
3.13184e-09
3.1512e-09
3.16931e-09
3.18621e-09
3.20194e-09
3.21653e-09
3.23001e-09
3.24241e-09
3.25377e-09
3.26411e-09
3.27347e-09
3.28187e-09
3.28934e-09
3.29591e-09
3.30159e-09
3.30642e-09
3.31042e-09
3.3136e-09
3.316e-09
3.31762e-09
3.31851e-09
3.31866e-09
3.3181e-09
3.31686e-09
3.31494e-09
3.31236e-09
3.30915e-09
3.30531e-09
3.30086e-09
3.29582e-09
3.29021e-09
3.28403e-09
3.2773e-09
3.27003e-09
3.26224e-09
3.25394e-09
3.24515e-09
3.23586e-09
3.2261e-09
3.21588e-09
3.20521e-09
3.1941e-09
3.18256e-09
3.1706e-09
3.15823e-09
3.14547e-09
3.13231e-09
3.11878e-09
3.10488e-09
3.09062e-09
3.07601e-09
3.06107e-09
3.04579e-09
3.03019e-09
3.01427e-09
2.99805e-09
2.98154e-09
2.96474e-09
2.94766e-09
2.93031e-09
2.91269e-09
2.89483e-09
2.87671e-09
2.85836e-09
2.83978e-09
2.82098e-09
2.80196e-09
2.78274e-09
2.76332e-09
2.7437e-09
2.7239e-09
2.70393e-09
2.68378e-09
2.66347e-09
2.64301e-09
2.6224e-09
2.60164e-09
2.58076e-09
2.55974e-09
2.53861e-09
2.51736e-09
2.496e-09
2.47455e-09
2.45299e-09
2.43136e-09
2.40964e-09
2.38784e-09
2.36598e-09
2.34406e-09
2.32207e-09
2.30004e-09
2.27797e-09
2.25585e-09
2.2337e-09
2.21153e-09
2.18933e-09
2.16712e-09
2.1449e-09
2.12267e-09
2.10045e-09
2.07823e-09
2.05602e-09
2.03383e-09
2.01165e-09
1.98951e-09
1.96739e-09
1.94531e-09
1.92327e-09
1.90127e-09
1.87933e-09
1.85744e-09
1.8356e-09
1.81383e-09
1.79213e-09
1.77049e-09
1.74893e-09
1.72745e-09
1.70605e-09
1.68474e-09
1.66352e-09
1.64239e-09
1.62135e-09
1.60042e-09
1.57959e-09
1.55887e-09
1.53826e-09
1.51776e-09
1.49737e-09
1.47711e-09
1.45696e-09
1.43694e-09
1.41705e-09
1.39729e-09
1.37766e-09
1.35816e-09
1.3388e-09
1.31958e-09
1.30049e-09
1.28156e-09
1.26276e-09
1.24412e-09
1.22562e-09
1.20727e-09
1.18907e-09
1.17103e-09
1.15314e-09
1.13541e-09
1.11784e-09
1.10042e-09
1.08316e-09
1.06607e-09
1.04914e-09
1.03237e-09
1.01576e-09
9.99323e-10
9.83048e-10
9.6694e-10
9.50998e-10
9.35224e-10
9.19618e-10
9.04181e-10
8.88912e-10
8.73812e-10
8.58881e-10
8.4412e-10
8.29528e-10
8.15106e-10
8.00854e-10
7.86771e-10
7.72858e-10
7.59114e-10
7.45539e-10
7.32133e-10
7.18896e-10
7.05827e-10
6.92926e-10
6.80192e-10
6.67625e-10
6.55225e-10
6.4299e-10
6.3092e-10
6.19015e-10
6.07274e-10
5.95696e-10
5.84281e-10
5.73026e-10
5.61933e-10
5.50999e-10
5.40224e-10
5.29607e-10
5.19147e-10
5.08843e-10
4.98694e-10
4.88698e-10
4.78856e-10
4.69165e-10
4.59625e-10
4.50234e-10
4.40991e-10
4.31895e-10
4.22945e-10
4.1414e-10
4.05478e-10
3.96957e-10
3.88578e-10
3.80338e-10
3.72236e-10
3.64271e-10
3.56441e-10
3.48745e-10
3.41182e-10
3.3375e-10
3.26448e-10
3.19274e-10
3.12228e-10
3.05307e-10
2.9851e-10
2.91836e-10
2.85284e-10
2.78851e-10
2.72537e-10
2.6634e-10
2.60259e-10
2.54291e-10
2.48437e-10
2.42694e-10
2.3706e-10
2.31535e-10
2.26117e-10
2.20804e-10
2.15595e-10
2.10489e-10
2.05484e-10
2.00579e-10
1.95772e-10
1.91062e-10
1.86447e-10
1.81927e-10
1.77499e-10
1.73162e-10
1.68916e-10
1.64757e-10
1.60686e-10
1.56701e-10
1.528e-10
1.48983e-10
1.45247e-10
1.41591e-10
1.38015e-10
1.34516e-10
1.31094e-10
1.27747e-10
1.24474e-10
1.21274e-10
1.18146e-10
1.15087e-10
1.12098e-10
1.09176e-10
1.06321e-10
1.03532e-10
1.00806e-10
9.81442e-11
9.55439e-11
9.30045e-11
9.05247e-11
8.81036e-11
8.57399e-11
8.34327e-11
8.11808e-11
7.89832e-11
7.68389e-11
7.47469e-11
7.27061e-11
7.07156e-11
6.87743e-11
6.68813e-11
6.50357e-11
6.32365e-11
6.14828e-11
5.97737e-11
5.81083e-11
5.64857e-11
5.4905e-11
5.33655e-11
5.18662e-11
5.04063e-11
4.89851e-11
4.76017e-11
4.62554e-11
4.49453e-11
4.36708e-11
4.24311e-11
4.12255e-11
4.00532e-11
3.89136e-11
3.7806e-11
3.67297e-11
3.56841e-11
3.46685e-11
3.36822e-11
3.27248e-11
3.17955e-11
3.08938e-11
3.00192e-11
2.9171e-11
2.83486e-11
2.75517e-11
2.67796e-11
2.60318e-11
2.53079e-11
2.46073e-11
2.39296e-11
2.32744e-11
2.26411e-11
2.20293e-11
2.14387e-11
2.08688e-11
2.03192e-11
1.97895e-11
1.92794e-11
1.87884e-11
1.83163e-11
1.78627e-11
1.74273e-11
1.70097e-11
1.66097e-11
1.6227e-11
1.58612e-11
1.55122e-11
1.51796e-11
1.48632e-11
1.45628e-11
1.42782e-11
1.40091e-11
1.37553e-11
1.35167e-11
1.3293e-11
1.30841e-11
1.28899e-11
1.27101e-11
1.25447e-11
1.23935e-11
1.22564e-11
1.21333e-11
1.20241e-11
1.19288e-11
1.18472e-11
1.17793e-11
1.1725e-11
1.16843e-11
1.16572e-11
1.16437e-11
5.33853e-11
1.60043e-10
2.66362e-10
3.72126e-10
4.77126e-10
5.81163e-10
6.84052e-10
7.85624e-10
8.8572e-10
9.84198e-10
1.08093e-09
1.1758e-09
1.2687e-09
1.35956e-09
1.44829e-09
1.53482e-09
1.61912e-09
1.70113e-09
1.78082e-09
1.85818e-09
1.93319e-09
2.00585e-09
2.07615e-09
2.14411e-09
2.20973e-09
2.27305e-09
2.33409e-09
2.39287e-09
2.44943e-09
2.5038e-09
2.55603e-09
2.60614e-09
2.65419e-09
2.70022e-09
2.74428e-09
2.78641e-09
2.82665e-09
2.86505e-09
2.90167e-09
2.93654e-09
2.96972e-09
3.00124e-09
3.03116e-09
3.05952e-09
3.08636e-09
3.11173e-09
3.13567e-09
3.15821e-09
3.17941e-09
3.19929e-09
3.2179e-09
3.23528e-09
3.25145e-09
3.26646e-09
3.28033e-09
3.2931e-09
3.30481e-09
3.31548e-09
3.32514e-09
3.33381e-09
3.34154e-09
3.34834e-09
3.35424e-09
3.35926e-09
3.36343e-09
3.36678e-09
3.36931e-09
3.37106e-09
3.37205e-09
3.37229e-09
3.37181e-09
3.37062e-09
3.36874e-09
3.36619e-09
3.36299e-09
3.35915e-09
3.35469e-09
3.34963e-09
3.34397e-09
3.33774e-09
3.33095e-09
3.3236e-09
3.31573e-09
3.30733e-09
3.29843e-09
3.28903e-09
3.27914e-09
3.26878e-09
3.25796e-09
3.2467e-09
3.23499e-09
3.22286e-09
3.21031e-09
3.19736e-09
3.18401e-09
3.17027e-09
3.15616e-09
3.14168e-09
3.12685e-09
3.11167e-09
3.09615e-09
3.08031e-09
3.06414e-09
3.04767e-09
3.03089e-09
3.01382e-09
2.99647e-09
2.97884e-09
2.96094e-09
2.94279e-09
2.92438e-09
2.90574e-09
2.88685e-09
2.86775e-09
2.84842e-09
2.82888e-09
2.80914e-09
2.78921e-09
2.76908e-09
2.74878e-09
2.7283e-09
2.70766e-09
2.68686e-09
2.66591e-09
2.64482e-09
2.62359e-09
2.60223e-09
2.58074e-09
2.55914e-09
2.53744e-09
2.51563e-09
2.49372e-09
2.47172e-09
2.44965e-09
2.42749e-09
2.40527e-09
2.38298e-09
2.36064e-09
2.33824e-09
2.3158e-09
2.29332e-09
2.2708e-09
2.24826e-09
2.2257e-09
2.20312e-09
2.18053e-09
2.15793e-09
2.13534e-09
2.11275e-09
2.09017e-09
2.06761e-09
2.04507e-09
2.02256e-09
2.00007e-09
1.97763e-09
1.95522e-09
1.93286e-09
1.91055e-09
1.88829e-09
1.8661e-09
1.84396e-09
1.8219e-09
1.79991e-09
1.77799e-09
1.75615e-09
1.7344e-09
1.71273e-09
1.69115e-09
1.66967e-09
1.64829e-09
1.62701e-09
1.60583e-09
1.58477e-09
1.56381e-09
1.54297e-09
1.52225e-09
1.50165e-09
1.48117e-09
1.46082e-09
1.44059e-09
1.4205e-09
1.40055e-09
1.38072e-09
1.36104e-09
1.3415e-09
1.3221e-09
1.30285e-09
1.28374e-09
1.26479e-09
1.24598e-09
1.22733e-09
1.20883e-09
1.19049e-09
1.1723e-09
1.15427e-09
1.13641e-09
1.1187e-09
1.10116e-09
1.08378e-09
1.06657e-09
1.04952e-09
1.03264e-09
1.01593e-09
9.99382e-10
9.83006e-10
9.668e-10
9.50764e-10
9.34898e-10
9.19204e-10
9.03681e-10
8.8833e-10
8.73152e-10
8.58145e-10
8.43311e-10
8.28649e-10
8.1416e-10
7.99843e-10
7.85699e-10
7.71727e-10
7.57926e-10
7.44298e-10
7.30841e-10
7.17555e-10
7.04439e-10
6.91494e-10
6.78718e-10
6.66112e-10
6.53674e-10
6.41404e-10
6.29301e-10
6.17365e-10
6.05594e-10
5.93989e-10
5.82547e-10
5.7127e-10
5.60154e-10
5.492e-10
5.38407e-10
5.27773e-10
5.17298e-10
5.0698e-10
4.96818e-10
4.86812e-10
4.7696e-10
4.67262e-10
4.57715e-10
4.48318e-10
4.39071e-10
4.29973e-10
4.21021e-10
4.12215e-10
4.03553e-10
3.95034e-10
3.86657e-10
3.78421e-10
3.70323e-10
3.62363e-10
3.5454e-10
3.46851e-10
3.39295e-10
3.31872e-10
3.24579e-10
3.17415e-10
3.1038e-10
3.0347e-10
2.96685e-10
2.90024e-10
2.83485e-10
2.77066e-10
2.70766e-10
2.64583e-10
2.58517e-10
2.52565e-10
2.46726e-10
2.40999e-10
2.35382e-10
2.29874e-10
2.24473e-10
2.19177e-10
2.13986e-10
2.08898e-10
2.03911e-10
1.99025e-10
1.94236e-10
1.89545e-10
1.84949e-10
1.80448e-10
1.76039e-10
1.71722e-10
1.67495e-10
1.63356e-10
1.59305e-10
1.55339e-10
1.51458e-10
1.4766e-10
1.43944e-10
1.40308e-10
1.36751e-10
1.33272e-10
1.2987e-10
1.26543e-10
1.23289e-10
1.20109e-10
1.16999e-10
1.1396e-10
1.1099e-10
1.08088e-10
1.05252e-10
1.02481e-10
9.97749e-11
9.71314e-11
9.45498e-11
9.20288e-11
8.95674e-11
8.71645e-11
8.48189e-11
8.25296e-11
8.02955e-11
7.81156e-11
7.59888e-11
7.39141e-11
7.18905e-11
6.9917e-11
6.79926e-11
6.61163e-11
6.42872e-11
6.25044e-11
6.07669e-11
5.90738e-11
5.74242e-11
5.58173e-11
5.42522e-11
5.2728e-11
5.12438e-11
4.9799e-11
4.83926e-11
4.70239e-11
4.56921e-11
4.43964e-11
4.31361e-11
4.19105e-11
4.07187e-11
3.95602e-11
3.84342e-11
3.734e-11
3.6277e-11
3.52445e-11
3.42419e-11
3.32685e-11
3.23238e-11
3.14071e-11
3.05179e-11
2.96556e-11
2.88197e-11
2.80095e-11
2.72245e-11
2.64643e-11
2.57284e-11
2.50162e-11
2.43272e-11
2.36611e-11
2.30173e-11
2.23953e-11
2.17949e-11
2.12155e-11
2.06568e-11
2.01183e-11
1.95997e-11
1.91006e-11
1.86206e-11
1.81595e-11
1.77168e-11
1.72923e-11
1.68857e-11
1.64966e-11
1.61248e-11
1.57699e-11
1.54318e-11
1.51102e-11
1.48048e-11
1.45154e-11
1.42418e-11
1.39838e-11
1.37412e-11
1.35139e-11
1.33015e-11
1.3104e-11
1.29213e-11
1.27531e-11
1.25994e-11
1.24601e-11
1.23349e-11
1.22239e-11
1.2127e-11
1.2044e-11
1.1975e-11
1.19198e-11
1.18784e-11
1.18509e-11
1.18372e-11
5.36899e-11
1.60961e-10
2.67906e-10
3.74315e-10
4.79984e-10
5.84719e-10
6.88337e-10
7.90668e-10
8.91555e-10
9.90854e-10
1.08844e-09
1.18418e-09
1.27799e-09
1.36977e-09
1.45944e-09
1.54693e-09
1.6322e-09
1.71519e-09
1.79587e-09
1.87422e-09
1.95022e-09
2.02387e-09
2.09516e-09
2.16409e-09
2.23069e-09
2.29497e-09
2.35695e-09
2.41666e-09
2.47413e-09
2.5294e-09
2.5825e-09
2.63347e-09
2.68236e-09
2.7292e-09
2.77404e-09
2.81693e-09
2.85791e-09
2.89703e-09
2.93433e-09
2.96987e-09
3.00369e-09
3.03583e-09
3.06634e-09
3.09526e-09
3.12264e-09
3.14853e-09
3.17296e-09
3.19597e-09
3.21762e-09
3.23792e-09
3.25694e-09
3.27469e-09
3.29122e-09
3.30657e-09
3.32076e-09
3.33383e-09
3.34582e-09
3.35674e-09
3.36665e-09
3.37555e-09
3.38348e-09
3.39047e-09
3.39654e-09
3.40172e-09
3.40604e-09