/*--------------------------------*- C++ -*----------------------------------*\
  =========                 |
  \\      /  F ield         | OpenFOAM: The Open Source CFD Toolbox
   \\    /   O peration     | Website:  https://openfoam.org
    \\  /    A nd           | Version:  10
     \\/     M anipulation  |
\*---------------------------------------------------------------------------*/
FoamFile
{
    format      ascii;
    class       surfaceScalarField;
    location    "9";
    object      phi;
}
// * * * * * * * * * * * * * * * * * * * * * * * * * * * * * * * * * * * * * //

dimensions      [1 0 -1 0 0 0 0];

internalField   nonuniform List<scalar> 
10325
(
0.00840003
1.05531e-11
0.00840004
7.96326e-10
0.00839997
1.07736e-09
0.00840014
7.58638e-09
0.0083998
6.4496e-09
0.00840023
5.01602e-08
0.0083994
3.52788e-08
0.00839983
3.0202e-07
0.00839763
2.9461e-07
0.00840073
1.53899e-06
0.00838751
2.77791e-06
0.00839335
9.71553e-06
0.00835124
2.96299e-05
0.00823109
0.000123441
0.00763365
0.000587498
0.00702035
0.000613654
0.0064119
0.000609011
0.00578053
0.000631385
0.00511671
0.000663777
0.00440616
0.000710372
0.00363867
0.000767387
0.00281379
0.000824709
0.00193571
0.000878046
0.00100139
0.000934209
0.00100119
0.00840002
2.13786e-10
0.00840006
7.80888e-10
0.00839993
3.92881e-09
0.00840025
8.16569e-09
0.00839952
2.8258e-08
0.00840122
5.6429e-08
0.00839735
1.7466e-07
0.00840562
3.46642e-07
0.00838813
1.07264e-06
0.00841622
2.28673e-06
0.00837077
6.75956e-06
0.00840753
1.85391e-05
0.00833935
6.15955e-05
0.00823066
0.000247502
0.00762739
0.00117874
0.00700926
0.001232
0.00640968
0.0012091
0.00578365
0.00125742
0.00512239
0.001325
0.0044052
0.00142737
0.00362978
0.0015427
0.00279634
0.00165798
0.00190624
0.00176811
0.000966498
0.00187384
0.00196749
0.00840002
1.66708e-10
0.00840005
1.82585e-09
0.00839996
4.0762e-09
0.00840019
1.79654e-08
0.00839968
3.00367e-08
0.00840072
1.22956e-07
0.00839842
1.73113e-07
0.00840214
7.8708e-07
0.00839403
1.06738e-06
0.00840597
4.49847e-06
0.00838136
8.80886e-06
0.00839767
2.9521e-05
0.00834633
9.10472e-05
0.00823482
0.000367104
0.00764453
0.00175821
0.00702417
0.00185271
0.00643288
0.00180101
0.00581544
0.00187487
0.00515929
0.00198113
0.0044449
0.00214156
0.00366698
0.00232051
0.00282784
0.00249694
0.00192648
0.00266945
0.000974081
0.00282612
0.00294136
0.00840003
4.76117e-10
0.00840005
1.3571e-09
0.00839997
9.19573e-09
0.00840014
1.27793e-08
0.00839964
6.75431e-08
0.00840097
8.70846e-08
0.00839732
4.16224e-07
0.00840609
5.74274e-07
0.0083864
2.42847e-06
0.00841991
4.22714e-06
0.008368
1.42103e-05
0.00840911
3.61765e-05
0.00833795
0.000122872
0.00824714
0.000474776
0.00768001
0.00231407
0.00706337
0.00246999
0.00648224
0.00238261
0.00587616
0.0024809
0.00523017
0.002627
0.00452402
0.00284761
0.00375162
0.0030928
0.00290888
0.00333956
0.00199528
0.00358292
0.00101464
0.00380669
0.00395577
0.00840003
2.45967e-10
0.0084
3.06529e-09
0.00840008
6.36291e-09
0.00839989
2.97924e-08
0.00840036
4.79873e-08
0.00839899
1.9598e-07
0.00840241
3.04963e-07
0.00839393
1.20118e-06
0.00841199
1.99682e-06
0.00837697
7.05466e-06
0.00842137
1.50942e-05
0.00836141
4.79125e-05
0.00837292
0.000148358
0.00825135
0.000574196
0.00773683
0.00282438
0.0071267
0.0030815
0.0065554
0.00295471
0.00596374
0.00307251
0.00533304
0.00325762
0.00464141
0.00353912
0.00387805
0.00385604
0.00303528
0.00418213
0.00210339
0.00451487
0.00108275
0.00482717
0.00503833
0.00840003
4.71055e-10
0.00840003
2.92883e-09
0.00840003
1.00262e-08
0.00839999
2.89033e-08
0.00839998
7.44753e-08
0.00840008
1.86286e-07
0.00839918
4.8138e-07
0.008401
1.12658e-06
0.00839575
3.02832e-06
0.00840197
7.1698e-06
0.0083913
1.97176e-05
0.00838641
5.4282e-05
0.00835773
0.000175418
0.00827476
0.00065564
0.00784006
0.0032507
0.00722951
0.00369385
0.00666311
0.00352186
0.00608715
0.00364844
0.00547562
0.00386913
0.00480534
0.00420925
0.00405656
0.00460479
0.00321626
0.00502237
0.0022656
0.0054655
0.00118815
0.00590448
0.00622623
0.00840003
6.75431e-10
0.00840004
2.6648e-09
0.00839998
1.34223e-08
0.00840013
2.61565e-08
0.00839969
9.84469e-08
0.00840083
1.81632e-07
0.00839776
6.08382e-07
0.00840508
1.17635e-06
0.00838876
3.64806e-06
0.00841697
7.84473e-06
0.00837184
2.28095e-05
0.00841062
6.04239e-05
0.0083526
0.000195696
0.00831087
0.000714107
0.00803048
0.00351777
0.00739882
0.00432709
0.00682685
0.00409473
0.00626143
0.00421393
0.00567066
0.00445995
0.00502579
0.00485411
0.00429855
0.00533198
0.0034663
0.00585449
0.00249976
0.00643196
0.00135409
0.00705006
0.00758008
0.00840003
5.46704e-10
0.00840001
3.48713e-09
0.00840006
1.18843e-08
0.00839994
3.41412e-08
0.00840026
8.86535e-08
0.0083993
2.27857e-07
0.00840179
5.66622e-07
0.00839549
1.42245e-06
0.00840963
3.55087e-06
0.0083816
9.01108e-06
0.00842098
2.33734e-05
0.00837129
6.51322e-05
0.00839968
0.000202718
0.00836168
0.000730647
0.0083588
0.00351523
0.00770502
0.00498353
0.00708444
0.00471675
0.00651639
0.00478219
0.00594488
0.00503161
0.0053238
0.00547516
0.00462348
0.00603246
0.00380988
0.00666803
0.00284245
0.00739945
0.0016276
0.00826484
0.00920739
0.00840003
4.28321e-10
0.00840002
3.87833e-09
0.00840006
1.01075e-08
0.00839996
3.72428e-08
0.00840022
7.7289e-08
0.00839946
2.41495e-07
0.00840154
5.10403e-07
0.00839632
1.47808e-06
0.0084088
3.30733e-06
0.00838469
9.07139e-06
0.00842292
2.22688e-05
0.00838091
6.34177e-05
0.00842878
0.000190965
0.00846011
0.000676596
0.00890223
0.00306845
0.00820745
0.00567964
0.00747485
0.00545059
0.00689804
0.00535946
0.00631693
0.00561312
0.00572437
0.00606786
0.00505301
0.006704
0.00430172
0.00741926
0.00339121
0.00830987
0.00210697
0.00954899
0.0113141
0.00840003
5.34955e-10
0.00840004
2.68734e-09
0.00839999
1.10836e-08
0.00840015
2.66102e-08
0.00839976
7.97471e-08
0.00840084
1.83595e-07
0.0083985
4.84398e-07
0.00840463
1.16962e-06
0.00839227
2.88062e-06
0.00842027
7.42203e-06
0.00838054
1.81585e-05
0.00844953
4.9484e-05
0.00844508
0.000144403
0.00866504
0.000482877
0.00966016
0.00206062
0.0089877
0.00635152
0.00801098
0.00642697
0.00743936
0.00593136
0.00683206
0.00622071
0.00625658
0.00664343
0.00565596
0.00730481
0.00500185
0.00807347
0.00416001
0.00915168
0.00294199
0.0107668
0.0142556
0.00840003
4.19815e-10
0.00840002
2.64546e-09
0.00840008
8.82935e-09
0.00839994
2.59689e-08
0.00840027
6.66786e-08
0.00839961
1.67175e-07
0.00840123
4.31884e-07
0.00839808
9.89674e-07
0.00840499
2.71475e-06
0.00839337
5.95061e-06
0.00841697
1.681e-05
0.00839258
4.12528e-05
0.00844656
0.000123078
0.00851134
0.000399582
0.00892539
0.00164639
0.00891099
0.00636024
0.00855482
0.00678017
0.00788334
0.00660317
0.00735978
0.00674441
0.00685419
0.00714901
0.0063935
0.00776546
0.00589445
0.00857239
0.0054483
0.00959762
0.00538847
0.0108263
0.0113639
0.00827925
0.00840003
3.41331e-10
0.00840004
2.63321e-09
0.0084
7.91502e-09
0.0084001
2.55365e-08
0.0083999
5.87162e-08
0.00840038
1.66238e-07
0.00839944
3.67837e-07
0.00840121
1.02444e-06
0.00839798
2.24558e-06
0.00840434
6.25312e-06
0.0083944
1.44518e-05
0.00841459
4.01304e-05
0.00840219
0.000110857
0.00845683
0.000362808
0.00868813
0.00140264
0.0088073
0.00623643
0.00853613
0.00705074
0.00810134
0.00703792
0.00771743
0.00712828
0.00732768
0.00753866
0.00698314
0.00810998
0.00670612
0.00884938
0.00659458
0.00970882
0.0069689
0.0104513
0.0104741
0.00785719
0.00840003
4.1062e-10
0.00840004
2.15456e-09
0.00840001
8.66335e-09
0.00840009
2.10822e-08
0.00839987
6.33102e-08
0.00840048
1.45143e-07
0.00839897
3.87278e-07
0.00840291
9.24939e-07
0.00839417
2.31406e-06
0.00841389
5.83808e-06
0.00837882
1.43617e-05
0.00843082
3.817e-05
0.00838028
0.00010623
0.00844768
0.000337883
0.00856912
0.00125606
0.00889721
0.00590496
0.00861958
0.00732898
0.00829194
0.00736591
0.00800727
0.00741318
0.00775493
0.00779079
0.00752777
0.00833674
0.00741428
0.00896234
0.00755785
0.00956527
0.00799719
0.0100111
0.009946
0.00852346
0.00840003
3.70799e-10
0.00840002
2.17906e-09
0.00840006
7.77993e-09
0.00839997
2.12723e-08
0.00840018
5.85861e-08
0.00839975
1.39004e-07
0.00840076
3.77108e-07
0.00839872
8.52567e-07
0.00840298
2.34719e-06
0.00839482
5.26434e-06
0.00841019
1.46507e-05
0.00838761
3.53242e-05
0.00842372
0.000102115
0.00842119
0.000311412
0.00856338
0.00112533
0.00927603
0.00518114
0.00896637
0.00763938
0.00859555
0.00773743
0.00833252
0.00767643
0.00815747
0.00796545
0.0080518
0.00844238
0.00806808
0.00894564
0.00825347
0.00937858
0.00862741
0.00963694
0.00951008
0.00906149
0.00840003
2.80694e-10
0.00840003
2.11516e-09
0.00840003
6.35561e-09
0.00840003
2.07258e-08
0.00840006
4.75101e-08
0.00839991
1.37828e-07
0.00840047
3.04105e-07
0.00839891
8.42888e-07
0.00840359
1.90911e-06
0.00839367
5.11067e-06
0.00841639
1.21921e-05
0.00838715
3.25389e-05
0.00844004
8.61244e-05
0.00845573
0.0002624
0.00869716
0.000901397
0.0100612
0.00380209
0.00954821
0.00815241
0.0091292
0.00815664
0.00877058
0.00803564
0.00858157
0.00815451
0.00852449
0.00849873
0.00858342
0.00888643
0.00877622
0.00918546
0.00909344
0.00931844
0.00915146
0.00945052
0.00840003
2.56195e-10
0.00840004
1.61704e-09
0.00840001
5.64684e-09
0.00840008
1.57335e-08
0.00839994
4.17797e-08
0.00840035
1.04679e-07
0.00839955
2.58453e-07
0.00840174
6.56363e-07
0.00839774
1.54127e-06
0.00840851
4.04717e-06
0.00839212
9.37637e-06
0.00843173
2.50538e-05
0.00841039
6.34019e-05
0.00852971
0.000184957
0.00880815
0.000597658
0.010228
0.00238404
0.0101339
0.00824133
0.00977191
0.00851807
0.00927033
0.00853679
0.00903769
0.00838744
0.00897433
0.00856195
0.00902818
0.00883189
0.00919114
0.00902131
0.00945151
0.00905713
0.00886449
0.00973713
0.00840003
2.40884e-10
0.00840003
1.27777e-09
0.00840004
5.0215e-09
0.00840002
1.24474e-08
0.00840005
3.70483e-08
0.00840005
8.21687e-08
0.0084
2.32784e-07
0.00840048
5.02225e-07
0.00839921
1.40931e-06
0.00840383
3.07185e-06
0.00839601
8.5054e-06
0.00841681
1.95514e-05
0.00840631
5.38548e-05
0.00846397
0.000145759
0.00857469
0.000469189
0.00919614
0.00176973
0.0101782
0.00724812
0.00998139
0.00871371
0.00969688
0.00882076
0.00944381
0.00863995
0.00936447
0.00864122
0.00941067
0.00878512
0.00954243
0.00888908
0.00974189
0.0088559
0.00864129
0.00996299
0.00840003
1.73928e-10
0.00840003
1.18939e-09
0.00840004
3.86927e-09
0.00840002
1.16623e-08
0.00840007
2.87519e-08
0.00839994
7.73877e-08
0.00840039
1.80358e-07
0.0083993
4.77599e-07
0.00840255
1.10862e-06
0.00839573
2.9096e-06
0.00841386
6.83012e-06
0.00838344
1.80732e-05
0.00844112
4.4868e-05
0.00840382
0.00012616
0.00853444
0.000385182
0.00889009
0.00138521
0.0102518
0.00588312
0.0102046
0.00876136
0.0100039
0.00902178
0.00977482
0.00886967
0.00969899
0.00871617
0.00973196
0.00875114
0.00983643
0.00878291
0.00998872
0.00870267
0.00847183
0.0101558
0.00840003
1.57144e-10
0.00840003
9.52071e-10
0.00840004
3.34782e-09
0.00840001
9.28014e-09
0.00840009
2.4952e-08
0.00839995
6.09702e-08
0.00840032
1.57794e-07
0.00839969
3.73757e-07
0.00840138
9.64931e-07
0.00839881
2.27403e-06
0.00840565
5.91508e-06
0.00839833
1.41323e-05
0.00842472
3.72898e-05
0.00842481
9.76227e-05
0.00854682
0.000291107
0.00893034
0.000983239
0.0109082
0.00389791
0.0106821
0.00898709
0.0105276
0.0091768
0.0102451
0.00915201
0.0100625
0.00889876
0.0100399
0.00877305
0.0101046
0.0087167
0.0102117
0.00859248
0.00834829
0.0103328
0.00840003
1.16203e-10
0.00840003
7.55611e-10
0.00840003
2.52438e-09
0.00840003
7.38108e-09
0.00840006
1.87368e-08
0.00839998
4.83564e-08
0.00840029
1.18249e-07
0.00839965
2.92973e-07
0.00840179
7.1937e-07
0.00839787
1.7591e-06
0.00840999
4.3622e-06
0.00839189
1.0665e-05
0.00843989
2.71048e-05
0.00841471
6.97078e-05
0.00856058
0.000197095
0.00888411
0.000625808
0.0104115
0.00237611
0.011162
0.00822987
0.0109598
0.00937787
0.0106701
0.00944079
0.010435
0.00913316
0.0103465
0.00886005
0.0103652
0.00869665
0.0104311
0.00852456
0.00825827
0.0105154
0.00840003
8.89824e-11
0.00840003
5.87854e-10
0.00840003
1.97698e-09
0.00840003
5.74154e-09
0.00840004
1.46069e-08
0.00840003
3.82743e-08
0.00840012
9.07031e-08
0.00839991
2.37106e-07
0.00840087
5.45317e-07
0.00839888
1.43995e-06
0.00840594
3.29721e-06
0.00839402
8.78257e-06
0.0084276
2.05903e-05
0.00839973
5.55079e-05
0.00849766
0.00014765
0.00861814
0.000460171
0.00935044
0.00166599
0.0110723
0.00649172
0.0111446
0.00930365
0.0110047
0.00957917
0.01075
0.00938668
0.0106356
0.00897302
0.010613
0.00871598
0.0106418
0.00849225
0.00819732
0.0106984
0.00840003
6.94253e-11
0.00840003
4.71943e-10
0.00840003
1.51973e-09
0.00840002
4.60895e-09
0.00840006
1.13474e-08
0.0084
3.00315e-08
0.00840017
7.22175e-08
0.00839989
1.80933e-07
0.00840076
4.46374e-07
0.0083995
1.07703e-06
0.00840345
2.73833e-06
0.00839834
6.46427e-06
0.00841642
1.69668e-05
0.00840524
4.12721e-05
0.00847488
0.000112944
0.00857021
0.000327883
0.00913821
0.00111704
0.0114008
0.00421205
0.0114938
0.00920718
0.0114239
0.00964806
0.0112122
0.00959736
0.0109692
0.00921435
0.0108805
0.00880149
0.010874
0.00849256
0.0081809
0.0108842
0.00840003
5.44851e-11
0.00840003
3.37025e-10
0.00840003
1.18777e-09
0.00840004
3.29503e-09
0.00840002
8.74089e-09
0.00840008
2.18779e-08
0.00839999
5.37267e-08
0.00840029
1.35241e-07
0.00839987
3.19713e-07
0.00840139
8.16832e-07
0.00839951
1.90288e-06
0.00840642
4.93628e-06
0.00840121
1.15046e-05
0.00843084
3.02709e-05
0.0084393
7.53007e-05
0.00858377
0.000214159
0.0090116
0.000669193
0.0107589
0.00246313
0.0118623
0.00809698
0.0117731
0.00973431
0.0115426
0.00982508
0.0112822
0.00947199
0.0111731
0.0089064
0.0111224
0.00853822
0.00820665
0.0110875
0.00840003
4.25004e-11
0.00840003
2.46452e-10
0.00840003
8.96216e-10
0.00840003
2.40359e-09
0.00840004
6.64052e-09
0.00840003
1.57305e-08
0.00840005
4.19532e-08
0.00840011
9.5109e-08
0.00840001
2.54541e-07
0.0084008
5.70943e-07
0.00839938
1.52786e-06
0.00840568
3.4517e-06
0.00839655
9.18249e-06
0.00842819
2.14933e-05
0.00840969
5.75123e-05
0.00851514
0.000150794
0.00867982
0.000463332
0.00952511
0.00163802
0.0117031
0.00589978
0.0119209
0.00951275
0.0119166
0.00982538
0.0117159
0.00966886
0.0114598
0.00915684
0.0113603
0.00862943
0.00824855
0.0113045
0.00840003
2.79595e-11
0.00840003
1.80418e-10
0.00840003
6.14506e-10
0.00840003
1.7608e-09
0.00840003
4.54466e-09
0.00840004
1.15726e-08
0.00840006
2.82735e-08
0.00840004
7.06757e-08
0.00840026
1.69585e-07
0.00839992
4.2411e-07
0.00840184
1.0082e-06
0.00839892
2.5404e-06
0.00841168
6.05488e-06
0.00839706
1.53566e-05
0.00845324
3.77244e-05
0.00845392
9.96443e-05
0.00868389
0.000280937
0.00937337
0.0009142
0.0119876
0.00327683
0.0124024
0.00909233
0.0122884
0.00993469
0.0120372
0.00991485
0.011787
0.00940029
0.0116322
0.00877304
0.00829573
0.0115655
0.00840003
1.95891e-11
0.00840003
1.31006e-10
0.00840003
4.31127e-10
0.00840003
1.27824e-09
0.00840003
3.19521e-09
0.00840003
8.33373e-09
0.00840006
2.0002e-08
0.00840001
5.02119e-08
0.00840025
1.20907e-07
0.00839984
2.97737e-07
0.00840155
7.24173e-07
0.00839888
1.76601e-06
0.0084089
4.34138e-06
0.00839603
1.05837e-05
0.00844036
2.65758e-05
0.00842099
6.71808e-05
0.0085787
0.000183953
0.00887146
0.000563301
0.0101604
0.00201403
0.012302
0.00693044
0.012372
0.00985676
0.0124222
0.00985655
0.0122021
0.00960886
0.0119606
0.00899602
0.00835267
0.011876
0.00840003
1.37433e-11
0.00840003
9.19559e-11
0.00840003
3.05877e-10
0.00840003
8.97175e-10
0.00840003
2.26358e-09
0.00840004
5.90516e-09
0.00840004
1.40332e-08
0.00840005
3.58497e-08
0.00840011
8.43043e-08
0.00840003
2.13882e-07
0.00840076
5.06692e-07
0.00839968
1.2637e-06
0.00840507
3.0554e-06
0.00839806
7.55663e-06
0.00842696
1.86829e-05
0.00841091
4.7103e-05
0.00851614
0.000123913
0.00867227
0.000360592
0.00949638
0.00121307
0.0121534
0.00424903
0.0126929
0.0093043
0.0125015
0.0100332
0.0124448
0.00964971
0.0122734
0.00914374
0.00845181
0.0121335
0.00840003
1.0271e-11
0.00840003
5.95126e-11
0.00840003
2.20315e-10
0.00840003
5.81798e-10
0.00840003
1.62382e-09
0.00840004
3.83563e-09
0.00840003
1.00183e-08
0.00840008
2.34984e-08
0.00840002
5.92541e-08
0.00840026
1.41648e-07
0.00840012
3.47632e-07
0.00840084
8.53184e-07
0.00840157
2.04098e-06
0.00840321
5.13126e-06
0.00841104
1.21916e-05
0.00842455
3.13917e-05
0.00846878
7.83112e-05
0.00861357
0.000218154
0.00914774
0.000674604
0.0110073
0.00237728
0.0127852
0.00750344
0.0127293
0.0100684
0.0125957
0.00975452
0.0125432
0.00916189
0.00836938
0.0125807
0.00840003
6.24953e-12
0.00840003
4.44461e-11
0.00840003
1.40802e-10
0.00840003
4.32367e-10
0.00840003
1.03885e-09
0.00840003
2.82758e-09
0.00840004
6.44173e-09
0.00840003
1.7104e-08
0.0084001
3.8727e-08
0.00839999
1.00985e-07
0.00840053
2.31766e-07
0.00839972
5.94356e-07
0.00840302
1.38632e-06
0.00839868
3.50196e-06
0.008416
8.39304e-06
0.00839915
2.10179e-05
0.00846846
5.28058e-05
0.00848632
0.000140206
0.00880231
0.000411593
0.00971793
0.00141815
0.0124365
0.00476387
0.0129889
0.00948515
0.012934
0.00976164
0.0129166
0.00912081
0.00819483
0.0130228
0.00840003
4.75124e-12
0.00840003
2.64951e-11
0.00840003
1.00614e-10
0.00840003
2.5922e-10
0.00840003
7.34907e-10
0.00840003
1.70427e-09
0.00840003
4.51523e-09
0.00840005
1.03245e-08
0.00840002
2.66204e-08
0.00840017
6.18419e-08
0.00839996
1.55138e-07
0.00840092
3.69229e-07
0.00839967
9.00272e-07
0.00840509
2.20931e-06
0.00839904
5.26244e-06
0.0084254
1.32897e-05
0.00841241
3.19162e-05
0.00851394
8.37005e-05
0.0086445
0.000228908
0.00936122
0.000724416
0.011568
0.00252529
0.0131166
0.00788735
0.0133012
0.00950079
0.0133574
0.0089791
0.00794127
0.0135389
0.00840003
2.79575e-12
0.00840003
1.80262e-11
0.00840003
6.10827e-11
0.00840003
1.75322e-10
0.00840003
4.52316e-10
0.00840003
1.13647e-09
0.00840004
2.81453e-09
0.00840003
6.79439e-09
0.00840007
1.68088e-08
0.00840003
3.98375e-08
0.0084002
9.96691e-08
0.00840011
2.32793e-07
0.00840063
5.88276e-07
0.00840136
1.36473e-06
0.00840191
3.4761e-06
0.00840937
8.10707e-06
0.00841449
2.0849e-05
0.00845083
5.10757e-05
0.00853464
0.000139114
0.00883714
0.000412825
0.00987988
0.00145897
0.0127769
0.00490976
0.0134103
0.00872229
0.0136935
0.0085988
0.0075613
0.0140289
0.00840003
1.66235e-12
0.00840003
1.13414e-11
0.00840003
3.66164e-11
0.00840003
1.10851e-10
0.00840003
2.69129e-10
0.00840003
7.14429e-10
0.00840003
1.65958e-09
0.00840003
4.19897e-09
0.00840006
9.91844e-09
0.00840001
2.41366e-08
0.0084002
5.85013e-08
0.00839996
1.37703e-07
0.00840094
3.43786e-07
0.00839985
7.85779e-07
0.00840476
2.00553e-06
0.00840027
4.52211e-06
0.00842352
1.17501e-05
0.00841929
2.73958e-05
0.00851654
7.33905e-05
0.00867742
0.00020244
0.00947126
0.000664572
0.0118487
0.0024419
0.0130453
0.00731686
0.0138088
0.00774646
0.0068485
0.0144969
0.00840003
1.03972e-12
0.00840003
6.61188e-12
0.00840003
2.28381e-11
0.00840003
6.42632e-11
0.00840003
1.67677e-10
0.00840003
4.14747e-10
0.00840003
1.02564e-09
0.00840003
2.46932e-09
0.00840003
5.98792e-09
0.00840004
1.44462e-08
0.00840008
3.44817e-08
0.0084
8.37278e-08
0.0084005
1.9854e-07
0.00839958
4.8183e-07
0.00840341
1.13901e-06
0.00839705
2.77763e-06
0.00841861
6.60911e-06
0.00839476
1.63763e-05
0.00846811
4.10555e-05
0.0084931
0.000112646
0.008822
0.000349093
0.0098193
0.00133165
0.011786
0.0050898
0.0131668
0.00633162
0.00585515
0.0141477
0.00840003
6.41796e-13
0.00840003
3.70515e-12
0.00840003
1.41014e-11
0.00840003
3.63169e-11
0.00840003
1.02318e-10
0.00840003
2.42406e-10
0.00840003
6.09165e-10
0.00840003
1.49959e-09
0.00840003
3.47624e-09
0.00840003
9.02796e-09
0.00840007
1.96733e-08
0.00839997
5.37751e-08
0.00840038
1.12193e-07
0.00839942
3.16527e-07
0.00840254
6.4067e-07
0.00839613
1.85909e-06
0.00841356
3.76395e-06
0.00838603
1.0803e-05
0.0084401
2.44573e-05
0.00841563
7.04547e-05
0.00856039
0.000209561
0.00898386
0.000775921
0.0103538
0.00334752
0.0119295
0.00480208
0.00478594
0.013042
0.00840003
2.76316e-13
0.00840003
2.71208e-12
0.00840003
6.77336e-12
0.00840003
2.62222e-11
0.00840003
5.13324e-11
0.00840003
1.67581e-10
0.00840003
3.19422e-10
0.00840003
9.87581e-10
0.00840004
1.93678e-09
0.00840001
5.64323e-09
0.00840009
1.19031e-08
0.00839995
3.19615e-08
0.00840026
7.29983e-08
0.00839975
1.80263e-07
0.00840054
4.55875e-07
0.00839933
1.01096e-06
0.00840127
2.80898e-06
0.0083976
6.08618e-06
0.00840686
1.70566e-05
0.00839895
4.37521e-05
0.00844819
0.000135903
0.0086105
0.00048879
0.00923369
0.00227653
0.0105184
0.00363332
0.00406294
0.0113385
0.00840003
2.53307e-13
0.00840003
1.40756e-12
0.00840003
5.20798e-12
0.00840003
1.3634e-11
0.00840003
3.81628e-11
0.00840003
8.45534e-11
0.00840003
2.46668e-10
0.00840003
4.8338e-10
0.00840002
1.51683e-09
0.00840005
2.7564e-09
0.00839998
9.2145e-09
0.00840017
1.58435e-08
0.0083997
5.55789e-08
0.00840087
9.46529e-08
0.00839814
3.30781e-07
0.00840451
5.97841e-07
0.00839014
1.95034e-06
0.00841514
4.03984e-06
0.00837135
1.18309e-05
0.00841307
3.05898e-05
0.00836858
9.69606e-05
0.00838889
0.000353641
0.00849006
0.00170247
0.00936995
0.00289256
0.00335145
0.0101842
0.00840003
1.67046e-13
0.00840003
9.00368e-13
0.00840003
3.52934e-12
0.00840003
8.9234e-12
0.00840003
2.47782e-11
0.00840003
6.39582e-11
0.00840003
1.3837e-10
0.00840003
4.23429e-10
0.00840003
7.49584e-10
0.00840004
2.67653e-09
0.00840002
4.05536e-09
0.00840002
1.67451e-08
0.00840004
2.27432e-08
0.00839975
1.00896e-07
0.0084005
1.40622e-07
0.00839764
6.09052e-07
0.00840278
9.55174e-07
0.00839
3.5758e-06
0.00840097
7.30834e-06
0.0083755
2.37915e-05
0.00837238
7.03151e-05
0.00830766
0.000271169
0.00823585
0.00133389
0.00872308
0.00250456
0.0028067
0.00935401
0.00840003
1.12674e-13
0.00840003
6.20794e-13
0.00840003
2.41019e-12
0.00840003
6.17651e-12
0.00840003
1.78996e-11
0.00840003
4.07384e-11
0.00840003
1.10204e-10
0.00840003
2.48405e-10
0.00840003
6.61113e-10
0.00840004
1.54543e-09
0.00839999
3.84242e-09
0.00840012
9.55774e-09
0.00839974
2.28634e-08
0.00840073
6.00997e-08
0.00839814
1.3541e-07
0.00840429
3.70269e-07
0.00838983
8.28899e-07
0.0084169
2.34084e-06
0.00836718
5.63276e-06
0.00841652
1.6425e-05
0.00835477
5.01873e-05
0.00834614
0.000185198
0.00835503
0.000907174
0.00852569
0.00236209
0.00249344
0.00890188
0.00840003
1.11459e-13
0.00840003
5.3881e-13
0.00840003
1.95427e-12
0.00840003
5.08629e-12
0.00840003
1.50237e-11
0.00840003
2.79984e-11
0.00840003
1.08847e-10
0.00840003
1.40612e-10
0.00840003
7.24392e-10
0.00840003
6.66813e-10
0.0084
4.64621e-09
0.00840009
3.35132e-09
0.00839979
2.84135e-08
0.00840055
2.13766e-08
0.00839835
1.65351e-07
0.00840355
1.6275e-07
0.00839087
9.55056e-07
0.00841437
1.33406e-06
0.00837076
5.34448e-06
0.00841389
1.17478e-05
0.00835954
4.01644e-05
0.00836819
0.000139079
0.0083998
0.000660558
0.00847955
0.00214873
0.00229208
0.00870481
0.00840003
4.96897e-14
0.00840003
5.775e-13
0.00840003
1.22663e-12
0.00840003
5.54442e-12
0.00840003
8.42092e-12
0.00840003
3.74028e-11
0.00840003
4.41688e-11
0.00840003
2.39627e-10
0.00840003
2.35106e-10
0.00840002
1.42282e-09
0.00840005
1.53621e-09
0.00839995
8.17692e-09
0.00840022
1.1075e-08
0.0083994
4.38999e-08
0.00840139
8.63825e-08
0.00839623
2.35343e-07
0.00840761
6.1973e-07
0.00838281
1.40594e-06
0.00841804
4.10005e-06
0.00836646
1.02095e-05
0.00839569
3.27739e-05
0.00835879
0.000114335
0.00833775
0.000533967
0.00842375
0.00190131
0.00210074
0.0086175
0.00840003
1.09604e-13
0.00840003
1.77035e-13
0.00840003
2.01165e-12
0.00840003
1.60003e-12
0.00840003
1.42684e-11
0.00840003
8.3031e-12
0.00840003
8.32429e-11
0.00840003
6.34585e-11
0.00840002
4.51936e-10
0.00840004
5.95426e-10
0.0084
2.25339e-09
0.00840009
4.81303e-09
0.00839989
1.11025e-08
0.00840009
3.96439e-08
0.00839984
5.12624e-08
0.00839901
2.93791e-07
0.00840018
2.95329e-07
0.00839594
1.85064e-06
0.00839636
2.31494e-06
0.00839296
1.04997e-05
0.00837953
2.57855e-05
0.00836658
9.7583e-05
0.00833443
0.000446427
0.00841032
0.00168563
0.00193869
0.0085774
0.00840003
-8.9415e-15
0.00840003
5.46122e-13
0.00840003
2.63699e-13
0.00840003
5.35971e-12
0.00840003
2.31911e-12
0.00840003
3.27472e-11
0.00840003
9.2061e-12
0.00840003
1.85804e-10
0.00840004
1.12629e-10
0.00840002
9.67674e-10
0.00840006
1.15045e-09
0.00839997
4.88722e-09
0.00840008
1.00728e-08
0.00839992
2.41307e-08
0.00839971
8.73524e-08
0.0084002
1.24705e-07
0.0083976
6.30989e-07
0.00840037
7.66079e-07
0.00839472
3.71382e-06
0.00839109
6.24827e-06
0.00838668
2.46781e-05
0.00837198
8.09482e-05
0.00834456
0.00037511
0.00842322
0.0014751
0.00173181
0.00859648
0.00840003
8.32879e-14
0.00840003
7.12905e-14
0.00840003
1.52322e-12
0.00840003
5.79958e-13
0.00840003
1.1198e-11
0.00840003
3.06937e-12
0.00840003
6.46803e-11
0.00840003
3.68553e-11
0.00840002
3.36995e-10
0.00840004
4.12337e-10
0.0084
1.6652e-09
0.00840009
3.73815e-09
0.00839988
7.69391e-09
0.00840019
3.04096e-08
0.00839963
4.06754e-08
0.00839975
2.30195e-07
0.00839913
2.16083e-07
0.0083988
1.45913e-06
0.00839488
1.61828e-06
0.00839861
8.0291e-06
0.00838352
1.8351e-05
0.00837111
7.02933e-05
0.00835726
0.000312431
0.0084395
0.00126815
0.00149446
0.00863278
0.00840003
1.67328e-14
0.00840003
2.05905e-13
0.00840003
4.42715e-13
0.00840003
2.1386e-12
0.00840003
3.48028e-12
0.00840003
1.47626e-11
0.00840003
2.0989e-11
0.00840003
9.97255e-11
0.00840004
8.75685e-11
0.00840002
6.47286e-10
0.00840005
5.6942e-10
0.0084
3.76725e-09
0.00840003
5.00376e-09
0.00840002
2.17273e-08
0.00839958
4.08565e-08
0.00840079
1.23277e-07
0.00839653
3.07936e-07
0.00840421
7.62527e-07
0.00839082
2.17721e-06
0.00840052
5.52825e-06
0.0083874
1.76616e-05
0.00837555
5.95342e-05
0.00836472
0.000259443
0.00844726
0.00107139
0.00124647
0.00864358
0.00840003
2.06951e-14
0.00840003
1.68713e-13
0.00840003
2.29324e-13
0.00840003
1.65841e-12
0.00840003
1.81077e-12
0.00840003
9.48356e-12
0.00840003
2.25722e-11
0.00840003
3.72322e-11
0.00840003
2.45648e-10
0.00840003
6.87346e-11
0.00840001
1.99656e-09
0.00840006
-9.59928e-11
0.00839987
1.42464e-08
0.00840041
-1.28589e-09
0.00839881
9.07905e-08
0.00840275
4.05566e-09
0.00839313
5.60383e-07
0.00841253
1.07438e-07
0.00837814
2.95168e-06
0.00841763
3.5535e-06
0.00837697
1.69835e-05
0.00838076
5.09174e-05
0.00836715
0.000214013
0.0084472
0.000891511
0.000985357
0.00865358
0.00840003
5.27416e-14
0.00840003
-8.67209e-14
0.00840003
7.6713e-13
0.00840003
-7.31312e-13
0.00840003
5.25871e-12
0.00840003
-4.09652e-12
0.00840003
3.28449e-11
0.00840003
-1.32381e-11
0.00840003
1.79244e-10
0.00840003
1.08327e-10
0.00840003
9.23961e-10
0.00839999
1.62117e-09
0.00840011
5.21806e-09
0.00839965
1.52992e-08
0.00840093
2.94246e-08
0.00839732
1.1912e-07
0.00840633
1.66104e-07
0.00838631
8.57344e-07
0.00841921
1.09079e-06
0.0083759
4.95229e-06
0.00840996
1.25179e-05
0.00837167
4.41442e-05
0.00836937
0.000174025
0.00845055
0.000729607
0.000721142
0.0086691
0.00840003
6.66619e-15
0.00840003
4.35532e-14
0.00840003
1.62268e-13
0.00840003
4.66208e-13
0.00840003
1.36127e-12
0.00840003
3.57805e-12
0.00840003
1.00235e-11
0.00840003
2.73595e-11
0.00840003
7.49e-11
0.00840002
2.01997e-10
0.00840006
5.24213e-10
0.00839993
1.45773e-09
0.00840028
3.67514e-09
0.00839944
1.03272e-08
0.00840148
2.39051e-08
0.00839687
7.18181e-08
0.00840718
1.61286e-07
0.00838638
4.78649e-07
0.00841998
1.13251e-06
0.00837353
3.40308e-06
0.00841395
9.58631e-06
0.00837991
3.37453e-05
0.00837427
0.000132192
0.00847783
0.000553077
0.000512835
0.00865287
0.00840003
-3.78793e-14
0.00840003
2.21635e-13
0.00840003
-4.46783e-13
0.00840003
2.13511e-12
0.00840003
-2.9016e-12
0.00840003
1.28247e-11
0.00840003
-1.36776e-11
0.00840003
7.28865e-11
0.00840003
-5.0314e-11
0.00840002
3.40228e-10
0.00840006
8.98465e-11
0.00839994
1.4508e-09
0.00840027
2.8051e-09
0.00839946
5.82129e-09
0.00840142
2.85522e-08
0.00839699
2.14475e-08
0.00840677
2.37305e-07
0.00838702
9.72678e-08
0.00841891
1.33384e-06
0.00837451
1.38017e-06
0.00841546
7.05492e-06
0.00838729
2.03086e-05
0.0083842
9.00793e-05
0.0084895
0.000373758
0.000330352
0.00864119
0.00840003
-5.98238e-15
0.00840003
1.51237e-14
0.00840003
-1.06693e-13
0.00840003
2.92831e-13
0.00840003
-6.23262e-13
0.00840003
2.76573e-12
0.00840003
-2.57139e-12
0.00840003
1.89858e-11
0.00840003
-4.34439e-12
0.00840004
1.31067e-10
0.00840002
-4.84245e-12
0.00840002
9.85229e-10
0.00840006
3.30475e-10
0.00839979
4.18568e-09
0.00840067
8.33722e-09
0.0083978
1.96283e-08
0.00840497
6.6036e-08
0.00838933
1.10463e-07
0.00841453
3.81703e-07
0.00838271
1.0394e-06
0.0084085
2.98288e-06
0.00838693
1.02889e-05
0.0083912
4.45118e-05
0.0085045
0.000187905
0.000162755
0.008648
0.00840003
0.00840003
0.00840003
0.00840003
0.00840003
0.00840003
0.00840003
0.00840003
0.00840002
0.00840004
0.00840001
0.00840007
0.00839997
0.0084
0.00840013
0.00839898
0.00840164
0.00839534
0.00840406
0.00839446
0.00839818
0.00839131
0.00839149
0.00851234
0.00864854
0.00393469
0.00434296
0.00150748
0.00241979
-0.000767133
0.00227034
-0.00171521
0.000947577
-0.00238247
0.000666056
-0.00270798
0.000324606
-0.00281573
0.000107518
-0.00296138
0.00014587
-0.0031294
0.000168014
-0.00326794
0.000138407
-0.00335185
8.40285e-05
-0.00338838
3.62918e-05
-0.003426
3.42917e-05
-0.00346353
3.38267e-05
-0.00347612
8.44849e-06
-0.0034526
-2.93163e-05
-0.00339748
-6.13407e-05
-0.00331467
-8.98004e-05
-0.00320633
-0.000115172
-0.003081
-0.00013161
-0.00294454
-0.000142087
-0.00280003
-0.000149417
-0.0026488
-0.000155015
-0.00249217
-0.000160711
-0.00232905
-0.00016694
-0.00216002
-0.000173413
-0.00198318
-0.000181225
-0.00179994
-0.00018793
-0.00160779
-0.000197552
-0.00140719
-0.000206012
-0.00120113
-0.000211494
-0.000993745
-0.000212616
-0.000784773
-0.000213848
-0.000573761
-0.000215694
-0.000359658
-0.000218229
-0.000142391
-0.000220592
8.28005e-05
-0.000228134
0.000303315
-0.000223006
0.000515036
-0.000213483
0.000720127
-0.000206088
0.000920722
-0.00020081
0.00111536
-0.000194382
0.00130385
-0.000187562
0.00148536
-0.000180447
0.00166312
-0.000175896
0.0018404
-0.000174714
0.00201342
-0.000169892
0.00218101
-0.000163614
0.00234254
-0.000156817
0.00249808
-0.000150722
0.00264805
-0.000144659
0.00279307
-0.000139313
0.00293255
-0.000133679
0.00306708
-0.000128491
0.00319599
-0.000123185
0.00331992
-0.00011817
0.00343875
-0.000113189
0.0035522
-0.000108424
0.00366076
-0.000103665
0.00376435
-9.91758e-05
0.00386301
-9.46592e-05
0.00395655
-9.0398e-05
0.00404546
-8.60893e-05
0.00412967
-8.20665e-05
0.00420913
-7.79528e-05
0.00428455
-7.4112e-05
0.004355
-7.0202e-05
0.00442164
-6.64786e-05
0.00448368
-6.27474e-05