/*--------------------------------*- C++ -*----------------------------------*\
  =========                 |
  \\      /  F ield         | OpenFOAM: The Open Source CFD Toolbox
   \\    /   O peration     | Website:  https://openfoam.org
    \\  /    A nd           | Version:  10
     \\/     M anipulation  |
\*---------------------------------------------------------------------------*/
FoamFile
{
    format      ascii;
    class       volScalarField;
    location    "0.54";
    object      cov;
}
// * * * * * * * * * * * * * * * * * * * * * * * * * * * * * * * * * * * * * //

dimensions      [0 0 0 0 0 0 0];

internalField   uniform 0;

boundaryField
{
    frontAndBack
    {
        type            empty;
    }
    inlet
    {
        type            calculated;
        value           uniform 0;
    }
    outlet
    {
        type            calculated;
        value           uniform 0;
    }
    substrate
    {
        type            calculated;
        value           nonuniform List<scalar> 
400
(
0.734673
0.712425
0.691347
0.670899
0.650825
0.631001
0.611366
0.591896
0.572588
0.553452
0.534506
0.515774
0.497281
0.479053
0.461116
0.443497
0.426218
0.409302
0.392768
0.376634
0.360915
0.345622
0.330766
0.316355
0.302393
0.288885
0.27583
0.26323
0.251081
0.239379
0.22812
0.217296
0.206902
0.196927
0.187364
0.178201
0.16943
0.161039
0.153017
0.145352
0.138033
0.131048
0.124386
0.118035
0.111983
0.106218
0.100731
0.0955081
0.09054
0.0858156
0.0813245
0.0770566
0.073002
0.0691512
0.065495
0.0620244
0.0587308
0.0556059
0.0526418
0.0498307
0.0471653
0.0446384
0.0422434
0.0399737
0.0378231
0.0357856
0.0338556
0.0320276
0.0302965
0.0286573
0.0271054
0.0256362
0.0242454
0.0229291
0.0216832
0.0205043
0.0193887
0.0183331
0.0173343
0.0163895
0.0154957
0.0146502
0.0138504
0.013094
0.0123785
0.0117019
0.011062
0.0104569
0.00988474
0.00934368
0.00883208
0.00834836
0.007891
0.00745859
0.00704977
0.00666327
0.00629789
0.00595247
0.00562593
0.00531725
0.00502545
0.00474963
0.0044889
0.00424245
0.0040095
0.00378931
0.00358119
0.00338447
0.00319855
0.00302281
0.00285672
0.00269974
0.00255137
0.00241114
0.00227861
0.00215336
0.00203498
0.00192311
0.00181737
0.00171745
0.00162301
0.00153377
0.00144942
0.00136971
0.00129438
0.00122319
0.00115591
0.00109234
0.00103225
0.000975471
0.000921812
0.000871103
0.000823182
0.000777896
0.000735101
0.000694659
0.000656441
0.000620324
0.000586195
0.000553942
0.000523463
0.000494661
0.000467444
0.000441723
0.000417417
0.000394449
0.000372744
0.000352233
0.00033285
0.000314534
0.000297226
0.00028087
0.000265413
0.000250808
0.000237005
0.000223963
0.000211638
0.000199991
0.000188985
0.000178584
0.000168756
0.000159469
0.000150693
0.000142399
0.000134562
0.000127157
0.000120158
0.000113545
0.000107296
0.000101391
9.58107e-05
9.05375e-05
8.55545e-05
8.08457e-05
7.63961e-05
7.21913e-05
6.8218e-05
6.44633e-05
6.09152e-05
5.75624e-05
5.43942e-05
5.14003e-05
4.85711e-05
4.58977e-05
4.33714e-05
4.09841e-05
3.87282e-05
3.65965e-05
3.45821e-05
3.26785e-05
3.08797e-05
2.918e-05
2.75737e-05
2.60559e-05
2.46216e-05
2.32663e-05
2.19855e-05
2.07753e-05
1.96316e-05
1.85509e-05
1.75297e-05
1.65647e-05
1.56528e-05
1.47911e-05
1.39768e-05
1.32073e-05
1.24802e-05
1.17931e-05
1.11439e-05
1.05303e-05
9.95056e-06
9.40271e-06
8.88502e-06
8.39582e-06
7.93355e-06
7.49672e-06
7.08394e-06
6.69388e-06
6.3253e-06
5.977e-06
5.64787e-06
5.33686e-06
5.04298e-06
4.76527e-06
4.50284e-06
4.25487e-06
4.02054e-06
3.79912e-06
3.58988e-06
3.39217e-06
3.20534e-06
3.02879e-06
2.86196e-06
2.70432e-06
2.55536e-06
2.4146e-06
2.28159e-06
2.1559e-06
2.03713e-06
1.92491e-06
1.81886e-06
1.71865e-06
1.62396e-06
1.53448e-06
1.44993e-06
1.37003e-06
1.29454e-06
1.2232e-06
1.15579e-06
1.09209e-06
1.03191e-06
9.75031e-07
9.2129e-07
8.70508e-07
8.22523e-07
7.77181e-07
7.34336e-07
6.93851e-07
6.55597e-07
6.19449e-07
5.85293e-07
5.53019e-07
5.22522e-07
4.93706e-07
4.66477e-07
4.40748e-07
4.16437e-07
3.93466e-07
3.7176e-07
3.5125e-07
3.31871e-07
3.1356e-07
2.96257e-07
2.79909e-07
2.64461e-07
2.49865e-07
2.36073e-07
2.23042e-07
2.10728e-07
1.99094e-07
1.88101e-07
1.77715e-07
1.67901e-07
1.58628e-07
1.49866e-07
1.41588e-07
1.33766e-07
1.26375e-07
1.19393e-07
1.12795e-07
1.06561e-07
1.00671e-07
9.51065e-08
8.98487e-08
8.48811e-08
8.01875e-08
7.5753e-08
7.15632e-08
6.76047e-08
6.38647e-08
6.03312e-08
5.69928e-08
5.38386e-08
5.08587e-08
4.80433e-08
4.53835e-08
4.28705e-08
4.04964e-08
3.82534e-08
3.61344e-08
3.41324e-08
3.22411e-08
3.04543e-08
2.87663e-08
2.71717e-08
2.56651e-08
2.42419e-08
2.28974e-08
2.16273e-08
2.04274e-08
1.9294e-08
1.82232e-08
1.72117e-08
1.62562e-08
1.53536e-08
1.4501e-08
1.36956e-08
1.29348e-08
1.22162e-08
1.15373e-08
1.08961e-08
1.02905e-08
9.71844e-09
9.1781e-09
8.66775e-09
8.18571e-09
7.73043e-09
7.30044e-09
6.89432e-09
6.51077e-09
6.14855e-09
5.80646e-09
5.4834e-09
5.17833e-09
4.89024e-09
4.6182e-09
4.36133e-09
4.11878e-09
3.88978e-09
3.67357e-09
3.46944e-09
3.27674e-09
3.09483e-09
2.92312e-09
2.76106e-09
2.6081e-09
2.46375e-09
2.32754e-09
2.19903e-09
2.07779e-09
1.96343e-09
1.85557e-09
1.75386e-09
1.65797e-09
1.56758e-09
1.4824e-09
1.40214e-09
1.32655e-09
1.25537e-09
1.18837e-09
1.12534e-09
1.06606e-09
1.01034e-09
9.57995e-10
9.08856e-10
8.62758e-10
8.19551e-10
7.79093e-10
7.4125e-10
7.05897e-10
6.72918e-10
6.42204e-10
6.13653e-10
5.87172e-10
5.62673e-10
5.40075e-10
5.19303e-10
5.0029e-10
4.82971e-10
4.6729e-10
4.53194e-10
4.40638e-10
4.2958e-10
4.19982e-10
4.11814e-10
4.05048e-10
3.99662e-10
3.95638e-10
3.92963e-10
3.91628e-10
)
;
    }
    Wall
    {
        type            calculated;
        value           nonuniform List<scalar> 
400
(
0.734673
0.712424
0.691347
0.670899
0.650826
0.631001
0.611366
0.591895
0.572587
0.553451
0.534506
0.515774
0.497281
0.479053
0.461117
0.443498
0.42622
0.409304
0.392771
0.376637
0.360918
0.345625
0.33077
0.316359
0.302397
0.288889
0.275835
0.263234
0.251085
0.239384
0.228124
0.217301
0.206907
0.196932
0.187369
0.178207
0.169435
0.161044
0.153022
0.145357
0.138038
0.131053
0.124391
0.118039
0.111987
0.106223
0.100735
0.0955123
0.0905441
0.0858196
0.0813283
0.0770603
0.0730056
0.0691547
0.0654983
0.0620276
0.0587339
0.0556089
0.0526446
0.0498334
0.0471678
0.0446409
0.0422458
0.0399759
0.0378252
0.0357876
0.0338575
0.0320295
0.0302983
0.028659
0.027107
0.0256377
0.0242468
0.0229304
0.0216845
0.0205055
0.0193898
0.0183341
0.0173354
0.0163905
0.0154966
0.014651
0.0138512
0.0130947
0.0123792
0.0117026
0.0110627
0.0104575
0.0098853
0.0093442
0.00883257
0.00834881
0.00789142
0.00745898
0.00705014
0.00666362
0.00629821
0.00595277
0.00562621
0.00531751
0.0050257
0.00474986
0.00448911
0.00424265
0.00400968
0.00378948
0.00358135
0.00338462
0.00319868
0.00302294
0.00285684
0.00269985
0.00255147
0.00241124
0.0022787
0.00215344
0.00203506
0.00192318
0.00181744
0.00171751
0.00162307
0.00153382
0.00144947
0.00136975
0.00129442
0.00122323
0.00115595
0.00109237
0.00103228
0.000975497
0.000921836
0.000871125
0.000823202
0.000777915
0.000735118
0.000694674
0.000656455
0.000620338
0.000586207
0.000553953
0.000523474
0.000494671
0.000467452
0.000441731
0.000417424
0.000394455
0.00037275
0.000352238
0.000332855
0.000314539
0.00029723
0.000280873
0.000265417
0.000250811
0.000237008
0.000223965
0.00021164
0.000199993
0.000188987
0.000178586
0.000168758
0.00015947
0.000150694
0.0001424
0.000134563
0.000127157
0.000120159
0.000113546
0.000107297
0.000101392
9.58112e-05
9.0538e-05
8.55549e-05
8.08461e-05
7.63965e-05
7.21917e-05
6.82183e-05
6.44635e-05
6.09155e-05
5.75626e-05
5.43943e-05
5.14004e-05
4.85713e-05
4.58978e-05
4.33715e-05
4.09842e-05
3.87283e-05
3.65966e-05
3.45821e-05
3.26786e-05
3.08798e-05
2.918e-05
2.75738e-05
2.60559e-05
2.46217e-05
2.32663e-05
2.19856e-05
2.07753e-05
1.96316e-05
1.85509e-05
1.75297e-05
1.65647e-05
1.56528e-05
1.47911e-05
1.39768e-05
1.32073e-05
1.24802e-05
1.17931e-05
1.11439e-05
1.05303e-05
9.95057e-06
9.40272e-06
8.88502e-06
8.39582e-06
7.93355e-06
7.49672e-06
7.08394e-06
6.69388e-06
6.3253e-06
5.977e-06
5.64787e-06
5.33686e-06
5.04298e-06
4.76527e-06
4.50284e-06
4.25487e-06
4.02054e-06
3.79912e-06
3.58988e-06
3.39217e-06
3.20534e-06
3.02879e-06
2.86196e-06
2.70432e-06
2.55536e-06
2.4146e-06
2.28159e-06
2.1559e-06
2.03713e-06
1.92491e-06
1.81886e-06
1.71865e-06
1.62396e-06
1.53448e-06
1.44993e-06
1.37003e-06
1.29454e-06
1.2232e-06
1.15579e-06
1.09209e-06
1.03191e-06
9.75031e-07
9.21289e-07
8.70507e-07
8.22522e-07
7.7718e-07
7.34336e-07
6.93851e-07
6.55597e-07
6.19449e-07
5.85293e-07
5.53019e-07
5.22522e-07
4.93706e-07
4.66477e-07
4.40748e-07
4.16437e-07
3.93466e-07
3.7176e-07
3.5125e-07
3.31871e-07
3.1356e-07
2.96257e-07
2.79909e-07
2.64461e-07
2.49865e-07
2.36073e-07
2.23042e-07
2.10728e-07
1.99094e-07
1.88101e-07
1.77715e-07
1.67901e-07
1.58628e-07
1.49866e-07
1.41588e-07
1.33766e-07
1.26375e-07
1.19393e-07
1.12795e-07
1.06561e-07
1.00671e-07
9.51066e-08
8.98488e-08
8.48811e-08
8.01875e-08
7.5753e-08
7.15632e-08
6.76047e-08
6.38647e-08
6.03312e-08
5.69928e-08
5.38387e-08
5.08587e-08
4.80434e-08
4.53835e-08
4.28705e-08
4.04964e-08
3.82534e-08
3.61344e-08
3.41324e-08
3.22411e-08
3.04544e-08
2.87663e-08
2.71717e-08
2.56652e-08
2.42419e-08
2.28974e-08
2.16273e-08
2.04275e-08
1.9294e-08
1.82232e-08
1.72117e-08
1.62562e-08
1.53536e-08
1.4501e-08
1.36956e-08
1.29348e-08
1.22162e-08
1.15373e-08
1.08962e-08
1.02905e-08
9.71845e-09
9.17811e-09
8.66775e-09
8.18572e-09
7.73044e-09
7.30044e-09
6.89433e-09
6.51078e-09
6.14855e-09
5.80646e-09
5.48341e-09
5.17833e-09
4.89024e-09
4.61821e-09
4.36133e-09
4.11879e-09
3.88978e-09
3.67357e-09
3.46945e-09
3.27674e-09
3.09483e-09
2.92313e-09
2.76106e-09
2.6081e-09
2.46375e-09
2.32755e-09
2.19903e-09
2.0778e-09
1.96343e-09
1.85558e-09
1.75387e-09
1.65797e-09
1.56758e-09
1.4824e-09
1.40214e-09
1.32655e-09
1.25537e-09
1.18838e-09
1.12534e-09
1.06606e-09
1.01034e-09
9.57997e-10
9.08857e-10
8.6276e-10
8.19553e-10
7.79095e-10
7.41251e-10
7.05898e-10
6.72919e-10
6.42205e-10
6.13654e-10
5.87173e-10
5.62674e-10
5.40076e-10
5.19304e-10
5.00291e-10
4.82972e-10
4.67291e-10
4.53195e-10
4.40639e-10
4.29581e-10
4.19983e-10
4.11815e-10
4.05049e-10
3.99663e-10
3.95639e-10
3.92964e-10
3.91628e-10
)
;
    }
}


// ************************************************************************* //
