/*--------------------------------*- C++ -*----------------------------------*\
  =========                 |
  \\      /  F ield         | OpenFOAM: The Open Source CFD Toolbox
   \\    /   O peration     | Website:  https://openfoam.org
    \\  /    A nd           | Version:  10
     \\/     M anipulation  |
\*---------------------------------------------------------------------------*/
FoamFile
{
    format      ascii;
    class       volScalarField;
    location    "0.54";
    object      Exp1;
}
// * * * * * * * * * * * * * * * * * * * * * * * * * * * * * * * * * * * * * //

dimensions      [0 0 0 0 0 0 0];

internalField   uniform 0;

boundaryField
{
    frontAndBack
    {
        type            empty;
    }
    inlet
    {
        type            calculated;
        value           uniform 0;
    }
    outlet
    {
        type            calculated;
        value           uniform 0;
    }
    substrate
    {
        type            calculated;
        value           nonuniform List<scalar> 
400
(
1.9759e-10
5.91715e-10
9.83383e-10
1.37151e-09
1.75514e-09
2.13346e-09
2.50574e-09
2.87133e-09
3.22967e-09
3.58029e-09
3.92276e-09
4.25674e-09
4.58195e-09
4.89814e-09
5.20515e-09
5.50286e-09
5.79117e-09
6.07004e-09
6.33948e-09
6.59951e-09
6.85019e-09
7.0916e-09
7.32385e-09
7.54707e-09
7.76139e-09
7.96699e-09
8.16402e-09
8.35266e-09
8.5331e-09
8.70554e-09
8.87015e-09
9.02715e-09
9.17674e-09
9.3191e-09
9.45444e-09
9.58295e-09
9.70484e-09
9.82029e-09
9.92949e-09
1.00326e-08
1.01299e-08
1.02214e-08
1.03074e-08
1.0388e-08
1.04634e-08
1.05338e-08
1.05992e-08
1.06599e-08
1.0716e-08
1.07676e-08
1.08149e-08
1.08579e-08
1.08969e-08
1.09319e-08
1.0963e-08
1.09904e-08
1.10141e-08
1.10343e-08
1.10511e-08
1.10646e-08
1.10747e-08
1.10818e-08
1.10857e-08
1.10867e-08
1.10848e-08
1.10801e-08
1.10726e-08
1.10624e-08
1.10496e-08
1.10343e-08
1.10165e-08
1.09964e-08
1.09738e-08
1.0949e-08
1.0922e-08
1.08928e-08
1.08616e-08
1.08282e-08
1.07929e-08
1.07557e-08
1.07165e-08
1.06755e-08
1.06328e-08
1.05883e-08
1.05421e-08
1.04942e-08
1.04448e-08
1.03938e-08
1.03413e-08
1.02873e-08
1.02319e-08
1.01752e-08
1.01171e-08
1.00577e-08
9.997e-09
9.93513e-09
9.87208e-09
9.8079e-09
9.74262e-09
9.67628e-09
9.60891e-09
9.54056e-09
9.47126e-09
9.40105e-09
9.32997e-09
9.25804e-09
9.1853e-09
9.1118e-09
9.03756e-09
8.96261e-09
8.887e-09
8.81075e-09
8.7339e-09
8.65648e-09
8.57852e-09
8.50005e-09
8.4211e-09
8.34171e-09
8.26191e-09
8.18173e-09
8.10118e-09
8.02032e-09
7.93916e-09
7.85773e-09
7.77607e-09
7.69419e-09
7.61213e-09
7.52991e-09
7.44757e-09
7.36512e-09
7.2826e-09
7.20002e-09
7.11742e-09
7.03481e-09
6.95223e-09
6.86969e-09
6.78723e-09
6.70485e-09
6.62259e-09
6.54047e-09
6.45851e-09
6.37673e-09
6.29515e-09
6.21379e-09
6.13268e-09
6.05182e-09
5.97124e-09
5.89097e-09
5.81101e-09
5.73138e-09
5.65211e-09
5.57321e-09
5.49469e-09
5.41657e-09
5.33887e-09
5.2616e-09
5.18478e-09
5.10841e-09
5.03253e-09
4.95713e-09
4.88223e-09
4.80784e-09
4.73398e-09
4.66065e-09
4.58787e-09
4.51565e-09
4.444e-09
4.37293e-09
4.30244e-09
4.23255e-09
4.16327e-09
4.0946e-09
4.02655e-09
3.95913e-09
3.89235e-09
3.8262e-09
3.76071e-09
3.69587e-09
3.63169e-09
3.56818e-09
3.50533e-09
3.44316e-09
3.38167e-09
3.32085e-09
3.26073e-09
3.20129e-09
3.14254e-09
3.08448e-09
3.02712e-09
2.97045e-09
2.91449e-09
2.85922e-09
2.80465e-09
2.75077e-09
2.6976e-09
2.64513e-09
2.59336e-09
2.54229e-09
2.49191e-09
2.44223e-09
2.39324e-09
2.34495e-09
2.29735e-09
2.25044e-09
2.20422e-09
2.15868e-09
2.11382e-09
2.06964e-09
2.02613e-09
1.98329e-09
1.94113e-09
1.89962e-09
1.85878e-09
1.8186e-09
1.77906e-09
1.74017e-09
1.70193e-09
1.66432e-09
1.62735e-09
1.591e-09
1.55528e-09
1.52017e-09
1.48568e-09
1.4518e-09
1.41851e-09
1.38582e-09
1.35372e-09
1.32221e-09
1.29127e-09
1.2609e-09
1.2311e-09
1.20186e-09
1.17317e-09
1.14503e-09
1.11743e-09
1.09037e-09
1.06383e-09
1.03781e-09
1.01231e-09
9.87322e-10
9.62831e-10
9.38836e-10
9.15329e-10
8.92305e-10
8.69756e-10
8.47676e-10
8.26058e-10
8.04896e-10
7.84182e-10
7.63911e-10
7.44076e-10
7.24669e-10
7.05685e-10
6.87118e-10
6.68959e-10
6.51203e-10
6.33844e-10
6.16874e-10
6.00288e-10
5.84079e-10
5.68241e-10
5.52767e-10
5.37652e-10
5.22888e-10
5.0847e-10
4.94391e-10
4.80646e-10
4.67228e-10
4.54131e-10
4.4135e-10
4.28879e-10
4.16711e-10
4.04841e-10
3.93264e-10
3.81972e-10
3.70962e-10
3.60228e-10
3.49763e-10
3.39563e-10
3.29622e-10
3.19935e-10
3.10496e-10
3.01301e-10
2.92345e-10
2.83622e-10
2.75127e-10
2.66857e-10
2.58805e-10
2.50967e-10
2.43338e-10
2.35914e-10
2.28691e-10
2.21663e-10
2.14826e-10
2.08177e-10
2.0171e-10
1.95422e-10
1.89309e-10
1.83365e-10
1.77589e-10
1.71974e-10
1.66519e-10
1.61218e-10
1.56068e-10
1.51066e-10
1.46208e-10
1.4149e-10
1.36909e-10
1.32462e-10
1.28144e-10
1.23954e-10
1.19888e-10
1.15942e-10
1.12114e-10
1.084e-10
1.04798e-10
1.01305e-10
9.79171e-11
9.46328e-11
9.14489e-11
8.83627e-11
8.53717e-11
8.24733e-11
7.96651e-11
7.69446e-11
7.43094e-11
7.17572e-11
6.92859e-11
6.6893e-11
6.45766e-11
6.23344e-11
6.01644e-11
5.80646e-11
5.6033e-11
5.40677e-11
5.21669e-11
5.03287e-11
4.85514e-11
4.68331e-11
4.51722e-11
4.35672e-11
4.20163e-11
4.0518e-11
3.90707e-11
3.76731e-11
3.63237e-11
3.5021e-11
3.37637e-11
3.25505e-11
3.13801e-11
3.02512e-11
2.91627e-11
2.81133e-11
2.71019e-11
2.61273e-11
2.51886e-11
2.42847e-11
2.34145e-11
2.25771e-11
2.17715e-11
2.09968e-11
2.02521e-11
1.95366e-11
1.88494e-11
1.81897e-11
1.75567e-11
1.69497e-11
1.6368e-11
1.58108e-11
1.52776e-11
1.47676e-11
1.42802e-11
1.38149e-11
1.3371e-11
1.29481e-11
1.25456e-11
1.21629e-11
1.17997e-11
1.14555e-11
1.11298e-11
1.08222e-11
1.05323e-11
1.02598e-11
1.00044e-11
9.76559e-12
9.5432e-12
9.3369e-12
9.14644e-12
8.97156e-12
8.81204e-12
8.66768e-12
8.53828e-12
8.42368e-12
8.32372e-12
8.23829e-12
8.16726e-12
8.11054e-12
8.06807e-12
8.03979e-12
8.02566e-12
)
;
    }
    Wall
    {
        type            calculated;
        value           nonuniform List<scalar> 
400
(
1.97591e-10
5.9172e-10
9.83395e-10
1.37152e-09
1.75516e-09
2.13348e-09
2.50576e-09
2.87134e-09
3.22969e-09
3.5803e-09
3.92276e-09
4.25674e-09
4.58194e-09
4.89812e-09
5.20513e-09
5.50282e-09
5.79112e-09
6.06999e-09
6.33942e-09
6.59944e-09
6.85011e-09
7.09151e-09
7.32376e-09
7.54697e-09
7.76129e-09
7.96687e-09
8.1639e-09
8.35253e-09
8.53297e-09
8.70539e-09
8.87e-09
9.027e-09
9.17657e-09
9.31893e-09
9.45426e-09
9.58277e-09
9.70465e-09
9.82009e-09
9.92929e-09
1.00324e-08
1.01297e-08
1.02212e-08
1.03072e-08
1.03878e-08
1.04632e-08
1.05335e-08
1.0599e-08
1.06597e-08
1.07158e-08
1.07674e-08
1.08146e-08
1.08577e-08
1.08966e-08
1.09316e-08
1.09627e-08
1.09901e-08
1.10139e-08
1.10341e-08
1.10508e-08
1.10643e-08
1.10745e-08
1.10815e-08
1.10855e-08
1.10865e-08
1.10845e-08
1.10798e-08
1.10723e-08
1.10621e-08
1.10493e-08
1.1034e-08
1.10162e-08
1.09961e-08
1.09735e-08
1.09487e-08
1.09217e-08
1.08926e-08
1.08613e-08
1.08279e-08
1.07926e-08
1.07554e-08
1.07162e-08
1.06752e-08
1.06325e-08
1.0588e-08
1.05418e-08
1.04939e-08
1.04445e-08
1.03935e-08
1.0341e-08
1.0287e-08
1.02316e-08
1.01749e-08
1.01168e-08
1.00574e-08
9.99672e-09
9.93485e-09
9.87181e-09
9.80763e-09
9.74234e-09
9.676e-09
9.60864e-09
9.54029e-09
9.471e-09
9.40079e-09
9.3297e-09
9.25778e-09
9.18504e-09
9.11154e-09
9.0373e-09
8.96236e-09
8.88675e-09
8.8105e-09
8.73365e-09
8.65623e-09
8.57827e-09
8.4998e-09
8.42086e-09
8.34147e-09
8.26167e-09
8.18149e-09
8.10095e-09
8.02009e-09
7.93893e-09
7.8575e-09
7.77584e-09
7.69397e-09
7.61191e-09
7.52969e-09
7.44735e-09
7.36491e-09
7.28238e-09
7.19981e-09
7.11721e-09
7.0346e-09
6.95202e-09
6.86949e-09
6.78703e-09
6.70466e-09
6.6224e-09
6.54028e-09
6.45832e-09
6.37654e-09
6.29497e-09
6.21361e-09
6.13249e-09
6.05164e-09
5.97107e-09
5.89079e-09
5.81084e-09
5.73121e-09
5.65194e-09
5.57304e-09
5.49452e-09
5.41641e-09
5.33871e-09
5.26144e-09
5.18462e-09
5.10826e-09
5.03238e-09
4.95698e-09
4.88208e-09
4.8077e-09
4.73384e-09
4.66051e-09
4.58774e-09
4.51552e-09
4.44387e-09
4.3728e-09
4.30231e-09
4.23243e-09
4.16314e-09
4.09448e-09
4.02643e-09
3.95901e-09
3.89223e-09
3.82609e-09
3.7606e-09
3.69576e-09
3.63158e-09
3.56807e-09
3.50523e-09
3.44306e-09
3.38157e-09
3.32076e-09
3.26063e-09
3.20119e-09
3.14244e-09
3.08439e-09
3.02703e-09
2.97037e-09
2.9144e-09
2.85913e-09
2.80456e-09
2.75069e-09
2.69752e-09
2.64505e-09
2.59328e-09
2.54221e-09
2.49183e-09
2.44216e-09
2.39317e-09
2.34488e-09
2.29728e-09
2.25037e-09
2.20415e-09
2.15861e-09
2.11375e-09
2.06957e-09
2.02607e-09
1.98323e-09
1.94107e-09
1.89957e-09
1.85873e-09
1.81854e-09
1.77901e-09
1.74012e-09
1.70188e-09
1.66427e-09
1.6273e-09
1.59096e-09
1.55523e-09
1.52013e-09
1.48564e-09
1.45175e-09
1.41847e-09
1.38578e-09
1.35368e-09
1.32217e-09
1.29123e-09
1.26086e-09
1.23106e-09
1.20182e-09
1.17314e-09
1.145e-09
1.1174e-09
1.09034e-09
1.0638e-09
1.03778e-09
1.01228e-09
9.87292e-10
9.62803e-10
9.38808e-10
9.15303e-10
8.92279e-10
8.69731e-10
8.47651e-10
8.26034e-10
8.04872e-10
7.84159e-10
7.63889e-10
7.44054e-10
7.24648e-10
7.05665e-10
6.87097e-10
6.68939e-10
6.51184e-10
6.33825e-10
6.16856e-10
6.00271e-10
5.84063e-10
5.68225e-10
5.52751e-10
5.37636e-10
5.22873e-10
5.08455e-10
4.94377e-10
4.80632e-10
4.67214e-10
4.54118e-10
4.41338e-10
4.28867e-10
4.16699e-10
4.0483e-10
3.93252e-10
3.81962e-10
3.70952e-10
3.60217e-10
3.49753e-10
3.39553e-10
3.29612e-10
3.19926e-10
3.10487e-10
3.01293e-10
2.92337e-10
2.83614e-10
2.7512e-10
2.66849e-10
2.58797e-10
2.5096e-10
2.43331e-10
2.35908e-10
2.28684e-10
2.21657e-10
2.1482e-10
2.08171e-10
2.01705e-10
1.95417e-10
1.89303e-10
1.8336e-10
1.77584e-10
1.7197e-10
1.66514e-10
1.61214e-10
1.56064e-10
1.51062e-10
1.46204e-10
1.41486e-10
1.36905e-10
1.32458e-10
1.28141e-10
1.23951e-10
1.19885e-10
1.15939e-10
1.12111e-10
1.08397e-10
1.04795e-10
1.01302e-10
9.79145e-11
9.46303e-11
9.14464e-11
8.83604e-11
8.53694e-11
8.24711e-11
7.9663e-11
7.69426e-11
7.43075e-11
7.17554e-11
6.92841e-11
6.68913e-11
6.45749e-11
6.23328e-11
6.01628e-11
5.80631e-11
5.60316e-11
5.40664e-11
5.21656e-11
5.03275e-11
4.85501e-11
4.68319e-11
4.51711e-11
4.35661e-11
4.20152e-11
4.0517e-11
3.90698e-11
3.76722e-11
3.63228e-11
3.50201e-11
3.37629e-11
3.25497e-11
3.13793e-11
3.02505e-11
2.9162e-11
2.81126e-11
2.71012e-11
2.61267e-11
2.51881e-11
2.42841e-11
2.3414e-11
2.25766e-11
2.1771e-11
2.09963e-11
2.02517e-11
1.95362e-11
1.8849e-11
1.81893e-11
1.75563e-11
1.69493e-11
1.63676e-11
1.58105e-11
1.52772e-11
1.47673e-11
1.42799e-11
1.38146e-11
1.33708e-11
1.29478e-11
1.25453e-11
1.21627e-11
1.17995e-11
1.14553e-11
1.11296e-11
1.0822e-11
1.05321e-11
1.02597e-11
1.00042e-11
9.76542e-12
9.54303e-12
9.33674e-12
9.14628e-12
8.9714e-12
8.81189e-12
8.66753e-12
8.53813e-12
8.42353e-12
8.32357e-12
8.23814e-12
8.1671e-12
8.11039e-12
8.06793e-12
8.03968e-12
8.02559e-12
)
;
    }
}


// ************************************************************************* //
