/*--------------------------------*- C++ -*----------------------------------*\
  =========                 |
  \\      /  F ield         | OpenFOAM: The Open Source CFD Toolbox
   \\    /   O peration     | Website:  https://openfoam.org
    \\  /    A nd           | Version:  10
     \\/     M anipulation  |
\*---------------------------------------------------------------------------*/
FoamFile
{
    format      ascii;
    class       volScalarField;
    location    "0.54";
    object      N1;
}
// * * * * * * * * * * * * * * * * * * * * * * * * * * * * * * * * * * * * * //

dimensions      [0 0 0 0 0 0 0];

internalField   nonuniform List<scalar> 
8000
(
1.4999e-09
4.49347e-09
7.4706e-09
1.04229e-08
1.33432e-08
1.6225e-08
1.90629e-08
2.18518e-08
2.45874e-08
2.7266e-08
2.98842e-08
3.24394e-08
3.49292e-08
3.73518e-08
3.97057e-08
4.19898e-08
4.42033e-08
4.63459e-08
4.84174e-08
5.04178e-08
5.23475e-08
5.42071e-08
5.59972e-08
5.77187e-08
5.93725e-08
6.09599e-08
6.2482e-08
6.39401e-08
6.53355e-08
6.66696e-08
6.79438e-08
6.91597e-08
7.03187e-08
7.14222e-08
7.24718e-08
7.34688e-08
7.44149e-08
7.53113e-08
7.61596e-08
7.6961e-08
7.77171e-08
7.8429e-08
7.90982e-08
7.97259e-08
8.03132e-08
8.08615e-08
8.13719e-08
8.18454e-08
8.22833e-08
8.26864e-08
8.3056e-08
8.33929e-08
8.36981e-08
8.39726e-08
8.42171e-08
8.44327e-08
8.462e-08
8.478e-08
8.49134e-08
8.50208e-08
8.51032e-08
8.5161e-08
8.51951e-08
8.52061e-08
8.51946e-08
8.51612e-08
8.51065e-08
8.50311e-08
8.49355e-08
8.48202e-08
8.46859e-08
8.45329e-08
8.43619e-08
8.41732e-08
8.39674e-08
8.37448e-08
8.3506e-08
8.32513e-08
8.29813e-08
8.26962e-08
8.23965e-08
8.20827e-08
8.1755e-08
8.14138e-08
8.10596e-08
8.06927e-08
8.03135e-08
7.99222e-08
7.95193e-08
7.91051e-08
7.86799e-08
7.82441e-08
7.77979e-08
7.73417e-08
7.68758e-08
7.64006e-08
7.59162e-08
7.54231e-08
7.49215e-08
7.44118e-08
7.38941e-08
7.33689e-08
7.28363e-08
7.22966e-08
7.17503e-08
7.11974e-08
7.06383e-08
7.00733e-08
6.95026e-08
6.89264e-08
6.83451e-08
6.77589e-08
6.71681e-08
6.65728e-08
6.59734e-08
6.53701e-08
6.47631e-08
6.41527e-08
6.35391e-08
6.29225e-08
6.23032e-08
6.16814e-08
6.10573e-08
6.04312e-08
5.98032e-08
5.91736e-08
5.85425e-08
5.79103e-08
5.72771e-08
5.6643e-08
5.60084e-08
5.53734e-08
5.47382e-08
5.41029e-08
5.34678e-08
5.28331e-08
5.21989e-08
5.15654e-08
5.09328e-08
5.03013e-08
4.9671e-08
4.9042e-08
4.84146e-08
4.7789e-08
4.71651e-08
4.65433e-08
4.59236e-08
4.53063e-08
4.46913e-08
4.4079e-08
4.34693e-08
4.28625e-08
4.22586e-08
4.16578e-08
4.10603e-08
4.0466e-08
3.98752e-08
3.92879e-08
3.87043e-08
3.81244e-08
3.75483e-08
3.69763e-08
3.64082e-08
3.58443e-08
3.52845e-08
3.47291e-08
3.41781e-08
3.36315e-08
3.30894e-08
3.25519e-08
3.2019e-08
3.14909e-08
3.09675e-08
3.0449e-08
2.99354e-08
2.94267e-08
2.8923e-08
2.84244e-08
2.79308e-08
2.74423e-08
2.6959e-08
2.64808e-08
2.60079e-08
2.55402e-08
2.50777e-08
2.46206e-08
2.41688e-08
2.37223e-08
2.32811e-08
2.28453e-08
2.24149e-08
2.19898e-08
2.15701e-08
2.11558e-08
2.07468e-08
2.03433e-08
1.99451e-08
1.95523e-08
1.91649e-08
1.87828e-08
1.84061e-08
1.80347e-08
1.76686e-08
1.73078e-08
1.69523e-08
1.6602e-08
1.6257e-08
1.59172e-08
1.55826e-08
1.52532e-08
1.49289e-08
1.46097e-08
1.42956e-08
1.39865e-08
1.36825e-08
1.33834e-08
1.30893e-08
1.28e-08
1.25157e-08
1.22362e-08
1.19614e-08
1.16914e-08
1.14262e-08
1.11655e-08
1.09095e-08
1.06581e-08
1.04113e-08
1.01689e-08
9.93094e-09
9.6974e-09
9.46821e-09
9.24332e-09
9.02269e-09
8.80627e-09
8.59401e-09
8.38585e-09
8.18176e-09
7.98168e-09
7.78555e-09
7.59334e-09
7.40499e-09
7.22044e-09
7.03966e-09
6.86258e-09
6.68916e-09
6.51935e-09
6.35309e-09
6.19033e-09
6.03103e-09
5.87513e-09
5.72257e-09
5.57332e-09
5.42732e-09
5.28452e-09
5.14486e-09
5.00831e-09
4.8748e-09
4.74429e-09
4.61673e-09
4.49207e-09
4.37026e-09
4.25125e-09
4.135e-09
4.02145e-09
3.91056e-09
3.80229e-09
3.69657e-09
3.59338e-09
3.49266e-09
3.39436e-09
3.29844e-09
3.20486e-09
3.11357e-09
3.02453e-09
2.93769e-09
2.85302e-09
2.77046e-09
2.68997e-09
2.61153e-09
2.53507e-09
2.46057e-09
2.38798e-09
2.31726e-09
2.24838e-09
2.18129e-09
2.11596e-09
2.05235e-09
1.99043e-09
1.93015e-09
1.87148e-09
1.81438e-09
1.75882e-09
1.70477e-09
1.6522e-09
1.60106e-09
1.55132e-09
1.50296e-09
1.45594e-09
1.41024e-09
1.36581e-09
1.32263e-09
1.28067e-09
1.2399e-09
1.2003e-09
1.16183e-09
1.12446e-09
1.08818e-09
1.05295e-09
1.01874e-09
9.85539e-10
9.53313e-10
9.22039e-10
8.91692e-10
8.6225e-10
8.33688e-10
8.05985e-10
7.79118e-10
7.53066e-10
7.27806e-10
7.03319e-10
6.79584e-10
6.56581e-10
6.3429e-10
6.12692e-10
5.91769e-10
5.71502e-10
5.51874e-10
5.32867e-10
5.14464e-10
4.96648e-10
4.79404e-10
4.62715e-10
4.46566e-10
4.30941e-10
4.15827e-10
4.01208e-10
3.87071e-10
3.73401e-10
3.60186e-10
3.47413e-10
3.35069e-10
3.23141e-10
3.11617e-10
3.00487e-10
2.89738e-10
2.7936e-10
2.69341e-10
2.59672e-10
2.50341e-10
2.4134e-10
2.32658e-10
2.24286e-10
2.16215e-10
2.08436e-10
2.00941e-10
1.93722e-10
1.8677e-10
1.80078e-10
1.73637e-10
1.67441e-10
1.61483e-10
1.55756e-10
1.50253e-10
1.44968e-10
1.39894e-10
1.35026e-10
1.30358e-10
1.25884e-10
1.21599e-10
1.17498e-10
1.13575e-10
1.09827e-10
1.06248e-10
1.02835e-10
9.95819e-11
9.6486e-11
9.35433e-11
9.07499e-11
8.81023e-11
8.55974e-11
8.32318e-11
8.10025e-11
7.89069e-11
7.69421e-11
7.51057e-11
7.33953e-11
7.18087e-11
7.03439e-11
6.89989e-11
6.77721e-11
6.66618e-11
6.56666e-11
6.47852e-11
6.40165e-11
6.33594e-11
6.28131e-11
6.2377e-11
6.20503e-11
6.18328e-11
6.17242e-11
1.51524e-09
4.54085e-09
7.55254e-09
1.05423e-08
1.35029e-08
1.64279e-08
1.93118e-08
2.21494e-08
2.49363e-08
2.76683e-08
3.03422e-08
3.2955e-08
3.55041e-08
3.79874e-08
4.04032e-08
4.27503e-08
4.50277e-08
4.72346e-08
4.93707e-08
5.14359e-08
5.34304e-08
5.53544e-08
5.72084e-08
5.89933e-08
6.07098e-08
6.23589e-08
6.39416e-08
6.54592e-08
6.69129e-08
6.83039e-08
6.96336e-08
7.09035e-08
7.21148e-08
7.32692e-08
7.43679e-08
7.54124e-08
7.64043e-08
7.73448e-08
7.82354e-08
7.90775e-08
7.98725e-08
8.06217e-08
8.13264e-08
8.19879e-08
8.26075e-08
8.31863e-08
8.37256e-08
8.42265e-08
8.46902e-08
8.51177e-08
8.551e-08
8.58683e-08
8.61935e-08
8.64864e-08
8.67482e-08
8.69796e-08
8.71816e-08
8.73549e-08
8.75004e-08
8.76188e-08
8.77109e-08
8.77775e-08
8.78192e-08
8.78367e-08
8.78307e-08
8.78018e-08
8.77507e-08
8.76779e-08
8.75841e-08
8.74697e-08
8.73354e-08
8.71817e-08
8.70091e-08
8.6818e-08
8.66091e-08
8.63827e-08
8.61394e-08
8.58795e-08
8.56036e-08
8.5312e-08
8.50052e-08
8.46836e-08
8.43477e-08
8.39977e-08
8.36341e-08
8.32573e-08
8.28677e-08
8.24655e-08
8.20513e-08
8.16253e-08
8.11878e-08
8.07393e-08
8.028e-08
7.98104e-08
7.93307e-08
7.88412e-08
7.83423e-08
7.78342e-08
7.73174e-08
7.67921e-08
7.62585e-08
7.57171e-08
7.51681e-08
7.46118e-08
7.40485e-08
7.34784e-08
7.29019e-08
7.23192e-08
7.17306e-08
7.11364e-08
7.05368e-08
6.99321e-08
6.93227e-08
6.87086e-08
6.80902e-08
6.74678e-08
6.68416e-08
6.62118e-08
6.55787e-08
6.49426e-08
6.43036e-08
6.3662e-08
6.3018e-08
6.23719e-08
6.17239e-08
6.10742e-08
6.04231e-08
5.97706e-08
5.91172e-08
5.84629e-08
5.7808e-08
5.71526e-08
5.64971e-08
5.58415e-08
5.51861e-08
5.4531e-08
5.38765e-08
5.32227e-08
5.25699e-08
5.19181e-08
5.12675e-08
5.06184e-08
4.99709e-08
4.93252e-08
4.86813e-08
4.80395e-08
4.74e-08
4.67628e-08
4.61281e-08
4.54961e-08
4.48668e-08
4.42405e-08
4.36173e-08
4.29972e-08
4.23804e-08
4.17671e-08
4.11573e-08
4.05511e-08
3.99487e-08
3.93502e-08
3.87557e-08
3.81652e-08
3.75789e-08
3.69968e-08
3.64191e-08
3.58459e-08
3.52771e-08
3.47129e-08
3.41534e-08
3.35986e-08
3.30486e-08
3.25035e-08
3.19634e-08
3.14282e-08
3.0898e-08
3.0373e-08
2.98531e-08
2.93384e-08
2.8829e-08
2.83248e-08
2.78259e-08
2.73324e-08
2.68442e-08
2.63615e-08
2.58842e-08
2.54124e-08
2.4946e-08
2.44851e-08
2.40298e-08
2.358e-08
2.31357e-08
2.26969e-08
2.22638e-08
2.18361e-08
2.1414e-08
2.09975e-08
2.05865e-08
2.01811e-08
1.97812e-08
1.93868e-08
1.8998e-08
1.86147e-08
1.82368e-08
1.78644e-08
1.74975e-08
1.7136e-08
1.67799e-08
1.64291e-08
1.60838e-08
1.57437e-08
1.5409e-08
1.50796e-08
1.47553e-08
1.44363e-08
1.41225e-08
1.38138e-08
1.35102e-08
1.32117e-08
1.29182e-08
1.26297e-08
1.23461e-08
1.20674e-08
1.17936e-08
1.15246e-08
1.12604e-08
1.10009e-08
1.07461e-08
1.04959e-08
1.02503e-08
1.00093e-08
9.7727e-09
9.54058e-09
9.31286e-09
9.08948e-09
8.87039e-09
8.65554e-09
8.44488e-09
8.23836e-09
8.03593e-09
7.83754e-09
7.64313e-09
7.45265e-09
7.26605e-09
7.08328e-09
6.90428e-09
6.72901e-09
6.5574e-09
6.38941e-09
6.22498e-09
6.06407e-09
5.90661e-09
5.75256e-09
5.60186e-09
5.45446e-09
5.31032e-09
5.16937e-09
5.03157e-09
4.89686e-09
4.7652e-09
4.63653e-09
4.5108e-09
4.38797e-09
4.26798e-09
4.15078e-09
4.03632e-09
3.92457e-09
3.81545e-09
3.70894e-09
3.60498e-09
3.50352e-09
3.40452e-09
3.30793e-09
3.2137e-09
3.1218e-09
3.03217e-09
2.94477e-09
2.85955e-09
2.77648e-09
2.69551e-09
2.6166e-09
2.5397e-09
2.46477e-09
2.39178e-09
2.32069e-09
2.25144e-09
2.18401e-09
2.11836e-09
2.05444e-09
1.99222e-09
1.93166e-09
1.87273e-09
1.81539e-09
1.7596e-09
1.70533e-09
1.65255e-09
1.60121e-09
1.5513e-09
1.50277e-09
1.45559e-09
1.40973e-09
1.36516e-09
1.32186e-09
1.27978e-09
1.2389e-09
1.19919e-09
1.16062e-09
1.12317e-09
1.08681e-09
1.0515e-09
1.01723e-09
9.83971e-10
9.51691e-10
9.20368e-10
8.89979e-10
8.60499e-10
8.31905e-10
8.04174e-10
7.77284e-10
7.51212e-10
7.25938e-10
7.01439e-10
6.77696e-10
6.54688e-10
6.32396e-10
6.108e-10
5.89881e-10
5.69622e-10
5.50004e-10
5.31009e-10
5.1262e-10
4.94821e-10
4.77596e-10
4.60927e-10
4.448e-10
4.29199e-10
4.1411e-10
3.99518e-10
3.85409e-10
3.7177e-10
3.58585e-10
3.45844e-10
3.33533e-10
3.21639e-10
3.10151e-10
2.99056e-10
2.88344e-10
2.78003e-10
2.68022e-10
2.58392e-10
2.49101e-10
2.4014e-10
2.31498e-10
2.23168e-10
2.15139e-10
2.07404e-10
1.99952e-10
1.92776e-10
1.85869e-10
1.79221e-10
1.72826e-10
1.66677e-10
1.60765e-10
1.55085e-10
1.4963e-10
1.44393e-10
1.39368e-10
1.3455e-10
1.29932e-10
1.25509e-10
1.21276e-10
1.17228e-10
1.13359e-10
1.09665e-10
1.06142e-10
1.02784e-10
9.95889e-11
9.65515e-11
9.36683e-11
9.09356e-11
8.83501e-11
8.59084e-11
8.36075e-11
8.14445e-11
7.94165e-11
7.7521e-11
7.57556e-11
7.4118e-11
7.26061e-11
7.12179e-11
6.99516e-11
6.88056e-11
6.77784e-11
6.68687e-11
6.60752e-11
6.5397e-11
6.48331e-11
6.43829e-11
6.40458e-11
6.38213e-11
6.37092e-11
1.53028e-09
4.58664e-09
7.63065e-09
1.06547e-08
1.3652e-08
1.6616e-08
1.95412e-08
2.24223e-08
2.52548e-08
2.80345e-08
3.07579e-08
3.34219e-08
3.60236e-08
3.85609e-08
4.10319e-08
4.34349e-08
4.57689e-08
4.80331e-08
5.02267e-08
5.23496e-08
5.44016e-08
5.6383e-08
5.82941e-08
6.01354e-08
6.19078e-08
6.36119e-08
6.52488e-08
6.68195e-08
6.83252e-08
6.9767e-08
7.11464e-08
7.24645e-08
7.37228e-08
7.49226e-08
7.60653e-08
7.71524e-08
7.81853e-08
7.91654e-08
8.0094e-08
8.09726e-08
8.18025e-08
8.25852e-08
8.33218e-08
8.40137e-08
8.46622e-08
8.52685e-08
8.58339e-08
8.63594e-08
8.68464e-08
8.72957e-08
8.77086e-08
8.80861e-08
8.84293e-08
8.8739e-08
8.90163e-08
8.9262e-08
8.94771e-08
8.96625e-08
8.98189e-08
8.99473e-08
9.00482e-08
9.01227e-08
9.01713e-08
9.01948e-08
9.01938e-08
9.01691e-08
9.01212e-08
9.00509e-08
8.99587e-08
8.98452e-08
8.9711e-08
8.95566e-08
8.93826e-08
8.91895e-08
8.89778e-08
8.8748e-08
8.85007e-08
8.82362e-08
8.79551e-08
8.76577e-08
8.73446e-08
8.70161e-08
8.66728e-08
8.63149e-08
8.5943e-08
8.55573e-08
8.51584e-08
8.47465e-08
8.43221e-08
8.38855e-08
8.34371e-08
8.29772e-08
8.25062e-08
8.20245e-08
8.15324e-08
8.10301e-08
8.05182e-08
7.99968e-08
7.94663e-08
7.8927e-08
7.83793e-08
7.78234e-08
7.72596e-08
7.66883e-08
7.61098e-08
7.55243e-08
7.49322e-08
7.43336e-08
7.3729e-08
7.31186e-08
7.25026e-08
7.18814e-08
7.12552e-08
7.06243e-08
6.9989e-08
6.93495e-08
6.8706e-08
6.80589e-08
6.74083e-08
6.67546e-08
6.60979e-08
6.54386e-08
6.47768e-08
6.41128e-08
6.34468e-08
6.27791e-08
6.21099e-08
6.14394e-08
6.07678e-08
6.00953e-08
5.94222e-08
5.87486e-08
5.80748e-08
5.7401e-08
5.67274e-08
5.60541e-08
5.53813e-08
5.47093e-08
5.40383e-08
5.33683e-08
5.26997e-08
5.20325e-08
5.13669e-08
5.07032e-08
5.00413e-08
4.93817e-08
4.87243e-08
4.80693e-08
4.74169e-08
4.67673e-08
4.61205e-08
4.54767e-08
4.4836e-08
4.41986e-08
4.35646e-08
4.29342e-08
4.23074e-08
4.16843e-08
4.10651e-08
4.04498e-08
3.98387e-08
3.92317e-08
3.8629e-08
3.80307e-08
3.74369e-08
3.68476e-08
3.62629e-08
3.5683e-08
3.51079e-08
3.45376e-08
3.39722e-08
3.34119e-08
3.28566e-08
3.23065e-08
3.17616e-08
3.12218e-08
3.06874e-08
3.01583e-08
2.96347e-08
2.91164e-08
2.86036e-08
2.80963e-08
2.75945e-08
2.70982e-08
2.66076e-08
2.61226e-08
2.56432e-08
2.51695e-08
2.47014e-08
2.4239e-08
2.37823e-08
2.33313e-08
2.2886e-08
2.24464e-08
2.20125e-08
2.15844e-08
2.11619e-08
2.07451e-08
2.03341e-08
1.99287e-08
1.9529e-08
1.91349e-08
1.87465e-08
1.83637e-08
1.79865e-08
1.76149e-08
1.72488e-08
1.68883e-08
1.65333e-08
1.61838e-08
1.58397e-08
1.5501e-08
1.51677e-08
1.48398e-08
1.45172e-08
1.41999e-08
1.38878e-08
1.35809e-08
1.32792e-08
1.29827e-08
1.26912e-08
1.24047e-08
1.21232e-08
1.18467e-08
1.15751e-08
1.13084e-08
1.10464e-08
1.07893e-08
1.05368e-08
1.0289e-08
1.00458e-08
9.80724e-09
9.57315e-09
9.34352e-09
9.11831e-09
8.89745e-09
8.68091e-09
8.46862e-09
8.26053e-09
8.05659e-09
7.85675e-09
7.66095e-09
7.46913e-09
7.28125e-09
7.09725e-09
6.91708e-09
6.74068e-09
6.56799e-09
6.39897e-09
6.23355e-09
6.0717e-09
5.91334e-09
5.75843e-09
5.60691e-09
5.45874e-09
5.31385e-09
5.1722e-09
5.03373e-09
4.89838e-09
4.76612e-09
4.63688e-09
4.51061e-09
4.38727e-09
4.26679e-09
4.14914e-09
4.03426e-09
3.92209e-09
3.8126e-09
3.70574e-09
3.60144e-09
3.49967e-09
3.40038e-09
3.30352e-09
3.20905e-09
3.11691e-09
3.02707e-09
2.93948e-09
2.85408e-09
2.77085e-09
2.68973e-09
2.61068e-09
2.53366e-09
2.45863e-09
2.38555e-09
2.31437e-09
2.24505e-09
2.17756e-09
2.11186e-09
2.0479e-09
1.98565e-09
1.92507e-09
1.86613e-09
1.80878e-09
1.75299e-09
1.69873e-09
1.64597e-09
1.59466e-09
1.54477e-09
1.49627e-09
1.44913e-09
1.40332e-09
1.3588e-09
1.31555e-09
1.27352e-09
1.23271e-09
1.19306e-09
1.15457e-09
1.11718e-09
1.08089e-09
1.04567e-09
1.01147e-09
9.78291e-10
9.46093e-10
9.14854e-10
8.8455e-10
8.55157e-10
8.26651e-10
7.99009e-10
7.72208e-10
7.46227e-10
7.21044e-10
6.96637e-10
6.72986e-10
6.50071e-10
6.27872e-10
6.06368e-10
5.85543e-10
5.65376e-10
5.4585e-10
5.26948e-10
5.08652e-10
4.90944e-10
4.7381e-10
4.57232e-10
4.41196e-10
4.25685e-10
4.10685e-10
3.96182e-10
3.8216e-10
3.68608e-10
3.5551e-10
3.42855e-10
3.30629e-10
3.18819e-10
3.07415e-10
2.96403e-10
2.85773e-10
2.75514e-10
2.65614e-10
2.56063e-10
2.46852e-10
2.37969e-10
2.29406e-10
2.21153e-10
2.13201e-10
2.05541e-10
1.98165e-10
1.91064e-10
1.8423e-10
1.77657e-10
1.71335e-10
1.65258e-10
1.5942e-10
1.53812e-10
1.48429e-10
1.43264e-10
1.38311e-10
1.33564e-10
1.29017e-10
1.24666e-10
1.20504e-10
1.16527e-10
1.1273e-10
1.09108e-10
1.05657e-10
1.02372e-10
9.92502e-11
9.62863e-11
9.34773e-11
9.08195e-11
8.83096e-11
8.59444e-11
8.37209e-11
8.16362e-11
7.96878e-11
7.7873e-11
7.61896e-11
7.46354e-11
7.32084e-11
7.19067e-11
7.07287e-11
6.96728e-11
6.87376e-11
6.7922e-11
6.72248e-11
6.66452e-11
6.61824e-11
6.58358e-11
6.56052e-11
6.54899e-11
1.54435e-09
4.62925e-09
7.70284e-09
1.0758e-08
1.37879e-08
1.67866e-08
1.97482e-08
2.26677e-08
2.55403e-08
2.83618e-08
3.11286e-08
3.38374e-08
3.64853e-08
3.90698e-08
4.1589e-08
4.40411e-08
4.64247e-08
4.87389e-08
5.09829e-08
5.31562e-08
5.52588e-08
5.72904e-08
5.92515e-08
6.11425e-08
6.29638e-08
6.47162e-08
6.64007e-08
6.80181e-08
6.95695e-08
7.10561e-08
7.2479e-08
7.38396e-08
7.51392e-08
7.63791e-08
7.75606e-08
7.86853e-08
7.97543e-08
8.07692e-08
8.17314e-08
8.26422e-08
8.3503e-08
8.43151e-08
8.508e-08
8.57988e-08
8.64729e-08
8.71035e-08
8.76919e-08
8.82392e-08
8.87467e-08
8.92154e-08
8.96465e-08
9.00411e-08
9.04001e-08
9.07247e-08
9.10157e-08
9.12741e-08
9.1501e-08
9.1697e-08
9.18632e-08
9.20003e-08
9.21092e-08
9.21906e-08
9.22454e-08
9.22742e-08
9.22777e-08
9.22567e-08
9.22118e-08
9.21437e-08
9.20529e-08
9.19402e-08
9.18061e-08
9.16512e-08
9.1476e-08
9.12812e-08
9.10671e-08
9.08344e-08
9.05835e-08
9.0315e-08
9.00293e-08
8.97269e-08
8.94082e-08
8.90737e-08
8.87238e-08
8.8359e-08
8.79797e-08
8.75863e-08
8.71792e-08
8.67587e-08
8.63254e-08
8.58794e-08
8.54214e-08
8.49515e-08
8.44702e-08
8.39779e-08
8.34748e-08
8.29613e-08
8.24378e-08
8.19047e-08
8.13621e-08
8.08106e-08
8.02503e-08
7.96816e-08
7.91049e-08
7.85204e-08
7.79285e-08
7.73294e-08
7.67234e-08
7.61109e-08
7.54922e-08
7.48675e-08
7.42371e-08
7.36013e-08
7.29603e-08
7.23146e-08
7.16642e-08
7.10096e-08
7.03509e-08
6.96885e-08
6.90225e-08
6.83533e-08
6.7681e-08
6.7006e-08
6.63285e-08
6.56488e-08
6.4967e-08
6.42834e-08
6.35982e-08
6.29117e-08
6.22241e-08
6.15356e-08
6.08464e-08
6.01568e-08
5.94669e-08
5.8777e-08
5.80872e-08
5.73979e-08
5.6709e-08
5.6021e-08
5.53339e-08
5.46479e-08
5.39633e-08
5.32801e-08
5.25986e-08
5.1919e-08
5.12413e-08
5.05658e-08
4.98927e-08
4.92221e-08
4.8554e-08
4.78888e-08
4.72265e-08
4.65673e-08
4.59113e-08
4.52587e-08
4.46095e-08
4.39639e-08
4.33221e-08
4.26841e-08
4.205e-08
4.142e-08
4.07942e-08
4.01727e-08
3.95556e-08
3.89429e-08
3.83349e-08
3.77314e-08
3.71328e-08
3.65389e-08
3.595e-08
3.5366e-08
3.47871e-08
3.42134e-08
3.36448e-08
3.30815e-08
3.25234e-08
3.19708e-08
3.14235e-08
3.08818e-08
3.03455e-08
2.98148e-08
2.92897e-08
2.87702e-08
2.82564e-08
2.77483e-08
2.72459e-08
2.67492e-08
2.62583e-08
2.57732e-08
2.52939e-08
2.48204e-08
2.43528e-08
2.3891e-08
2.3435e-08
2.29849e-08
2.25406e-08
2.21021e-08
2.16696e-08
2.12428e-08
2.08219e-08
2.04068e-08
1.99974e-08
1.95939e-08
1.91962e-08
1.88042e-08
1.8418e-08
1.80374e-08
1.76626e-08
1.72934e-08
1.69299e-08
1.6572e-08
1.62197e-08
1.58729e-08
1.55316e-08
1.51958e-08
1.48655e-08
1.45405e-08
1.4221e-08
1.39067e-08
1.35978e-08
1.32941e-08
1.29956e-08
1.27023e-08
1.24141e-08
1.21309e-08
1.18528e-08
1.15796e-08
1.13114e-08
1.10481e-08
1.07896e-08
1.05358e-08
1.02868e-08
1.00425e-08
9.80279e-09
9.56766e-09
9.33704e-09
9.11089e-09
8.88915e-09
8.67177e-09
8.45869e-09
8.24986e-09
8.04522e-09
7.84472e-09
7.64831e-09
7.45592e-09
7.26751e-09
7.08301e-09
6.90238e-09
6.72555e-09
6.55247e-09
6.38309e-09
6.21735e-09
6.05519e-09
5.89657e-09
5.74142e-09
5.58969e-09
5.44132e-09
5.29627e-09
5.15448e-09
5.01589e-09
4.88045e-09
4.74811e-09
4.61881e-09
4.49251e-09
4.36915e-09
4.24867e-09
4.13103e-09
4.01618e-09
3.90406e-09
3.79463e-09
3.68783e-09
3.58363e-09
3.48195e-09
3.38277e-09
3.28603e-09
3.19168e-09
3.09969e-09
3.00999e-09
2.92255e-09
2.83732e-09
2.75425e-09
2.67331e-09
2.59444e-09
2.51761e-09
2.44277e-09
2.36989e-09
2.29891e-09
2.2298e-09
2.16252e-09
2.09703e-09
2.03328e-09
1.97125e-09
1.91089e-09
1.85217e-09
1.79505e-09
1.73948e-09
1.68545e-09
1.63291e-09
1.58182e-09
1.53216e-09
1.48389e-09
1.43698e-09
1.3914e-09
1.3471e-09
1.30407e-09
1.26228e-09
1.22168e-09
1.18226e-09
1.14398e-09
1.10682e-09
1.07075e-09
1.03574e-09
1.00176e-09
9.68788e-10
9.36799e-10
9.05769e-10
8.7567e-10
8.46481e-10
8.18176e-10
7.90732e-10
7.64128e-10
7.38341e-10
7.13348e-10
6.8913e-10
6.65665e-10
6.42933e-10
6.20914e-10
5.99589e-10
5.78938e-10
5.58944e-10
5.39588e-10
5.20853e-10
5.02721e-10
4.85176e-10
4.682e-10
4.51779e-10
4.35896e-10
4.20536e-10
4.05685e-10
3.91328e-10
3.7745e-10
3.64038e-10
3.51079e-10
3.3856e-10
3.26467e-10
3.14789e-10
3.03513e-10
2.92628e-10
2.82123e-10
2.71985e-10
2.62206e-10
2.52773e-10
2.43677e-10
2.34909e-10
2.26458e-10
2.18315e-10
2.10471e-10
2.02918e-10
1.95647e-10
1.8865e-10
1.81918e-10
1.75445e-10
1.69223e-10
1.63244e-10
1.57502e-10
1.51989e-10
1.467e-10
1.41628e-10
1.36767e-10
1.32112e-10
1.27656e-10
1.23395e-10
1.19322e-10
1.15434e-10
1.11726e-10
1.08192e-10
1.04828e-10
1.01631e-10
9.8596e-11
9.57196e-11
9.2998e-11
9.04279e-11
8.8006e-11
8.57291e-11
8.35945e-11
8.15993e-11
7.9741e-11
7.80172e-11
7.64257e-11
7.49645e-11
7.36316e-11
7.24253e-11
7.13441e-11
7.03865e-11
6.95513e-11
6.88373e-11
6.82438e-11
6.77698e-11
6.7415e-11
6.71788e-11
6.70608e-11
1.557e-09
4.66743e-09
7.76727e-09
1.08497e-08
1.39083e-08
1.6937e-08
1.99302e-08
2.28827e-08
2.57898e-08
2.86474e-08
3.14514e-08
3.41987e-08
3.68861e-08
3.95112e-08
4.20717e-08
4.45657e-08
4.69919e-08
4.93491e-08
5.16363e-08
5.38529e-08
5.59988e-08
5.80736e-08
6.00777e-08
6.20111e-08
6.38746e-08
6.56686e-08
6.73939e-08
6.90514e-08
7.06422e-08
7.21673e-08
7.36278e-08
7.5025e-08
7.63602e-08
7.76346e-08
7.88496e-08
8.00065e-08
8.11068e-08
8.21518e-08
8.31429e-08
8.40815e-08
8.4969e-08
8.58066e-08
8.65958e-08
8.73378e-08
8.8034e-08
8.86857e-08
8.9294e-08
8.98602e-08
9.03855e-08
9.0871e-08
9.13178e-08
9.17271e-08
9.21e-08
9.24374e-08
9.27403e-08
9.30098e-08
9.32467e-08
9.34521e-08
9.36267e-08
9.37715e-08
9.38872e-08
9.39747e-08
9.40348e-08
9.40682e-08
9.40757e-08
9.40579e-08
9.40156e-08
9.39494e-08
9.386e-08
9.3748e-08
9.36141e-08
9.34587e-08
9.32826e-08
9.30862e-08
9.28701e-08
9.26349e-08
9.2381e-08
9.2109e-08
9.18194e-08
9.15126e-08
9.11891e-08
9.08495e-08
9.0494e-08
9.01232e-08
8.97376e-08
8.93374e-08
8.89233e-08
8.84954e-08
8.80544e-08
8.76004e-08
8.7134e-08
8.66556e-08
8.61654e-08
8.56638e-08
8.51513e-08
8.46282e-08
8.40948e-08
8.35514e-08
8.29985e-08
8.24363e-08
8.18653e-08
8.12856e-08
8.06976e-08
8.01018e-08
7.94982e-08
7.88874e-08
7.82696e-08
7.7645e-08
7.70141e-08
7.6377e-08
7.57342e-08
7.50858e-08
7.44321e-08
7.37735e-08
7.31103e-08
7.24426e-08
7.17708e-08
7.10951e-08
7.04159e-08
6.97333e-08
6.90476e-08
6.83591e-08
6.7668e-08
6.69746e-08
6.62791e-08
6.55818e-08
6.48829e-08
6.41826e-08
6.34811e-08
6.27788e-08
6.20758e-08
6.13723e-08
6.06685e-08
5.99647e-08
5.92611e-08
5.85578e-08
5.78551e-08
5.71532e-08
5.64522e-08
5.57524e-08
5.5054e-08
5.4357e-08
5.36618e-08
5.29684e-08
5.22771e-08
5.1588e-08
5.09013e-08
5.02171e-08
4.95356e-08
4.8857e-08
4.81813e-08
4.75088e-08
4.68395e-08
4.61737e-08
4.55114e-08
4.48528e-08
4.4198e-08
4.35471e-08
4.29002e-08
4.22575e-08
4.16191e-08
4.0985e-08
4.03554e-08
3.97303e-08
3.911e-08
3.84944e-08
3.78836e-08
3.72777e-08
3.66769e-08
3.60811e-08
3.54905e-08
3.49052e-08
3.43251e-08
3.37504e-08
3.31811e-08
3.26173e-08
3.2059e-08
3.15062e-08
3.09591e-08
3.04177e-08
2.9882e-08
2.9352e-08
2.88278e-08
2.83094e-08
2.77968e-08
2.72901e-08
2.67893e-08
2.62944e-08
2.58054e-08
2.53224e-08
2.48452e-08
2.43741e-08
2.39089e-08
2.34497e-08
2.29964e-08
2.25491e-08
2.21078e-08
2.16724e-08
2.12429e-08
2.08194e-08
2.04018e-08
1.99902e-08
1.95844e-08
1.91845e-08
1.87904e-08
1.84022e-08
1.80198e-08
1.76431e-08
1.72723e-08
1.69071e-08
1.65477e-08
1.61939e-08
1.58457e-08
1.55031e-08
1.51661e-08
1.48346e-08
1.45085e-08
1.4188e-08
1.38728e-08
1.35629e-08
1.32584e-08
1.29591e-08
1.26651e-08
1.23762e-08
1.20925e-08
1.18138e-08
1.15402e-08
1.12715e-08
1.10078e-08
1.07489e-08
1.04948e-08
1.02456e-08
1.0001e-08
9.76114e-09
9.52586e-09
9.29513e-09
9.06891e-09
8.84713e-09
8.62974e-09
8.41669e-09
8.20791e-09
8.00336e-09
7.80297e-09
7.60669e-09
7.41447e-09
7.22624e-09
7.04195e-09
6.86155e-09
6.68497e-09
6.51217e-09
6.34307e-09
6.17764e-09
6.0158e-09
5.85752e-09
5.70272e-09
5.55136e-09
5.40337e-09
5.25871e-09
5.11732e-09
4.97914e-09
4.84412e-09
4.71221e-09
4.58336e-09
4.4575e-09
4.33459e-09
4.21457e-09
4.09739e-09
3.98301e-09
3.87136e-09
3.76241e-09
3.65609e-09
3.55236e-09
3.45118e-09
3.35248e-09
3.25623e-09
3.16237e-09
3.07086e-09
2.98165e-09
2.89469e-09
2.80995e-09
2.72737e-09
2.64691e-09
2.56852e-09
2.49217e-09
2.41781e-09
2.3454e-09
2.27489e-09
2.20625e-09
2.13943e-09
2.0744e-09
2.01111e-09
1.94953e-09
1.88962e-09
1.83134e-09
1.77466e-09
1.71953e-09
1.66593e-09
1.61381e-09
1.56315e-09
1.5139e-09
1.46604e-09
1.41953e-09
1.37434e-09
1.33044e-09
1.2878e-09
1.24639e-09
1.20617e-09
1.16712e-09
1.1292e-09
1.0924e-09
1.05668e-09
1.02201e-09
9.88378e-10
9.55743e-10
9.24084e-10
8.93378e-10
8.63597e-10
8.3472e-10
8.06722e-10
7.7958e-10
7.53271e-10
7.27773e-10
7.03065e-10
6.79126e-10
6.55934e-10
6.3347e-10
6.11713e-10
5.90645e-10
5.70247e-10
5.505e-10
5.31385e-10
5.12887e-10
4.94986e-10
4.77668e-10
4.60914e-10
4.4471e-10
4.2904e-10
4.13889e-10
3.99241e-10
3.85082e-10
3.714e-10
3.58178e-10
3.45406e-10
3.33069e-10
3.21154e-10
3.0965e-10
2.98545e-10
2.87827e-10
2.77485e-10
2.67508e-10
2.57884e-10
2.48605e-10
2.39659e-10
2.31037e-10
2.22729e-10
2.14727e-10
2.07021e-10
1.99603e-10
1.92464e-10
1.85597e-10
1.78993e-10
1.72644e-10
1.66545e-10
1.60686e-10
1.55062e-10
1.49667e-10
1.44492e-10
1.39533e-10
1.34783e-10
1.30238e-10
1.2589e-10
1.21735e-10
1.17768e-10
1.13985e-10
1.10379e-10
1.06948e-10
1.03686e-10
1.0059e-10
9.76551e-11
9.48785e-11
9.22564e-11
8.97855e-11
8.74626e-11
8.52848e-11
8.32493e-11
8.13534e-11
7.95948e-11
7.79711e-11
7.64803e-11
7.51205e-11
7.38898e-11
7.27867e-11
7.18097e-11
7.09576e-11
7.02292e-11
6.96237e-11
6.91401e-11
6.87781e-11
6.85371e-11
6.84167e-11
1.5679e-09
4.70032e-09
7.82264e-09
1.09283e-08
1.40112e-08
1.70652e-08
2.00849e-08
2.30651e-08
2.60012e-08
2.88887e-08
3.17239e-08
3.45033e-08
3.72237e-08
3.98825e-08
4.24775e-08
4.50066e-08
4.74682e-08
4.98612e-08
5.21844e-08
5.44372e-08
5.66192e-08
5.87301e-08
6.07699e-08
6.27389e-08
6.46375e-08
6.64662e-08
6.82257e-08
6.99168e-08
7.15405e-08
7.30977e-08
7.45897e-08
7.60175e-08
7.73824e-08
7.86857e-08
7.99287e-08
8.11128e-08
8.22392e-08
8.33094e-08
8.43248e-08
8.52867e-08
8.61965e-08
8.70555e-08
8.78651e-08
8.86267e-08
8.93415e-08
9.00107e-08
9.06358e-08
9.12178e-08
9.1758e-08
9.22576e-08
9.27177e-08
9.31395e-08
9.35239e-08
9.38721e-08
9.41851e-08
9.44638e-08
9.47093e-08
9.49225e-08
9.51042e-08
9.52554e-08
9.53769e-08
9.54696e-08
9.55342e-08
9.55715e-08
9.55823e-08
9.55672e-08
9.55271e-08
9.54626e-08
9.53743e-08
9.5263e-08
9.51291e-08
9.49735e-08
9.47965e-08
9.45989e-08
9.43811e-08
9.41438e-08
9.38874e-08
9.36126e-08
9.33197e-08
9.30092e-08
9.26818e-08
9.23378e-08
9.19776e-08
9.16019e-08
9.12109e-08
9.08052e-08
9.03851e-08
8.99511e-08
8.95035e-08
8.90429e-08
8.85695e-08
8.80839e-08
8.75862e-08
8.7077e-08
8.65566e-08
8.60253e-08
8.54836e-08
8.49318e-08
8.43701e-08
8.37991e-08
8.32189e-08
8.263e-08
8.20327e-08
8.14273e-08
8.08141e-08
8.01934e-08
7.95656e-08
7.8931e-08
7.82898e-08
7.76424e-08
7.69891e-08
7.63302e-08
7.56659e-08
7.49965e-08
7.43224e-08
7.36438e-08
7.2961e-08
7.22743e-08
7.15838e-08
7.089e-08
7.01931e-08
6.94932e-08
6.87908e-08
6.8086e-08
6.7379e-08
6.66702e-08
6.59598e-08
6.52479e-08
6.45349e-08
6.38209e-08
6.31063e-08
6.23912e-08
6.16758e-08
6.09603e-08
6.0245e-08
5.95302e-08
5.88158e-08
5.81023e-08
5.73897e-08
5.66783e-08
5.59683e-08
5.52598e-08
5.4553e-08
5.38482e-08
5.31454e-08
5.24449e-08
5.17468e-08
5.10512e-08
5.03584e-08
4.96685e-08
4.89816e-08
4.8298e-08
4.76176e-08
4.69407e-08
4.62674e-08
4.55979e-08
4.49322e-08
4.42705e-08
4.36129e-08
4.29595e-08
4.23105e-08
4.16659e-08
4.10258e-08
4.03904e-08
3.97597e-08
3.91339e-08
3.8513e-08
3.78971e-08
3.72863e-08
3.66806e-08
3.60802e-08
3.54851e-08
3.48954e-08
3.43111e-08
3.37324e-08
3.31592e-08
3.25916e-08
3.20297e-08
3.14735e-08
3.09231e-08
3.03785e-08
2.98397e-08
2.93068e-08
2.87798e-08
2.82587e-08
2.77436e-08
2.72344e-08
2.67313e-08
2.62342e-08
2.57431e-08
2.52581e-08
2.47791e-08
2.43061e-08
2.38393e-08
2.33785e-08
2.29238e-08
2.24751e-08
2.20325e-08
2.15959e-08
2.11653e-08
2.07408e-08
2.03223e-08
1.99098e-08
1.95032e-08
1.91026e-08
1.8708e-08
1.83192e-08
1.79363e-08
1.75593e-08
1.7188e-08
1.68226e-08
1.64629e-08
1.6109e-08
1.57607e-08
1.54181e-08
1.50811e-08
1.47496e-08
1.44237e-08
1.41033e-08
1.37883e-08
1.34787e-08
1.31745e-08
1.28755e-08
1.25819e-08
1.22934e-08
1.20101e-08
1.17319e-08
1.14588e-08
1.11907e-08
1.09275e-08
1.06692e-08
1.04158e-08
1.01672e-08
9.92332e-09
9.68413e-09
9.44957e-09
9.21959e-09
8.99413e-09
8.77313e-09
8.55653e-09
8.34429e-09
8.13634e-09
7.93262e-09
7.73308e-09
7.53766e-09
7.34631e-09
7.15896e-09
6.97556e-09
6.79605e-09
6.62037e-09
6.44846e-09
6.28028e-09
6.11576e-09
5.95484e-09
5.79747e-09
5.64359e-09
5.49315e-09
5.34609e-09
5.20234e-09
5.06187e-09
4.92461e-09
4.79051e-09
4.65951e-09
4.53156e-09
4.4066e-09
4.28459e-09
4.16547e-09
4.04919e-09
3.93569e-09
3.82492e-09
3.71684e-09
3.61139e-09
3.50852e-09
3.40818e-09
3.31033e-09
3.21491e-09
3.12188e-09
3.03119e-09
2.94279e-09
2.85663e-09
2.77268e-09
2.69089e-09
2.6112e-09
2.53358e-09
2.45798e-09
2.38437e-09
2.31269e-09
2.2429e-09
2.17498e-09
2.10887e-09
2.04453e-09
1.98192e-09
1.92102e-09
1.86177e-09
1.80414e-09
1.7481e-09
1.69361e-09
1.64062e-09
1.58912e-09
1.53905e-09
1.4904e-09
1.44312e-09
1.39718e-09
1.35255e-09
1.3092e-09
1.2671e-09
1.22621e-09
1.18651e-09
1.14797e-09
1.11055e-09
1.07424e-09
1.039e-09
1.0048e-09
9.71622e-10
9.39438e-10
9.08221e-10
8.77946e-10
8.48589e-10
8.20125e-10
7.92532e-10
7.65786e-10
7.39865e-10
7.14746e-10
6.90409e-10
6.66832e-10
6.43995e-10
6.21877e-10
6.00459e-10
5.79721e-10
5.59646e-10
5.40214e-10
5.21408e-10
5.0321e-10
4.85604e-10
4.68572e-10
4.52099e-10
4.36168e-10
4.20765e-10
4.05874e-10
3.9148e-10
3.7757e-10
3.64129e-10
3.51145e-10
3.38602e-10
3.2649e-10
3.14795e-10
3.03506e-10
2.92609e-10
2.82095e-10
2.71952e-10
2.62169e-10
2.52735e-10
2.43641e-10
2.34875e-10
2.2643e-10
2.18295e-10
2.10461e-10
2.02919e-10
1.95662e-10
1.8868e-10
1.81967e-10
1.75513e-10
1.69312e-10
1.63356e-10
1.57639e-10
1.52153e-10
1.46893e-10
1.41851e-10
1.37023e-10
1.32401e-10
1.27982e-10
1.23758e-10
1.19725e-10
1.15879e-10
1.12213e-10
1.08725e-10
1.05409e-10
1.02261e-10
9.92776e-11
9.64549e-11
9.37892e-11
9.12772e-11
8.89158e-11
8.67018e-11
8.46324e-11
8.2705e-11
8.09172e-11
7.92666e-11
7.7751e-11
7.63686e-11
7.51174e-11
7.3996e-11
7.30028e-11
7.21365e-11
7.1396e-11
7.07804e-11
7.02888e-11
6.99207e-11
6.96757e-11
6.95533e-11
1.57685e-09
4.72728e-09
7.86798e-09
1.09926e-08
1.40951e-08
1.71696e-08
2.02107e-08
2.32132e-08
2.61725e-08
2.90841e-08
3.19442e-08
3.47492e-08
3.74961e-08
4.01819e-08
4.28044e-08
4.53616e-08
4.78516e-08
5.02732e-08
5.26253e-08
5.4907e-08
5.71179e-08
5.92576e-08
6.13262e-08
6.33237e-08
6.52504e-08
6.71069e-08
6.88938e-08
7.06118e-08
7.22619e-08
7.38449e-08
7.53621e-08
7.68145e-08
7.82033e-08
7.95298e-08
8.07953e-08
8.20012e-08
8.31486e-08
8.42391e-08
8.5274e-08
8.62546e-08
8.71823e-08
8.80586e-08
8.88847e-08
8.96619e-08
9.03916e-08
9.10751e-08
9.17136e-08
9.23084e-08
9.28606e-08
9.33716e-08
9.38423e-08
9.42741e-08
9.46678e-08
9.50247e-08
9.53458e-08
9.5632e-08
9.58844e-08
9.61039e-08
9.62914e-08
9.64478e-08
9.65739e-08
9.66708e-08
9.6739e-08
9.67795e-08
9.67929e-08
9.67801e-08
9.67418e-08