/*--------------------------------*- C++ -*----------------------------------*\
  =========                 |
  \\      /  F ield         | OpenFOAM: The Open Source CFD Toolbox
   \\    /   O peration     | Website:  https://openfoam.org
    \\  /    A nd           | Version:  10
     \\/     M anipulation  |
\*---------------------------------------------------------------------------*/
FoamFile
{
    format      ascii;
    class       volScalarField;
    location    "0.98";
    object      Exp1;
}
// * * * * * * * * * * * * * * * * * * * * * * * * * * * * * * * * * * * * * //

dimensions      [0 0 0 0 0 0 0];

internalField   uniform 0;

boundaryField
{
    frontAndBack
    {
        type            empty;
    }
    inlet
    {
        type            calculated;
        value           uniform 0;
    }
    outlet
    {
        type            calculated;
        value           uniform 0;
    }
    substrate
    {
        type            calculated;
        value           nonuniform List<scalar> 
400
(
8.24319e-17
2.46865e-16
4.10298e-16
5.72292e-16
7.3247e-16
8.90501e-16
1.0461e-15
1.199e-15
1.349e-15
1.49591e-15
1.63955e-15
1.77981e-15
1.91657e-15
2.04975e-15
2.17928e-15
2.30513e-15
2.42726e-15
2.54567e-15
2.66037e-15
2.77137e-15
2.8787e-15
2.98242e-15
3.08256e-15
3.17919e-15
3.27237e-15
3.36218e-15
3.44868e-15
3.53196e-15
3.61209e-15
3.68916e-15
3.76326e-15
3.83447e-15
3.90287e-15
3.96856e-15
4.0316e-15
4.0921e-15
4.15013e-15
4.20576e-15
4.25909e-15
4.31018e-15
4.35912e-15
4.40598e-15
4.45082e-15
4.49372e-15
4.53474e-15
4.57394e-15
4.6114e-15
4.64717e-15
4.6813e-15
4.71386e-15
4.74489e-15
4.77444e-15
4.80258e-15
4.82933e-15
4.85475e-15
4.87888e-15
4.90177e-15
4.92344e-15
4.94395e-15
4.96332e-15
4.98159e-15
4.99879e-15
5.01496e-15
5.03012e-15
5.04431e-15
5.05755e-15
5.06986e-15
5.08128e-15
5.09182e-15
5.10152e-15
5.11038e-15
5.11844e-15
5.12571e-15
5.13222e-15
5.13797e-15
5.14299e-15
5.1473e-15
5.15091e-15
5.15384e-15
5.1561e-15
5.1577e-15
5.15867e-15
5.15901e-15
5.15873e-15
5.15785e-15
5.15639e-15
5.15434e-15
5.15173e-15
5.14857e-15
5.14485e-15
5.1406e-15
5.13583e-15
5.13053e-15
5.12473e-15
5.11843e-15
5.11164e-15
5.10436e-15
5.09661e-15
5.0884e-15
5.07973e-15
5.0706e-15
5.06104e-15
5.05104e-15
5.0406e-15
5.02975e-15
5.01848e-15
5.0068e-15
4.99473e-15
4.98225e-15
4.96939e-15
4.95614e-15
4.94252e-15
4.92853e-15
4.91418e-15
4.89947e-15
4.8844e-15
4.86899e-15
4.85324e-15
4.83716e-15
4.82075e-15
4.80401e-15
4.78696e-15
4.7696e-15
4.75193e-15
4.73397e-15
4.7157e-15
4.69715e-15
4.67832e-15
4.6592e-15
4.63982e-15
4.62017e-15
4.60025e-15
4.58008e-15
4.55966e-15
4.53899e-15
4.51809e-15
4.49694e-15
4.47557e-15
4.45397e-15
4.43216e-15
4.41013e-15
4.38789e-15
4.36544e-15
4.3428e-15
4.31996e-15
4.29694e-15
4.27373e-15
4.25034e-15
4.22678e-15
4.20305e-15
4.17916e-15
4.15511e-15
4.13091e-15
4.10656e-15
4.08206e-15
4.05743e-15
4.03266e-15
4.00776e-15
3.98274e-15
3.9576e-15
3.93235e-15
3.90698e-15
3.88151e-15
3.85594e-15
3.83027e-15
3.80452e-15
3.77867e-15
3.75275e-15
3.72674e-15
3.70067e-15
3.67452e-15
3.64831e-15
3.62205e-15
3.59572e-15
3.56935e-15
3.54293e-15
3.51646e-15
3.48996e-15
3.46343e-15
3.43686e-15
3.41027e-15
3.38366e-15
3.35703e-15
3.33039e-15
3.30374e-15
3.27708e-15
3.25042e-15
3.22377e-15
3.19711e-15
3.17047e-15
3.14385e-15
3.11724e-15
3.09065e-15
3.06408e-15
3.03754e-15
3.01104e-15
2.98457e-15
2.95814e-15
2.93174e-15
2.9054e-15
2.8791e-15
2.85286e-15
2.82667e-15
2.80053e-15
2.77446e-15
2.74845e-15
2.72251e-15
2.69664e-15
2.67084e-15
2.64512e-15
2.61947e-15
2.59391e-15
2.56843e-15
2.54304e-15
2.51774e-15
2.49252e-15
2.46741e-15
2.44239e-15
2.41747e-15
2.39265e-15
2.36793e-15
2.34332e-15
2.31882e-15
2.29443e-15
2.27015e-15
2.24599e-15
2.22194e-15
2.19801e-15
2.17421e-15
2.15052e-15
2.12696e-15
2.10353e-15
2.08022e-15
2.05705e-15
2.034e-15
2.01109e-15
1.98831e-15
1.96567e-15
1.94317e-15
1.9208e-15
1.89858e-15
1.8765e-15
1.85456e-15
1.83276e-15
1.81111e-15
1.78961e-15
1.76825e-15
1.74704e-15
1.72599e-15
1.70508e-15
1.68433e-15
1.66372e-15
1.64328e-15
1.62298e-15
1.60284e-15
1.58286e-15
1.56304e-15
1.54337e-15
1.52386e-15
1.5045e-15
1.48531e-15
1.46628e-15
1.44741e-15
1.42869e-15
1.41014e-15
1.39175e-15
1.37352e-15
1.35546e-15
1.33756e-15
1.31981e-15
1.30224e-15
1.28482e-15
1.26757e-15
1.25048e-15
1.23356e-15
1.2168e-15
1.2002e-15
1.18377e-15
1.1675e-15
1.15139e-15
1.13545e-15
1.11967e-15
1.10405e-15
1.0886e-15
1.07331e-15
1.05818e-15
1.04322e-15
1.02842e-15
1.01378e-15
9.99298e-16
9.84981e-16
9.70826e-16
9.56831e-16
9.42997e-16
9.29323e-16
9.15809e-16
9.02454e-16
8.89258e-16
8.76221e-16
8.63341e-16
8.50619e-16
8.38054e-16
8.25646e-16
8.13393e-16
8.01296e-16
7.89354e-16
7.77566e-16
7.65931e-16
7.5445e-16
7.43122e-16
7.31945e-16
7.2092e-16
7.10045e-16
6.99321e-16
6.88746e-16
6.7832e-16
6.68042e-16
6.57911e-16
6.47927e-16
6.38089e-16
6.28397e-16
6.1885e-16
6.09446e-16
6.00186e-16
5.91069e-16
5.82093e-16
5.73259e-16
5.64565e-16
5.56011e-16
5.47597e-16
5.39321e-16
5.31182e-16
5.23181e-16
5.15316e-16
5.07586e-16
4.99992e-16
4.92531e-16
4.85204e-16
4.7801e-16
4.70948e-16
4.64018e-16
4.57218e-16
4.50548e-16
4.44008e-16
4.37596e-16
4.31312e-16
4.25156e-16
4.19126e-16
4.13223e-16
4.07445e-16
4.01791e-16
3.96262e-16
3.90856e-16
3.85573e-16
3.80413e-16
3.75374e-16
3.70456e-16
3.65659e-16
3.60982e-16
3.56424e-16
3.51985e-16
3.47664e-16
3.43461e-16
3.39375e-16
3.35406e-16
3.31553e-16
3.27816e-16
3.24194e-16
3.20687e-16
3.17295e-16
3.14016e-16
3.1085e-16
3.07798e-16
3.04859e-16
3.02031e-16
2.99316e-16
2.96712e-16
2.94219e-16
2.91837e-16
2.89566e-16
2.87404e-16
2.85353e-16
2.83411e-16
2.81579e-16
2.79856e-16
2.78241e-16
2.76735e-16
2.75338e-16
2.74049e-16
2.72868e-16
2.71795e-16
2.70829e-16
2.69971e-16
2.69221e-16
2.68578e-16
2.68042e-16
2.67614e-16
2.67292e-16
2.67078e-16
2.66971e-16
)
;
    }
    Wall
    {
        type            calculated;
        value           nonuniform List<scalar> 
400
(
8.24321e-17
2.46865e-16
4.10299e-16
5.72293e-16
7.32471e-16
8.90502e-16
1.0461e-15
1.19901e-15
1.34901e-15
1.49591e-15
1.63955e-15
1.77981e-15
1.91657e-15
2.04975e-15
2.17928e-15
2.30513e-15
2.42726e-15
2.54567e-15
2.66037e-15
2.77137e-15
2.8787e-15
2.98242e-15
3.08256e-15
3.17919e-15
3.27237e-15
3.36217e-15
3.44868e-15
3.53195e-15
3.61209e-15
3.68916e-15
3.76326e-15
3.83447e-15
3.90287e-15
3.96855e-15
4.0316e-15
4.0921e-15
4.15012e-15
4.20576e-15
4.25909e-15
4.31018e-15
4.35912e-15
4.40597e-15
4.45081e-15
4.49371e-15
4.53473e-15
4.57394e-15
4.6114e-15
4.64716e-15
4.68129e-15
4.71385e-15
4.74488e-15
4.77443e-15
4.80257e-15
4.82932e-15
4.85474e-15
4.87887e-15
4.90176e-15
4.92343e-15
4.94394e-15
4.96331e-15
4.98158e-15
4.99878e-15
5.01495e-15
5.03011e-15
5.0443e-15
5.05753e-15
5.06985e-15
5.08127e-15
5.09181e-15
5.1015e-15
5.11037e-15
5.11843e-15
5.1257e-15
5.1322e-15
5.13796e-15
5.14298e-15
5.14729e-15
5.1509e-15
5.15382e-15
5.15608e-15
5.15769e-15
5.15865e-15
5.15899e-15
5.15872e-15
5.15784e-15
5.15637e-15
5.15433e-15
5.15172e-15
5.14855e-15
5.14484e-15
5.14059e-15
5.13581e-15
5.13052e-15
5.12471e-15
5.11841e-15
5.11162e-15
5.10435e-15
5.0966e-15
5.08838e-15
5.07971e-15
5.07059e-15
5.06102e-15
5.05102e-15
5.04059e-15
5.02973e-15
5.01847e-15
5.00679e-15
4.99471e-15
4.98224e-15
4.96937e-15
4.95613e-15
4.94251e-15
4.92852e-15
4.91416e-15
4.89945e-15
4.88439e-15
4.86898e-15
4.85323e-15
4.83714e-15
4.82073e-15
4.804e-15
4.78695e-15
4.76959e-15
4.75192e-15
4.73395e-15
4.71569e-15
4.69714e-15
4.6783e-15
4.65919e-15
4.6398e-15
4.62015e-15
4.60024e-15
4.58007e-15
4.55965e-15
4.53898e-15
4.51807e-15
4.49693e-15
4.47556e-15
4.45396e-15
4.43214e-15
4.41011e-15
4.38787e-15
4.36543e-15
4.34279e-15
4.31995e-15
4.29692e-15
4.27372e-15
4.25033e-15
4.22677e-15
4.20304e-15
4.17915e-15
4.1551e-15
4.1309e-15
4.10654e-15
4.08205e-15
4.05741e-15
4.03265e-15
4.00775e-15
3.98273e-15
3.95759e-15
3.93233e-15
3.90697e-15
3.8815e-15
3.85593e-15
3.83026e-15
3.8045e-15
3.77866e-15
3.75273e-15
3.72673e-15
3.70066e-15
3.67451e-15
3.6483e-15
3.62203e-15
3.59571e-15
3.56934e-15
3.54292e-15
3.51645e-15
3.48995e-15
3.46342e-15
3.43685e-15
3.41026e-15
3.38365e-15
3.35702e-15
3.33038e-15
3.30373e-15
3.27707e-15
3.25041e-15
3.22375e-15
3.1971e-15
3.17046e-15
3.14383e-15
3.11722e-15
3.09064e-15
3.06407e-15
3.03753e-15
3.01103e-15
2.98456e-15
2.95813e-15
2.93173e-15
2.90539e-15
2.87909e-15
2.85285e-15
2.82666e-15
2.80052e-15
2.77445e-15
2.74844e-15
2.7225e-15
2.69663e-15
2.67083e-15
2.64511e-15
2.61946e-15
2.5939e-15
2.56842e-15
2.54303e-15
2.51773e-15
2.49252e-15
2.4674e-15
2.44238e-15
2.41746e-15
2.39264e-15
2.36792e-15
2.34331e-15
2.31881e-15
2.29442e-15
2.27014e-15
2.24598e-15
2.22193e-15
2.198e-15
2.1742e-15
2.15051e-15
2.12695e-15
2.10352e-15
2.08021e-15
2.05704e-15
2.03399e-15
2.01108e-15
1.9883e-15
1.96566e-15
1.94316e-15
1.9208e-15
1.89857e-15
1.87649e-15
1.85455e-15
1.83275e-15
1.8111e-15
1.7896e-15
1.76824e-15
1.74704e-15
1.72598e-15
1.70507e-15
1.68432e-15
1.66372e-15
1.64327e-15
1.62298e-15
1.60284e-15
1.58286e-15
1.56303e-15
1.54336e-15
1.52385e-15
1.5045e-15
1.48531e-15
1.46627e-15
1.4474e-15
1.42869e-15
1.41014e-15
1.39175e-15
1.37352e-15
1.35545e-15
1.33755e-15
1.31981e-15
1.30223e-15
1.28482e-15
1.26757e-15
1.25048e-15
1.23355e-15
1.21679e-15
1.2002e-15
1.18376e-15
1.16749e-15
1.15139e-15
1.13544e-15
1.11966e-15
1.10405e-15
1.0886e-15
1.07331e-15
1.05818e-15
1.04321e-15
1.02841e-15
1.01377e-15
9.99294e-16
9.84978e-16
9.70822e-16
9.56828e-16
9.42994e-16
9.2932e-16
9.15806e-16
9.02451e-16
8.89255e-16
8.76218e-16
8.63338e-16
8.50616e-16
8.38051e-16
8.25643e-16
8.1339e-16
8.01293e-16
7.89351e-16
7.77563e-16
7.65929e-16
7.54447e-16
7.43119e-16
7.31942e-16
7.20917e-16
7.10043e-16
6.99318e-16
6.88743e-16
6.78317e-16
6.68039e-16
6.57909e-16
6.47925e-16
6.38087e-16
6.28395e-16
6.18847e-16
6.09444e-16
6.00184e-16
5.91066e-16
5.82091e-16
5.73257e-16
5.64563e-16
5.56009e-16
5.47595e-16
5.39319e-16
5.3118e-16
5.23179e-16
5.15314e-16
5.07584e-16
4.9999e-16
4.92529e-16
4.85203e-16
4.78008e-16
4.70947e-16
4.64016e-16
4.57216e-16
4.50546e-16
4.44006e-16
4.37594e-16
4.31311e-16
4.25154e-16
4.19125e-16
4.13221e-16
4.07443e-16
4.0179e-16
3.96261e-16
3.90855e-16
3.85572e-16
3.80411e-16
3.75373e-16
3.70455e-16
3.65658e-16
3.6098e-16
3.56423e-16
3.51983e-16
3.47663e-16
3.4346e-16
3.39374e-16
3.35405e-16
3.31552e-16
3.27815e-16
3.24193e-16
3.20686e-16
3.17294e-16
3.14015e-16
3.10849e-16
3.07797e-16
3.04858e-16
3.0203e-16
2.99315e-16
2.96711e-16
2.94218e-16
2.91836e-16
2.89565e-16
2.87404e-16
2.85352e-16
2.8341e-16
2.81578e-16
2.79855e-16
2.7824e-16
2.76735e-16
2.75337e-16
2.74048e-16
2.72867e-16
2.71794e-16
2.70828e-16
2.6997e-16
2.6922e-16
2.68577e-16
2.68041e-16
2.67613e-16
2.67292e-16
2.67077e-16
2.6697e-16
)
;
    }
}


// ************************************************************************* //
