/*--------------------------------*- C++ -*----------------------------------*\
  =========                 |
  \\      /  F ield         | OpenFOAM: The Open Source CFD Toolbox
   \\    /   O peration     | Website:  https://openfoam.org
    \\  /    A nd           | Version:  10
     \\/     M anipulation  |
\*---------------------------------------------------------------------------*/
FoamFile
{
    format      ascii;
    class       volScalarField;
    location    "0.98";
    object      N1;
}
// * * * * * * * * * * * * * * * * * * * * * * * * * * * * * * * * * * * * * //

dimensions      [0 0 0 0 0 0 0];

internalField   nonuniform List<scalar> 
8000
(
6.25736e-16
1.87468e-15
3.11697e-15
4.3492e-15
5.56849e-15
6.7723e-15
7.9584e-15
9.12485e-15
1.02699e-14
1.13922e-14
1.24904e-14
1.35634e-14
1.46105e-14
1.56308e-14
1.66239e-14
1.75894e-14
1.8527e-14
1.94367e-14
2.03184e-14
2.11722e-14
2.19984e-14
2.27971e-14
2.35688e-14
2.43139e-14
2.50327e-14
2.57259e-14
2.63939e-14
2.70373e-14
2.76567e-14
2.82527e-14
2.88259e-14
2.9377e-14
2.99066e-14
3.04153e-14
3.09037e-14
3.13726e-14
3.18224e-14
3.22538e-14
3.26674e-14
3.30638e-14
3.34435e-14
3.38072e-14
3.41553e-14
3.44884e-14
3.48069e-14
3.51115e-14
3.54024e-14
3.56803e-14
3.59455e-14
3.61985e-14
3.64397e-14
3.66695e-14
3.68882e-14
3.70962e-14
3.72939e-14
3.74816e-14
3.76596e-14
3.78282e-14
3.79878e-14
3.81385e-14
3.82807e-14
3.84146e-14
3.85405e-14
3.86586e-14
3.87691e-14
3.88722e-14
3.89682e-14
3.90572e-14
3.91395e-14
3.92151e-14
3.92843e-14
3.93473e-14
3.94042e-14
3.94551e-14
3.95002e-14
3.95396e-14
3.95735e-14
3.9602e-14
3.96252e-14
3.96433e-14
3.96562e-14
3.96642e-14
3.96674e-14
3.96658e-14
3.96596e-14
3.96488e-14
3.96335e-14
3.96139e-14
3.95899e-14
3.95617e-14
3.95294e-14
3.9493e-14
3.94526e-14
3.94083e-14
3.93602e-14
3.93082e-14
3.92525e-14
3.91932e-14
3.91302e-14
3.90637e-14
3.89938e-14
3.89204e-14
3.88437e-14
3.87636e-14
3.86803e-14
3.85938e-14
3.85041e-14
3.84114e-14
3.83156e-14
3.82168e-14
3.8115e-14
3.80104e-14
3.79029e-14
3.77926e-14
3.76795e-14
3.75638e-14
3.74453e-14
3.73243e-14
3.72007e-14
3.70745e-14
3.69459e-14
3.68148e-14
3.66813e-14
3.65455e-14
3.64074e-14
3.6267e-14
3.61243e-14
3.59795e-14
3.58326e-14
3.56835e-14
3.55324e-14
3.53793e-14
3.52242e-14
3.50672e-14
3.49083e-14
3.47475e-14
3.45849e-14
3.44206e-14
3.42545e-14
3.40867e-14
3.39173e-14
3.37463e-14
3.35737e-14
3.33996e-14
3.32239e-14
3.30469e-14
3.28684e-14
3.26885e-14
3.25074e-14
3.23249e-14
3.21411e-14
3.19562e-14
3.177e-14
3.15828e-14
3.13944e-14
3.12049e-14
3.10145e-14
3.0823e-14
3.06306e-14
3.04372e-14
3.0243e-14
3.00479e-14
2.9852e-14
2.96554e-14
2.9458e-14
2.92599e-14
2.90611e-14
2.88618e-14
2.86618e-14
2.84612e-14
2.82602e-14
2.80586e-14
2.78566e-14
2.76541e-14
2.74513e-14
2.72481e-14
2.70446e-14
2.68408e-14
2.66367e-14
2.64324e-14
2.62279e-14
2.60232e-14
2.58184e-14
2.56135e-14
2.54085e-14
2.52035e-14
2.49985e-14
2.47935e-14
2.45885e-14
2.43836e-14
2.41788e-14
2.39742e-14
2.37697e-14
2.35654e-14
2.33613e-14
2.31574e-14
2.29539e-14
2.27506e-14
2.25476e-14
2.2345e-14
2.21427e-14
2.19409e-14
2.17394e-14
2.15385e-14
2.13379e-14
2.11379e-14
2.09384e-14
2.07394e-14
2.0541e-14
2.03432e-14
2.0146e-14
1.99494e-14
1.97534e-14
1.95581e-14
1.93635e-14
1.91696e-14
1.89765e-14
1.8784e-14
1.85924e-14
1.84015e-14
1.82114e-14
1.80221e-14
1.78337e-14
1.76461e-14
1.74594e-14
1.72735e-14
1.70886e-14
1.69046e-14
1.67215e-14
1.65393e-14
1.63581e-14
1.61779e-14
1.59987e-14
1.58204e-14
1.56432e-14
1.5467e-14
1.52918e-14
1.51177e-14
1.49446e-14
1.47726e-14
1.46017e-14
1.44318e-14
1.42631e-14
1.40955e-14
1.3929e-14
1.37636e-14
1.35993e-14
1.34362e-14
1.32743e-14
1.31135e-14
1.29539e-14
1.27955e-14
1.26382e-14
1.24821e-14
1.23272e-14
1.21735e-14
1.20211e-14
1.18698e-14
1.17197e-14
1.15709e-14
1.14233e-14
1.12769e-14
1.11318e-14
1.09879e-14
1.08452e-14
1.07038e-14
1.05636e-14
1.04246e-14
1.02869e-14
1.01505e-14
1.00153e-14
9.88137e-15
9.7487e-15
9.61728e-15
9.48711e-15
9.35821e-15
9.23056e-15
9.10417e-15
8.97904e-15
8.85517e-15
8.73256e-15
8.6112e-15
8.4911e-15
8.37225e-15
8.25466e-15
8.13832e-15
8.02323e-15
7.90939e-15
7.7968e-15
7.68545e-15
7.57534e-15
7.46647e-15
7.35884e-15
7.25245e-15
7.14728e-15
7.04335e-15
6.94064e-15
6.83915e-15
6.73888e-15
6.63983e-15
6.54198e-15
6.44535e-15
6.34992e-15
6.25568e-15
6.16264e-15
6.0708e-15
5.98014e-15
5.89066e-15
5.80236e-15
5.71524e-15
5.62928e-15
5.54449e-15
5.46085e-15
5.37837e-15
5.29704e-15
5.21685e-15
5.13781e-15
5.05989e-15
4.98311e-15
4.90745e-15
4.83291e-15
4.75948e-15
4.68716e-15
4.61594e-15
4.54582e-15
4.47679e-15
4.40885e-15
4.34199e-15
4.2762e-15
4.21148e-15
4.14783e-15
4.08524e-15
4.0237e-15
3.96321e-15
3.90377e-15
3.84536e-15
3.78798e-15
3.73163e-15
3.6763e-15
3.62199e-15
3.56869e-15
3.51639e-15
3.4651e-15
3.4148e-15
3.36548e-15
3.31716e-15
3.26981e-15
3.22344e-15
3.17803e-15
3.13359e-15
3.09012e-15
3.04759e-15
3.00602e-15
2.96539e-15
2.9257e-15
2.88694e-15
2.84912e-15
2.81223e-15
2.77626e-15
2.7412e-15
2.70706e-15
2.67383e-15
2.64151e-15
2.61008e-15
2.57956e-15
2.54993e-15
2.52118e-15
2.49333e-15
2.46636e-15
2.44026e-15
2.41505e-15
2.3907e-15
2.36723e-15
2.34462e-15
2.32288e-15
2.30199e-15
2.28197e-15
2.26279e-15
2.24448e-15
2.22701e-15
2.21038e-15
2.19461e-15
2.17967e-15
2.16558e-15
2.15233e-15
2.13991e-15
2.12833e-15
2.11758e-15
2.10767e-15
2.09859e-15
2.09033e-15
2.08291e-15
2.07631e-15
2.07054e-15
2.06559e-15
2.06147e-15
2.05818e-15
2.05571e-15
2.05406e-15
2.05324e-15
6.32142e-16
1.89446e-15
3.15115e-15
4.39899e-15
5.63512e-15
6.85698e-15
8.06231e-15
9.24912e-15
1.04156e-14
1.15603e-14
1.26818e-14
1.3779e-14
1.48509e-14
1.58968e-14
1.69159e-14
1.7908e-14
1.88725e-14
1.98094e-14
2.07184e-14
2.15998e-14
2.24534e-14
2.32796e-14
2.40787e-14
2.48508e-14
2.55966e-14
2.63163e-14
2.70105e-14
2.76797e-14
2.83244e-14
2.89453e-14
2.95429e-14
3.01177e-14
3.06705e-14
3.12018e-14
3.17123e-14
3.22025e-14
3.26731e-14
3.31247e-14
3.35578e-14
3.39731e-14
3.43711e-14
3.47524e-14
3.51175e-14
3.54669e-14
3.58012e-14
3.61209e-14
3.64265e-14
3.67184e-14
3.6997e-14
3.72629e-14
3.75164e-14
3.7758e-14
3.7988e-14
3.82068e-14
3.84148e-14
3.86122e-14
3.87996e-14
3.89771e-14
3.91451e-14
3.93039e-14
3.94537e-14
3.95948e-14
3.97275e-14
3.98521e-14
3.99687e-14
4.00775e-14
4.01789e-14
4.0273e-14
4.036e-14
4.044e-14
4.05134e-14
4.05802e-14
4.06406e-14
4.06948e-14
4.07429e-14
4.07851e-14
4.08215e-14
4.08522e-14
4.08774e-14
4.08972e-14
4.09117e-14
4.09211e-14
4.09254e-14
4.09247e-14
4.09192e-14
4.09089e-14
4.0894e-14
4.08744e-14
4.08505e-14
4.08221e-14
4.07894e-14
4.07524e-14
4.07113e-14
4.06662e-14
4.0617e-14
4.05638e-14
4.05068e-14
4.0446e-14
4.03815e-14
4.03133e-14
4.02414e-14
4.01661e-14
4.00872e-14
4.00049e-14
3.99192e-14
3.98302e-14
3.97379e-14
3.96424e-14
3.95438e-14
3.9442e-14
3.93372e-14
3.92294e-14
3.91187e-14
3.9005e-14
3.88885e-14
3.87691e-14
3.86471e-14
3.85223e-14
3.83948e-14
3.82647e-14
3.81321e-14
3.79969e-14
3.78592e-14
3.77191e-14
3.75767e-14
3.74318e-14
3.72847e-14
3.71353e-14
3.69837e-14
3.68299e-14
3.6674e-14
3.6516e-14
3.6356e-14
3.6194e-14
3.603e-14
3.58641e-14
3.56964e-14
3.55268e-14
3.53554e-14
3.51823e-14
3.50074e-14
3.4831e-14
3.46528e-14
3.44731e-14
3.42919e-14
3.41092e-14
3.3925e-14
3.37394e-14
3.35524e-14
3.33641e-14
3.31744e-14
3.29835e-14
3.27914e-14
3.25982e-14
3.24037e-14
3.22082e-14
3.20116e-14
3.1814e-14
3.16154e-14
3.14158e-14
3.12154e-14
3.1014e-14
3.08119e-14
3.06089e-14
3.04052e-14
3.02007e-14
2.99956e-14
2.97898e-14
2.95834e-14
2.93764e-14
2.91689e-14
2.89608e-14
2.87523e-14
2.85434e-14
2.8334e-14
2.81243e-14
2.79142e-14
2.77038e-14
2.74932e-14
2.72823e-14
2.70713e-14
2.686e-14
2.66486e-14
2.64372e-14
2.62256e-14
2.6014e-14
2.58024e-14
2.55908e-14
2.53792e-14
2.51677e-14
2.49564e-14
2.47451e-14
2.45341e-14
2.43232e-14
2.41125e-14
2.39021e-14
2.3692e-14
2.34822e-14
2.32727e-14
2.30635e-14
2.28548e-14
2.26464e-14
2.24385e-14
2.22311e-14
2.20241e-14
2.18177e-14
2.16117e-14
2.14064e-14
2.12016e-14
2.09974e-14
2.07938e-14
2.05909e-14
2.03886e-14
2.01871e-14
1.99862e-14
1.97861e-14
1.95867e-14
1.93881e-14
1.91903e-14
1.89932e-14
1.8797e-14
1.86017e-14
1.84072e-14
1.82136e-14
1.80208e-14
1.7829e-14
1.76381e-14
1.74482e-14
1.72592e-14
1.70712e-14
1.68842e-14
1.66982e-14
1.65132e-14
1.63292e-14
1.61462e-14
1.59644e-14
1.57836e-14
1.56038e-14
1.54252e-14
1.52477e-14
1.50712e-14
1.48959e-14
1.47218e-14
1.45488e-14
1.43769e-14
1.42062e-14
1.40367e-14
1.38683e-14
1.37012e-14
1.35352e-14
1.33705e-14
1.32069e-14
1.30446e-14
1.28835e-14
1.27236e-14
1.2565e-14
1.24076e-14
1.22515e-14
1.20966e-14
1.1943e-14
1.17907e-14
1.16396e-14
1.14898e-14
1.13412e-14
1.11939e-14
1.1048e-14
1.09033e-14
1.07599e-14
1.06177e-14
1.04769e-14
1.03374e-14
1.01991e-14
1.00622e-14
9.92655e-15
9.7922e-15
9.65915e-15
9.5274e-15
9.39695e-15
9.26779e-15
9.13994e-15
9.01338e-15
8.88812e-15
8.76416e-15
8.64149e-15
8.52012e-15
8.40004e-15
8.28124e-15
8.16374e-15
8.04753e-15
7.9326e-15
7.81895e-15
7.70658e-15
7.59549e-15
7.48567e-15
7.37713e-15
7.26985e-15
7.16384e-15
7.05909e-15
6.95559e-15
6.85335e-15
6.75236e-15
6.65262e-15
6.55412e-15
6.45685e-15
6.36082e-15
6.26602e-15
6.17245e-15
6.0801e-15
5.98896e-15
5.89903e-15
5.81031e-15
5.72279e-15
5.63646e-15
5.55133e-15
5.46738e-15
5.38462e-15
5.30303e-15
5.22261e-15
5.14336e-15
5.06526e-15
4.98832e-15
4.91253e-15
4.83789e-15
4.76438e-15
4.692e-15
4.62076e-15
4.55063e-15
4.48162e-15
4.41371e-15
4.34692e-15
4.28122e-15
4.21662e-15
4.1531e-15
4.09066e-15
4.02931e-15
3.96902e-15
3.9098e-15
3.85164e-15
3.79453e-15
3.73847e-15
3.68345e-15
3.62947e-15
3.57653e-15
3.52461e-15
3.47371e-15
3.42383e-15
3.37496e-15
3.3271e-15
3.28023e-15
3.23437e-15
3.18949e-15
3.1456e-15
3.10268e-15
3.06075e-15
3.01978e-15
2.97978e-15
2.94075e-15
2.90266e-15
2.86553e-15
2.82935e-15
2.79412e-15
2.75982e-15
2.72645e-15
2.69402e-15
2.66251e-15
2.63193e-15
2.60226e-15
2.57351e-15
2.54567e-15
2.51874e-15
2.49271e-15
2.46758e-15
2.44336e-15
2.42002e-15
2.39758e-15
2.37602e-15
2.35535e-15
2.33556e-15
2.31665e-15
2.29862e-15
2.28147e-15
2.26518e-15
2.24977e-15
2.23522e-15
2.22154e-15
2.20873e-15
2.19677e-15
2.18568e-15
2.17545e-15
2.16607e-15
2.15755e-15
2.14989e-15
2.14308e-15
2.13712e-15
2.13202e-15
2.12776e-15
2.12436e-15
2.12181e-15
2.12011e-15
2.11926e-15
6.38426e-16
1.91358e-15
3.18377e-15
4.44596e-15
5.69738e-15
6.93551e-15
8.1581e-15
9.36311e-15
1.05487e-14
1.17134e-14
1.28556e-14
1.39743e-14
1.50683e-14
1.61369e-14
1.71792e-14
1.81948e-14
1.91833e-14
2.01443e-14
2.10778e-14
2.19836e-14
2.28617e-14
2.37124e-14
2.45357e-14
2.53321e-14
2.61018e-14
2.68452e-14
2.75628e-14
2.82551e-14
2.89225e-14
2.95655e-14
3.01849e-14
3.0781e-14
3.13546e-14
3.19062e-14
3.24363e-14
3.29458e-14
3.3435e-14
3.39046e-14
3.43552e-14
3.47875e-14
3.52018e-14
3.55989e-14
3.59793e-14
3.63435e-14
3.6692e-14
3.70253e-14
3.73439e-14
3.76484e-14
3.79392e-14
3.82166e-14
3.84812e-14
3.87334e-14
3.89736e-14
3.92021e-14
3.94193e-14
3.96257e-14
3.98214e-14
4.0007e-14
4.01826e-14
4.03486e-14
4.05053e-14
4.06529e-14
4.07918e-14
4.09221e-14
4.10442e-14
4.11582e-14
4.12645e-14
4.13631e-14
4.14544e-14
4.15385e-14
4.16155e-14
4.16858e-14
4.17494e-14
4.18065e-14
4.18573e-14
4.1902e-14
4.19406e-14
4.19734e-14
4.20004e-14
4.20218e-14
4.20378e-14
4.20483e-14
4.20536e-14
4.20538e-14
4.20489e-14
4.20391e-14
4.20245e-14
4.20051e-14
4.19811e-14
4.19526e-14
4.19195e-14
4.18821e-14
4.18404e-14
4.17945e-14
4.17444e-14
4.16902e-14
4.1632e-14
4.15699e-14
4.15039e-14
4.14342e-14
4.13607e-14
4.12835e-14
4.12027e-14
4.11184e-14
4.10306e-14
4.09393e-14
4.08447e-14
4.07468e-14
4.06456e-14
4.05412e-14
4.04337e-14
4.0323e-14
4.02093e-14
4.00926e-14
3.9973e-14
3.98505e-14
3.97251e-14
3.9597e-14
3.94661e-14
3.93325e-14
3.91962e-14
3.90573e-14
3.89159e-14
3.8772e-14
3.86256e-14
3.84768e-14
3.83257e-14
3.81722e-14
3.80164e-14
3.78584e-14
3.76982e-14
3.75358e-14
3.73714e-14
3.72049e-14
3.70364e-14
3.68659e-14
3.66935e-14
3.65192e-14
3.63431e-14
3.61651e-14
3.59855e-14
3.58041e-14
3.5621e-14
3.54363e-14
3.525e-14
3.50622e-14
3.48729e-14
3.46821e-14
3.44899e-14
3.42963e-14
3.41014e-14
3.39052e-14
3.37078e-14
3.35091e-14
3.33093e-14
3.31083e-14
3.29062e-14
3.27031e-14
3.24989e-14
3.22938e-14
3.20878e-14
3.18808e-14
3.1673e-14
3.14644e-14
3.12549e-14
3.10448e-14
3.08339e-14
3.06224e-14
3.04102e-14
3.01974e-14
2.99841e-14
2.97702e-14
2.95559e-14
2.93411e-14
2.91259e-14
2.89103e-14
2.86944e-14
2.84782e-14
2.82616e-14
2.80449e-14
2.78279e-14
2.76108e-14
2.73935e-14
2.71761e-14
2.69586e-14
2.67411e-14
2.65235e-14
2.6306e-14
2.60886e-14
2.58712e-14
2.56539e-14
2.54368e-14
2.52198e-14
2.5003e-14
2.47865e-14
2.45702e-14
2.43542e-14
2.41385e-14
2.39232e-14
2.37082e-14
2.34936e-14
2.32794e-14
2.30657e-14
2.28525e-14
2.26397e-14
2.24275e-14
2.22158e-14
2.20047e-14
2.17942e-14
2.15843e-14
2.1375e-14
2.11664e-14
2.09585e-14
2.07513e-14
2.05449e-14
2.03391e-14
2.01342e-14
1.993e-14
1.97266e-14
1.95241e-14
1.93224e-14
1.91216e-14
1.89217e-14
1.87227e-14
1.85245e-14
1.83274e-14
1.81312e-14
1.79359e-14
1.77416e-14
1.75484e-14
1.73561e-14
1.71649e-14
1.69747e-14
1.67856e-14
1.65976e-14
1.64106e-14
1.62247e-14
1.604e-14
1.58564e-14
1.56739e-14
1.54925e-14
1.53123e-14
1.51333e-14
1.49554e-14
1.47788e-14
1.46033e-14
1.4429e-14
1.4256e-14
1.40841e-14
1.39136e-14
1.37442e-14
1.35761e-14
1.34092e-14
1.32436e-14
1.30793e-14
1.29162e-14
1.27545e-14
1.2594e-14
1.24347e-14
1.22768e-14
1.21202e-14
1.19649e-14
1.18109e-14
1.16582e-14
1.15068e-14
1.13568e-14
1.1208e-14
1.10606e-14
1.09145e-14
1.07698e-14
1.06263e-14
1.04842e-14
1.03434e-14
1.0204e-14
1.00659e-14
9.92914e-15
9.7937e-15
9.6596e-15
9.52684e-15
9.39541e-15
9.26532e-15
9.13656e-15
9.00913e-15
8.88303e-15
8.75827e-15
8.63483e-15
8.51272e-15
8.39193e-15
8.27247e-15
8.15433e-15
8.0375e-15
7.92199e-15
7.8078e-15
7.69491e-15
7.58333e-15
7.47305e-15
7.36408e-15
7.2564e-15
7.15001e-15
7.04491e-15
6.9411e-15
6.83857e-15
6.73731e-15
6.63733e-15
6.53862e-15
6.44117e-15
6.34498e-15
6.25004e-15
6.15636e-15
6.06391e-15
5.97271e-15
5.88275e-15
5.79401e-15
5.7065e-15
5.62021e-15
5.53513e-15
5.45126e-15
5.36859e-15
5.28712e-15
5.20685e-15
5.12776e-15
5.04985e-15
4.97311e-15
4.89755e-15
4.82315e-15
4.74991e-15
4.67782e-15
4.60688e-15
4.53708e-15
4.46842e-15
4.40089e-15
4.33448e-15
4.26918e-15
4.205e-15
4.14193e-15
4.07996e-15
4.01908e-15
3.95929e-15
3.90059e-15
3.84296e-15
3.78641e-15
3.73092e-15
3.6765e-15
3.62313e-15
3.57081e-15
3.51953e-15
3.4693e-15
3.42009e-15
3.37192e-15
3.32477e-15
3.27864e-15
3.23352e-15
3.18941e-15
3.1463e-15
3.10419e-15
3.06307e-15
3.02294e-15
2.9838e-15
2.94563e-15
2.90844e-15
2.87221e-15
2.83696e-15
2.80266e-15
2.76932e-15
2.73693e-15
2.70549e-15
2.675e-15
2.64544e-15
2.61683e-15
2.58914e-15
2.56239e-15
2.53656e-15
2.51165e-15
2.48766e-15
2.46459e-15
2.44243e-15
2.42119e-15
2.40084e-15
2.38141e-15
2.36287e-15
2.34524e-15
2.3285e-15
2.31265e-15
2.2977e-15
2.28364e-15
2.27046e-15
2.25818e-15
2.24677e-15
2.23625e-15
2.22662e-15
2.21786e-15
2.20998e-15
2.20298e-15
2.19686e-15
2.19161e-15
2.18724e-15
2.18374e-15
2.18112e-15
2.17937e-15
2.1785e-15
6.44292e-16
1.93135e-15
3.21387e-15
4.489e-15
5.75408e-15
7.00666e-15
8.24448e-15
9.46552e-15
1.06679e-14
1.18501e-14
1.30105e-14
1.4148e-14
1.52614e-14
1.63498e-14
1.74124e-14
1.84487e-14
1.94581e-14
2.04403e-14
2.13951e-14
2.23223e-14
2.32219e-14
2.4094e-14
2.49387e-14
2.57563e-14
2.65471e-14
2.73113e-14
2.80494e-14
2.87619e-14
2.94492e-14
3.01118e-14
3.07503e-14
3.13651e-14
3.1957e-14
3.25264e-14
3.3074e-14
3.36003e-14
3.41059e-14
3.45915e-14
3.50576e-14
3.55048e-14
3.59336e-14
3.63447e-14
3.67385e-14
3.71157e-14
3.74767e-14
3.7822e-14
3.81523e-14
3.84679e-14
3.87693e-14
3.9057e-14
3.93314e-14
3.9593e-14
3.98422e-14
4.00793e-14
4.03047e-14
4.05189e-14
4.07221e-14
4.09147e-14
4.10971e-14
4.12695e-14
4.14323e-14
4.15857e-14
4.173e-14
4.18655e-14
4.19924e-14
4.21111e-14
4.22216e-14
4.23243e-14
4.24194e-14
4.2507e-14
4.25874e-14
4.26607e-14
4.27271e-14
4.27869e-14
4.28401e-14
4.2887e-14
4.29276e-14
4.29622e-14
4.29908e-14
4.30137e-14
4.30308e-14
4.30425e-14
4.30487e-14
4.30496e-14
4.30453e-14
4.3036e-14
4.30216e-14
4.30024e-14
4.29784e-14
4.29497e-14
4.29163e-14
4.28785e-14
4.28362e-14
4.27896e-14
4.27387e-14
4.26837e-14
4.26245e-14
4.25612e-14
4.2494e-14
4.24228e-14
4.23479e-14
4.22691e-14
4.21867e-14
4.21006e-14
4.20109e-14
4.19177e-14
4.1821e-14
4.17209e-14
4.16175e-14
4.15107e-14
4.14008e-14
4.12876e-14
4.11714e-14
4.1052e-14
4.09297e-14
4.08043e-14
4.06761e-14
4.05449e-14
4.0411e-14
4.02743e-14
4.01349e-14
3.99928e-14
3.9848e-14
3.97007e-14
3.95509e-14
3.93986e-14
3.92439e-14
3.90868e-14
3.89273e-14
3.87656e-14
3.86016e-14
3.84354e-14
3.82671e-14
3.80966e-14
3.79241e-14
3.77496e-14
3.7573e-14
3.73946e-14
3.72143e-14
3.70321e-14
3.68482e-14
3.66624e-14
3.6475e-14
3.62859e-14
3.60952e-14
3.59029e-14
3.5709e-14
3.55137e-14
3.53169e-14
3.51187e-14
3.49192e-14
3.47183e-14
3.45161e-14
3.43126e-14
3.4108e-14
3.39022e-14
3.36953e-14
3.34873e-14
3.32783e-14
3.30683e-14
3.28573e-14
3.26454e-14
3.24326e-14
3.22189e-14
3.20045e-14
3.17893e-14
3.15734e-14
3.13568e-14
3.11395e-14
3.09217e-14
3.07032e-14
3.04843e-14
3.02648e-14
3.00448e-14
2.98245e-14
2.96037e-14
2.93826e-14
2.91612e-14
2.89395e-14
2.87175e-14
2.84954e-14
2.8273e-14
2.80505e-14
2.78279e-14
2.76052e-14
2.73825e-14
2.71597e-14
2.6937e-14
2.67143e-14
2.64917e-14
2.62692e-14
2.60469e-14
2.58247e-14
2.56027e-14
2.5381e-14
2.51595e-14
2.49383e-14
2.47175e-14
2.4497e-14
2.42768e-14
2.40571e-14
2.38378e-14
2.3619e-14
2.34006e-14
2.31828e-14
2.29654e-14
2.27487e-14
2.25325e-14
2.23169e-14
2.2102e-14
2.18877e-14
2.16741e-14
2.14612e-14
2.12491e-14
2.10376e-14
2.0827e-14
2.06171e-14
2.0408e-14
2.01998e-14
1.99924e-14
1.97859e-14
1.95803e-14
1.93755e-14
1.91717e-14
1.89689e-14
1.8767e-14
1.8566e-14
1.83661e-14
1.81672e-14
1.79693e-14
1.77724e-14
1.75766e-14
1.73819e-14
1.71882e-14
1.69957e-14
1.68042e-14
1.66139e-14
1.64247e-14
1.62367e-14
1.60498e-14
1.58641e-14
1.56796e-14
1.54963e-14
1.53141e-14
1.51332e-14
1.49536e-14
1.47751e-14
1.45979e-14
1.4422e-14
1.42473e-14
1.40739e-14
1.39017e-14
1.37309e-14
1.35613e-14
1.3393e-14
1.3226e-14
1.30604e-14
1.2896e-14
1.2733e-14
1.25713e-14
1.24109e-14
1.22519e-14
1.20942e-14
1.19378e-14
1.17828e-14
1.16292e-14
1.14769e-14
1.13259e-14
1.11763e-14
1.10281e-14
1.08812e-14
1.07357e-14
1.05915e-14
1.04488e-14
1.03073e-14
1.01673e-14
1.00286e-14
9.8913e-15
9.75535e-15
9.62077e-15
9.48755e-15
9.35571e-15
9.22522e-15
9.0961e-15
8.96834e-15
8.84194e-15
8.7169e-15
8.59322e-15
8.47089e-15
8.34991e-15
8.23029e-15
8.11201e-15
7.99507e-15
7.87948e-15
7.76522e-15
7.6523e-15
7.54071e-15
7.43045e-15
7.32151e-15
7.21389e-15
7.10759e-15
7.0026e-15
6.89891e-15
6.79653e-15
6.69545e-15
6.59567e-15
6.49717e-15
6.39996e-15
6.30402e-15
6.20936e-15
6.11597e-15
6.02385e-15
5.93298e-15
5.84337e-15
5.75501e-15
5.66789e-15
5.58201e-15
5.49736e-15
5.41394e-15
5.33174e-15
5.25075e-15
5.17097e-15
5.0924e-15
5.01502e-15
4.93884e-15
4.86384e-15
4.79003e-15
4.71738e-15
4.64591e-15
4.5756e-15
4.50645e-15
4.43844e-15
4.37158e-15
4.30587e-15
4.24128e-15
4.17782e-15
4.11548e-15
4.05426e-15
3.99415e-15
3.93514e-15
3.87723e-15
3.82041e-15
3.76468e-15
3.71003e-15
3.65646e-15
3.60395e-15
3.55251e-15
3.50213e-15
3.4528e-15
3.40452e-15
3.35728e-15
3.31108e-15
3.26591e-15
3.22177e-15
3.17865e-15
3.13654e-15
3.09545e-15
3.05537e-15
3.01628e-15
2.9782e-15
2.94111e-15
2.905e-15
2.86988e-15
2.83574e-15
2.80258e-15
2.77039e-15
2.73916e-15
2.7089e-15
2.67959e-15
2.65124e-15
2.62385e-15
2.5974e-15
2.57189e-15
2.54733e-15
2.52371e-15
2.50102e-15
2.47926e-15
2.45843e-15
2.43853e-15
2.41955e-15
2.40149e-15
2.38435e-15
2.36812e-15
2.35281e-15
2.33841e-15
2.32492e-15
2.31234e-15
2.30067e-15
2.28989e-15
2.28002e-15
2.27106e-15
2.26299e-15
2.25582e-15
2.24955e-15
2.24418e-15
2.2397e-15
2.23612e-15
2.23344e-15
2.23165e-15
2.23075e-15
6.4956e-16
1.94726e-15
3.24073e-15
4.52725e-15
5.80428e-15
7.0694e-15
8.32041e-15
9.55527e-15
1.07721e-14
1.19693e-14
1.31454e-14
1.4299e-14
1.5429e-14
1.65344e-14
1.76145e-14
1.86685e-14
1.96958e-14
2.06962e-14
2.16693e-14
2.26148e-14
2.35329e-14
2.44234e-14
2.52864e-14
2.61223e-14
2.69311e-14
2.77132e-14
2.8469e-14
2.91989e-14
2.99033e-14
3.05827e-14
3.12377e-14
3.18687e-14
3.24763e-14
3.30611e-14
3.36236e-14
3.41645e-14
3.46843e-14
3.51837e-14
3.56631e-14
3.61231e-14
3.65644e-14
3.69876e-14
3.73931e-14
3.77814e-14
3.81533e-14
3.85091e-14
3.88493e-14
3.91745e-14
3.94852e-14
3.97818e-14
4.00647e-14
4.03344e-14
4.05913e-14
4.08358e-14
4.10684e-14
4.12893e-14
4.1499e-14
4.16978e-14
4.1886e-14
4.2064e-14
4.2232e-14
4.23904e-14
4.25394e-14
4.26794e-14
4.28106e-14
4.29332e-14
4.30475e-14
4.31537e-14
4.3252e-14
4.33427e-14
4.3426e-14
4.35019e-14
4.35709e-14
4.36329e-14
4.36882e-14
4.3737e-14
4.37793e-14
4.38155e-14
4.38455e-14
4.38696e-14
4.38879e-14
4.39005e-14
4.39075e-14
4.3909e-14
4.39053e-14
4.38963e-14
4.38822e-14
4.38631e-14
4.38391e-14
4.38102e-14
4.37767e-14
4.37385e-14
4.36958e-14
4.36486e-14
4.3597e-14
4.35411e-14
4.3481e-14
4.34168e-14
4.33485e-14
4.32762e-14
4.31999e-14
4.31198e-14
4.30359e-14
4.29483e-14
4.2857e-14
4.27621e-14
4.26636e-14
4.25617e-14
4.24563e-14
4.23476e-14
4.22356e-14
4.21203e-14
4.20018e-14
4.18801e-14
4.17554e-14
4.16276e-14
4.14969e-14
4.13632e-14
4.12267e-14
4.10873e-14
4.09451e-14
4.08002e-14
4.06526e-14
4.05024e-14
4.03496e-14
4.01943e-14
4.00365e-14
3.98763e-14
3.97136e-14
3.95487e-14
3.93814e-14
3.92119e-14
3.90402e-14
3.88663e-14
3.86903e-14
3.85123e-14
3.83323e-14
3.81502e-14
3.79663e-14
3.77805e-14
3.75928e-14
3.74034e-14
3.72122e-14
3.70193e-14
3.68247e-14
3.66285e-14
3.64308e-14
3.62315e-14
3.60308e-14
3.58286e-14
3.5625e-14
3.542e-14
3.52138e-14
3.50063e-14
3.47975e-14
3.45876e-14
3.43765e-14
3.41643e-14
3.3951e-14
3.37368e-14
3.35215e-14
3.33053e-14
3.30882e-14
3.28703e-14
3.26515e-14
3.2432e-14
3.22117e-14
3.19907e-14
3.17691e-14
3.15468e-14
3.1324e-14
3.11006e-14
3.08767e-14
3.06523e-14
3.04275e-14
3.02023e-14
2.99767e-14
2.97508e-14
2.95246e-14
2.92981e-14
2.90715e-14
2.88446e-14
2.86176e-14
2.83905e-14
2.81633e-14
2.79361e-14
2.77088e-14
2.74816e-14
2.72544e-14
2.70273e-14
2.68003e-14
2.65735e-14
2.63468e-14
2.61204e-14
2.58942e-14
2.56682e-14
2.54426e-14
2.52172e-14
2.49923e-14
2.47677e-14
2.45435e-14
2.43198e-14
2.40965e-14
2.38737e-14
2.36515e-14
2.34298e-14
2.32086e-14
2.29881e-14
2.27682e-14
2.25489e-14
2.23303e-14
2.21124e-14
2.18952e-14
2.16787e-14
2.1463e-14
2.12481e-14
2.1034e-14
2.08207e-14
2.06082e-14
2.03967e-14
2.0186e-14
1.99762e-14
1.97673e-14
1.95594e-14
1.93524e-14
1.91464e-14
1.89414e-14
1.87375e-14
1.85345e-14
1.83326e-14
1.81318e-14
1.7932e-14
1.77333e-14
1.75358e-14
1.73393e-14
1.7144e-14
1.69498e-14
1.67568e-14
1.6565e-14
1.63743e-14
1.61849e-14
1.59966e-14
1.58096e-14
1.56238e-14
1.54392e-14
1.52559e-14
1.50739e-14
1.48931e-14
1.47136e-14
1.45354e-14
1.43584e-14
1.41828e-14
1.40085e-14
1.38355e-14
1.36638e-14
1.34935e-14
1.33245e-14
1.31568e-14
1.29905e-14
1.28255e-14
1.26619e-14
1.24996e-14
1.23387e-14
1.21792e-14
1.20211e-14
1.18643e-14
1.17089e-14
1.15549e-14
1.14023e-14
1.12511e-14
1.11012e-14
1.09528e-14
1.08057e-14
1.066e-14
1.05158e-14
1.03729e-14
1.02314e-14
1.00913e-14
9.9526e-15
9.8153e-15
9.67939e-15
9.54487e-15
9.41175e-15
9.28002e-15
9.14967e-15
9.02072e-15
8.89315e-15
8.76697e-15
8.64217e-15
8.51874e-15
8.3967e-15
8.27603e-15
8.15673e-15
8.0388e-15
7.92223e-15
7.80703e-15
7.69318e-15
7.58069e-15
7.46955e-15
7.35975e-15
7.2513e-15
7.14419e-15
7.03841e-15
6.93396e-15
6.83083e-15
6.72903e-15
6.62854e-15
6.52936e-15
6.43149e-15
6.33491e-15
6.23964e-15
6.14565e-15
6.05295e-15
5.96152e-15
5.87137e-15
5.78249e-15
5.69487e-15
5.60851e-15
5.5234e-15
5.43954e-15
5.35692e-15
5.27553e-15
5.19536e-15
5.11642e-15
5.0387e-15
4.96219e-15
4.88688e-15
4.81277e-15
4.73985e-15
4.66812e-15
4.59756e-15
4.52818e-15
4.45997e-15
4.39293e-15
4.32704e-15
4.26229e-15
4.1987e-15
4.13624e-15
4.07491e-15
4.01471e-15
3.95563e-15
3.89766e-15
3.8408e-15
3.78505e-15
3.73039e-15
3.67682e-15
3.62434e-15
3.57294e-15
3.52261e-15
3.47336e-15
3.42516e-15
3.37803e-15
3.33194e-15
3.28691e-15
3.24292e-15
3.19996e-15
3.15804e-15
3.11714e-15
3.07727e-15
3.03842e-15
3.00057e-15
2.96374e-15
2.92791e-15
2.89308e-15
2.85925e-15
2.8264e-15
2.79454e-15
2.76367e-15
2.73377e-15
2.70485e-15
2.6769e-15
2.64992e-15
2.6239e-15
2.59884e-15
2.57474e-15
2.55159e-15
2.52939e-15
2.50814e-15
2.48783e-15
2.46847e-15
2.45005e-15
2.43256e-15
2.41601e-15
2.40039e-15
2.38569e-15
2.37193e-15
2.3591e-15
2.34718e-15
2.33619e-15
2.32612e-15
2.31698e-15
2.30874e-15
2.30143e-15
2.29503e-15
2.28955e-15
2.28498e-15
2.28133e-15
2.27859e-15
2.27677e-15
2.27586e-15
6.54104e-16
1.96097e-15
3.26381e-15
4.56004e-15
5.84719e-15
7.12289e-15
8.38498e-15
9.63143e-15
1.08604e-14
1.20701e-14
1.32592e-14
1.44263e-14
1.55702e-14
1.66898e-14
1.77844e-14
1.88531e-14
1.98955e-14
2.0911e-14
2.18993e-14
2.28602e-14
2.37936e-14
2.46994e-14
2.55778e-14
2.64288e-14
2.72528e-14
2.80498e-14
2.88204e-14
2.95648e-14
3.02836e-14
3.09771e-14
3.16458e-14
3.22903e-14
3.29111e-14
3.35088e-14
3.40839e-14
3.4637e-14
3.51686e-14
3.56795e-14
3.61701e-14
3.6641e-14
3.70927e-14
3.7526e-14
3.79412e-14
3.8339e-14
3.872e-14
3.90845e-14
3.94331e-14
3.97664e-14
4.00849e-14
4.03889e-14
4.06789e-14
4.09555e-14
4.12189e-14
4.14697e-14
4.17082e-14
4.19348e-14
4.21499e-14
4.23539e-14
4.2547e-14
4.27296e-14
4.29021e-14
4.30647e-14
4.32177e-14
4.33615e-14
4.34962e-14
4.36221e-14
4.37396e-14
4.38487e-14
4.39498e-14
4.40431e-14
4.41287e-14
4.4207e-14
4.4278e-14
4.43419e-14
4.4399e-14
4.44494e-14
4.44932e-14
4.45307e-14
4.45619e-14
4.4587e-14
4.46062e-14
4.46196e-14
4.46273e-14
4.46294e-14
4.46261e-14
4.46174e-14
4.46035e-14
4.45845e-14
4.45605e-14
4.45316e-14
4.44978e-14
4.44593e-14
4.44162e-14
4.43685e-14
4.43164e-14
4.42599e-14
4.41991e-14
4.4134e-14
4.40648e-14
4.39915e-14
4.39142e-14
4.3833e-14
4.37478e-14
4.36589e-14
4.35663e-14
4.34699e-14
4.337e-14
4.32665e-14
4.31595e-14
4.30491e-14
4.29353e-14
4.28182e-14
4.26979e-14
4.25743e-14
4.24476e-14
4.23178e-14
4.2185e-14
4.20491e-14
4.19104e-14
4.17687e-14
4.16243e-14
4.1477e-14
4.13271e-14
4.11744e-14
4.10191e-14
4.08613e-14
4.07009e-14
4.05381e-14
4.03728e-14
4.02051e-14
4.00351e-14
3.98628e-14
3.96883e-14
3.95116e-14
3.93327e-14
3.91517e-14
3.89687e-14
3.87837e-14
3.85967e-14
3.84078e-14
3.82171e-14
3.80245e-14
3.78301e-14
3.7634e-14
3.74363e-14
3.72368e-14
3.70358e-14
3.68333e-14
3.66292e-14
3.64236e-14
3.62167e-14
3.60083e-14
3.57987e-14
3.55877e-14
3.53755e-14
3.51621e-14
3.49475e-14
3.47318e-14
3.4515e-14
3.42972e-14
3.40783e-14
3.38586e-14
3.36379e-14
3.34163e-14
3.31939e-14
3.29707e-14
3.27468e-14
3.25222e-14
3.22968e-14
3.20709e-14
3.18443e-14
3.16172e-14
3.13896e-14
3.11615e-14
3.09329e-14
3.0704e-14
3.04747e-14
3.0245e-14
3.00151e-14
2.97849e-14
2.95544e-14
2.93238e-14
2.90931e-14
2.88622e-14
2.86312e-14
2.84002e-14
2.81692e-14
2.79382e-14
2.77072e-14
2.74763e-14
2.72456e-14
2.7015e-14
2.67845e-14
2.65543e-14
2.63244e-14
2.60947e-14
2.58653e-14
2.56362e-14
2.54075e-14
2.51792e-14
2.49513e-14
2.47238e-14
2.44968e-14
2.42704e-14
2.40444e-14
2.3819e-14
2.35942e-14
2.337e-14
2.31464e-14
2.29235e-14
2.27013e-14
2.24797e-14
2.22589e-14
2.20389e-14
2.18196e-14
2.16011e-14
2.13834e-14
2.11666e-14
2.09506e-14
2.07355e-14
2.05213e-14
2.0308e-14
2.00957e-14
1.98843e-14
1.96739e-14
1.94645e-14
1.92561e-14
1.90488e-14
1.88424e-14
1.86372e-14
1.8433e-14
1.82299e-14
1.80279e-14
1.78271e-14
1.76274e-14
1.74288e-14
1.72314e-14
1.70352e-14
1.68402e-14
1.66464e-14
1.64538e-14
1.62624e-14
1.60722e-14
1.58834e-14
1.56957e-14
1.55094e-14
1.53243e-14
1.51405e-14
1.4958e-14
1.47768e-14
1.4597e-14
1.44184e-14
1.42412e-14
1.40653e-14
1.38908e-14
1.37176e-14
1.35458e-14
1.33754e-14
1.32063e-14
1.30386e-14
1.28722e-14
1.27073e-14
1.25437e-14
1.23816e-14
1.22208e-14
1.20614e-14
1.19035e-14
1.17469e-14
1.15917e-14
1.1438e-14
1.12856e-14
1.11347e-14
1.09852e-14
1.08371e-14
1.06905e-14
1.05452e-14
1.04014e-14
1.02589e-14
1.01179e-14
9.97836e-15
9.8402e-15
9.70345e-15
9.56811e-15
9.43419e-15
9.30168e-15
9.17059e-15
9.0409e-15
8.91262e-15
8.78574e-15
8.66027e-15
8.5362e-15
8.41352e-15
8.29224e-15
8.17235e-15
8.05385e-15
7.93673e-15
7.82099e-15
7.70663e-15
7.59364e-15
7.48202e-15
7.37177e-15
7.26288e-15
7.15534e-15
7.04915e-15
6.94432e-15
6.84082e-15
6.73866e-15
6.63783e-15
6.53834e-15
6.44016e-15
6.3433e-15
6.24775e-15
6.15351e-15
6.06057e-15
5.96892e-15
5.87856e-15
5.78949e-15
5.70169e-15
5.61517e-15
5.52991e-15
5.44591e-15
5.36317e-15
5.28168e-15
5.20143e-15
5.12241e-15
5.04463e-15
4.96807e-15
4.89272e-15
4.81859e-15
4.74567e-15
4.67395e-15
4.60341e-15
4.53407e-15
4.46591e-15
4.39892e-15
4.33311e-15
4.26845e-15
4.20495e-15
4.14261e-15
4.08141e-15
4.02134e-15
3.96241e-15
3.90461e-15
3.84793e-15
3.79236e-15
3.73791e-15
3.68455e-15
3.6323e-15
3.58114e-15
3.53106e-15
3.48207e-15
3.43415e-15
3.3873e-15
3.34152e-15
3.29679e-15
3.25313e-15
3.21051e-15
3.16893e-15
3.1284e-15
3.0889e-15
3.05043e-15
3.01298e-15
2.97655e-15
2.94115e-15
2.90675e-15
2.87336e-15
2.84097e-15
2.80958e-15
2.77919e-15
2.74979e-15
2.72137e-15
2.69394e-15
2.66749e-15
2.64201e-15
2.61751e-15
2.59398e-15
2.57141e-15
2.54981e-15
2.52917e-15
2.50948e-15
2.49075e-15
2.47297e-15
2.45614e-15
2.44026e-15
2.42533e-15
2.41134e-15
2.39829e-15
2.38618e-15
2.37501e-15
2.36477e-15
2.35547e-15
2.3471e-15
2.33967e-15
2.33316e-15
2.32759e-15
2.32295e-15
2.31923e-15
2.31645e-15
2.31459e-15
2.31367e-15
6.57834e-16
1.97221e-15
3.28271e-15
4.58685e-15
5.8822e-15
7.16646e-15
8.43747e-15
9.69324e-15
1.09319e-14
1.21518e-14
1.33513e-14
1.45291e-14
1.56841e-14
1.68151e-14
1.79213e-14
1.90018e-14
2.00562e-14
2.10838e-14
2.20843e-14
2.30575e-14
2.40032e-14
2.49213e-14
2.5812e-14
2.66752e-14
2.75112e-14
2.83203e-14
2.91027e-14
2.98588e-14
3.0589e-14
3.12938e-14
3.19736e-14
3.26289e-14
3.32603e-14
3.38683e-14
3.44535e-14
3.50164e-14
3.55576e-14
3.60777e-14
3.65773e-14
3.70569e-14
3.75171e-14
3.79584e-14
3.83815e-14
3.87869e-14
3.91751e-14
3.95467e-14
3.99021e-14
4.02419e-14
4.05666e-14
4.08766e-14
4.11724e-14
4.14544e-14
4.17231e-14
4.19789e-14
4.22223e-14
4.24535e-14
4.26729e-14
4.2881e-14
4.30781e-14
4.32645e-14
4.34406e-14
4.36065e-14
4.37628e-14
4.39095e-14
4.40471e-14
4.41758e-14