/*--------------------------------*- C++ -*----------------------------------*\
  =========                 |
  \\      /  F ield         | OpenFOAM: The Open Source CFD Toolbox
   \\    /   O peration     | Website:  https://openfoam.org
    \\  /    A nd           | Version:  10
     \\/     M anipulation  |
\*---------------------------------------------------------------------------*/
FoamFile
{
    format      ascii;
    class       volScalarField;
    location    "0.92";
    object      N1;
}
// * * * * * * * * * * * * * * * * * * * * * * * * * * * * * * * * * * * * * //

dimensions      [0 0 0 0 0 0 0];

internalField   nonuniform List<scalar> 
8000
(
4.5437e-15
1.36127e-14
2.26333e-14
3.15808e-14
4.04339e-14
4.91745e-14
5.77861e-14
6.62546e-14
7.45676e-14
8.27143e-14
9.06856e-14
9.84737e-14
1.06072e-13
1.13476e-13
1.20682e-13
1.27686e-13
1.34487e-13
1.41085e-13
1.47478e-13
1.53668e-13
1.59656e-13
1.65445e-13
1.71035e-13
1.76432e-13
1.81637e-13
1.86654e-13
1.91487e-13
1.96141e-13
2.00619e-13
2.04927e-13
2.09068e-13
2.13046e-13
2.16868e-13
2.20536e-13
2.24057e-13
2.27433e-13
2.3067e-13
2.33773e-13
2.36745e-13
2.3959e-13
2.42314e-13
2.44919e-13
2.4741e-13
2.49791e-13
2.52065e-13
2.54236e-13
2.56307e-13
2.58282e-13
2.60164e-13
2.61955e-13
2.6366e-13
2.6528e-13
2.66819e-13
2.68278e-13
2.69662e-13
2.70971e-13
2.72209e-13
2.73378e-13
2.74479e-13
2.75516e-13
2.76488e-13
2.774e-13
2.78252e-13
2.79046e-13
2.79784e-13
2.80467e-13
2.81097e-13
2.81676e-13
2.82204e-13
2.82683e-13
2.83114e-13
2.83499e-13
2.83838e-13
2.84133e-13
2.84385e-13
2.84594e-13
2.84762e-13
2.8489e-13
2.84979e-13
2.85029e-13
2.85041e-13
2.85017e-13
2.84956e-13
2.8486e-13
2.8473e-13
2.84565e-13
2.84367e-13
2.84137e-13
2.83874e-13
2.8358e-13
2.83256e-13
2.82901e-13
2.82516e-13
2.82102e-13
2.8166e-13
2.8119e-13
2.80692e-13
2.80167e-13
2.79615e-13
2.79037e-13
2.78433e-13
2.77804e-13
2.77151e-13
2.76473e-13
2.75771e-13
2.75045e-13
2.74296e-13
2.73525e-13
2.72731e-13
2.71915e-13
2.71078e-13
2.7022e-13
2.6934e-13
2.68441e-13
2.67521e-13
2.66582e-13
2.65623e-13
2.64646e-13
2.63649e-13
2.62635e-13
2.61603e-13
2.60553e-13
2.59486e-13
2.58402e-13
2.57302e-13
2.56185e-13
2.55053e-13
2.53905e-13
2.52742e-13
2.51564e-13
2.50372e-13
2.49166e-13
2.47945e-13
2.46712e-13
2.45465e-13
2.44205e-13
2.42933e-13
2.41648e-13
2.40352e-13
2.39044e-13
2.37725e-13
2.36395e-13
2.35054e-13
2.33703e-13
2.32342e-13
2.30971e-13
2.29591e-13
2.28202e-13
2.26804e-13
2.25397e-13
2.23983e-13
2.2256e-13
2.2113e-13
2.19693e-13
2.18249e-13
2.16798e-13
2.1534e-13
2.13877e-13
2.12408e-13
2.10933e-13
2.09453e-13
2.07968e-13
2.06479e-13
2.04985e-13
2.03486e-13
2.01985e-13
2.00479e-13
1.9897e-13
1.97458e-13
1.95944e-13
1.94426e-13
1.92907e-13
1.91386e-13
1.89862e-13
1.88338e-13
1.86812e-13
1.85285e-13
1.83758e-13
1.82229e-13
1.80701e-13
1.79173e-13
1.77645e-13
1.76117e-13
1.7459e-13
1.73064e-13
1.71539e-13
1.70015e-13
1.68493e-13
1.66973e-13
1.65455e-13
1.63939e-13
1.62425e-13
1.60914e-13
1.59406e-13
1.57901e-13
1.56399e-13
1.54901e-13
1.53406e-13
1.51915e-13
1.50427e-13
1.48945e-13
1.47466e-13
1.45992e-13
1.44522e-13
1.43058e-13
1.41598e-13
1.40143e-13
1.38694e-13
1.37251e-13
1.35813e-13
1.3438e-13
1.32954e-13
1.31534e-13
1.3012e-13
1.28712e-13
1.27311e-13
1.25916e-13
1.24528e-13
1.23147e-13
1.21773e-13
1.20407e-13
1.19047e-13
1.17695e-13
1.1635e-13
1.15012e-13
1.13683e-13
1.12361e-13
1.11047e-13
1.09741e-13
1.08442e-13
1.07152e-13
1.05871e-13
1.04597e-13
1.03332e-13
1.02076e-13
1.00827e-13
9.9588e-14
9.83572e-14
9.71351e-14
9.59217e-14
9.47173e-14
9.35218e-14
9.23352e-14
9.11577e-14
8.99892e-14
8.88299e-14
8.76797e-14
8.65387e-14
8.5407e-14
8.42846e-14
8.31715e-14
8.20677e-14
8.09733e-14
7.98884e-14
7.88128e-14
7.77468e-14
7.66902e-14
7.56431e-14
7.46055e-14
7.35775e-14
7.2559e-14
7.15501e-14
7.05507e-14
6.95609e-14
6.85807e-14
6.761e-14
6.66489e-14
6.56974e-14
6.47555e-14
6.38232e-14
6.29004e-14
6.19871e-14
6.10834e-14
6.01892e-14
5.93046e-14
5.84294e-14
5.75637e-14
5.67075e-14
5.58607e-14
5.50234e-14
5.41955e-14
5.33769e-14
5.25677e-14
5.17678e-14
5.09772e-14
5.01959e-14
4.94239e-14
4.8661e-14
4.79073e-14
4.71628e-14
4.64273e-14
4.5701e-14
4.49836e-14
4.42753e-14
4.35759e-14
4.28854e-14
4.22038e-14
4.15311e-14
4.08671e-14
4.02119e-14
3.95654e-14
3.89276e-14
3.82984e-14
3.76777e-14
3.70656e-14
3.64619e-14
3.58667e-14
3.52799e-14
3.47014e-14
3.41312e-14
3.35693e-14
3.30155e-14
3.24698e-14
3.19323e-14
3.14028e-14
3.08813e-14
3.03677e-14
2.9862e-14
2.93641e-14
2.88741e-14
2.83917e-14
2.79171e-14
2.745e-14
2.69906e-14
2.65387e-14
2.60942e-14
2.56572e-14
2.52275e-14
2.48052e-14
2.43901e-14
2.39823e-14
2.35816e-14
2.3188e-14
2.28015e-14
2.2422e-14
2.20495e-14
2.16839e-14
2.13251e-14
2.09732e-14
2.06281e-14
2.02896e-14
1.99578e-14
1.96327e-14
1.93141e-14
1.90021e-14
1.86965e-14
1.83974e-14
1.81047e-14
1.78183e-14
1.75382e-14
1.72644e-14
1.69968e-14
1.67354e-14
1.64801e-14
1.62309e-14
1.59878e-14
1.57506e-14
1.55195e-14
1.52943e-14
1.50749e-14
1.48614e-14
1.46538e-14
1.44519e-14
1.42558e-14
1.40654e-14
1.38807e-14
1.37016e-14
1.35282e-14
1.33603e-14
1.3198e-14
1.30413e-14
1.289e-14
1.27442e-14
1.26039e-14
1.24689e-14
1.23394e-14
1.22153e-14
1.20965e-14
1.1983e-14
1.18748e-14
1.17719e-14
1.16743e-14
1.15819e-14
1.14947e-14
1.14128e-14
1.13361e-14
1.12645e-14
1.11981e-14
1.11369e-14
1.10808e-14
1.10298e-14
1.0984e-14
1.09433e-14
1.09077e-14
1.08772e-14
1.08517e-14
1.08314e-14
1.08162e-14
1.0806e-14
1.08009e-14
4.59022e-15
1.37563e-14
2.28815e-14
3.19423e-14
4.09177e-14
4.97893e-14
5.85406e-14
6.71569e-14
7.56254e-14
8.39348e-14
9.20754e-14
1.00039e-13
1.07818e-13
1.15407e-13
1.22802e-13
1.29999e-13
1.36995e-13
1.4379e-13
1.50382e-13
1.56771e-13
1.62959e-13
1.68946e-13
1.74735e-13
1.80328e-13
1.85728e-13
1.90937e-13
1.95961e-13
2.00801e-13
2.05463e-13
2.0995e-13
2.14267e-13
2.18418e-13
2.22407e-13
2.26239e-13
2.29919e-13
2.3345e-13
2.36837e-13
2.40085e-13
2.43198e-13
2.46179e-13
2.49034e-13
2.51767e-13
2.5438e-13
2.56879e-13
2.59266e-13
2.61546e-13
2.63721e-13
2.65796e-13
2.67774e-13
2.69658e-13
2.7145e-13
2.73154e-13
2.74773e-13
2.7631e-13
2.77766e-13
2.79145e-13
2.80449e-13
2.81681e-13
2.82842e-13
2.83934e-13
2.84961e-13
2.85922e-13
2.86822e-13
2.87661e-13
2.88441e-13
2.89164e-13
2.89831e-13
2.90444e-13
2.91004e-13
2.91513e-13
2.91971e-13
2.92381e-13
2.92744e-13
2.9306e-13
2.93331e-13
2.93558e-13
2.93742e-13
2.93884e-13
2.93984e-13
2.94045e-13
2.94066e-13
2.94048e-13
2.93993e-13
2.93901e-13
2.93773e-13
2.93609e-13
2.93411e-13
2.93178e-13
2.92913e-13
2.92615e-13
2.92284e-13
2.91922e-13
2.9153e-13
2.91107e-13
2.90654e-13
2.90172e-13
2.89661e-13
2.89122e-13
2.88556e-13
2.87962e-13
2.87342e-13
2.86696e-13
2.86023e-13
2.85326e-13
2.84603e-13
2.83856e-13
2.83085e-13
2.82291e-13
2.81473e-13
2.80633e-13
2.79771e-13
2.78886e-13
2.7798e-13
2.77053e-13
2.76105e-13
2.75136e-13
2.74148e-13
2.7314e-13
2.72113e-13
2.71066e-13
2.70002e-13
2.68919e-13
2.67818e-13
2.667e-13
2.65565e-13
2.64414e-13
2.63245e-13
2.62061e-13
2.60861e-13
2.59646e-13
2.58416e-13
2.57171e-13
2.55912e-13
2.54639e-13
2.53353e-13
2.52053e-13
2.5074e-13
2.49414e-13
2.48077e-13
2.46727e-13
2.45365e-13
2.43993e-13
2.42609e-13
2.41215e-13
2.3981e-13
2.38396e-13
2.36971e-13
2.35538e-13
2.34095e-13
2.32643e-13
2.31183e-13
2.29715e-13
2.28239e-13
2.26756e-13
2.25266e-13
2.23768e-13
2.22264e-13
2.20754e-13
2.19237e-13
2.17715e-13
2.16188e-13
2.14655e-13
2.13118e-13
2.11576e-13
2.10029e-13
2.08479e-13
2.06925e-13
2.05368e-13
2.03807e-13
2.02244e-13
2.00678e-13
1.9911e-13
1.9754e-13
1.95968e-13
1.94394e-13
1.92819e-13
1.91243e-13
1.89666e-13
1.88089e-13
1.86512e-13
1.84934e-13
1.83357e-13
1.8178e-13
1.80204e-13
1.78629e-13
1.77055e-13
1.75483e-13
1.73912e-13
1.72343e-13
1.70775e-13
1.69211e-13
1.67648e-13
1.66089e-13
1.64532e-13
1.62979e-13
1.61429e-13
1.59882e-13
1.58339e-13
1.568e-13
1.55265e-13
1.53734e-13
1.52208e-13
1.50686e-13
1.4917e-13
1.47658e-13
1.46151e-13
1.4465e-13
1.43154e-13
1.41664e-13
1.4018e-13
1.38702e-13
1.3723e-13
1.35764e-13
1.34304e-13
1.32851e-13
1.31405e-13
1.29965e-13
1.28533e-13
1.27108e-13
1.25689e-13
1.24279e-13
1.22875e-13
1.21479e-13
1.20091e-13
1.18711e-13
1.17338e-13
1.15974e-13
1.14618e-13
1.1327e-13
1.1193e-13
1.10598e-13
1.09275e-13
1.07961e-13
1.06655e-13
1.05358e-13
1.0407e-13
1.02791e-13
1.0152e-13
1.00259e-13
9.90064e-14
9.77632e-14
9.65293e-14
9.53045e-14
9.40891e-14
9.28831e-14
9.16865e-14
9.04993e-14
8.93217e-14
8.81535e-14
8.6995e-14
8.58461e-14
8.47068e-14
8.35773e-14
8.24574e-14
8.13473e-14
8.0247e-14
7.91564e-14
7.80756e-14
7.70047e-14
7.59436e-14
7.48924e-14
7.3851e-14
7.28195e-14
7.17979e-14
7.07861e-14
6.97842e-14
6.87923e-14
6.78102e-14
6.68379e-14
6.58756e-14
6.49231e-14
6.39805e-14
6.30477e-14
6.21248e-14
6.12117e-14
6.03084e-14
5.94149e-14
5.85311e-14
5.76571e-14
5.67929e-14
5.59383e-14
5.50934e-14
5.42582e-14
5.34326e-14
5.26166e-14
5.18102e-14
5.10133e-14
5.02259e-14
4.94479e-14
4.86794e-14
4.79203e-14
4.71706e-14
4.64302e-14
4.56991e-14
4.49772e-14
4.42645e-14
4.3561e-14
4.28667e-14
4.21813e-14
4.15051e-14
4.08378e-14
4.01794e-14
3.953e-14
3.88894e-14
3.82575e-14
3.76345e-14
3.70201e-14
3.64144e-14
3.58174e-14
3.52288e-14
3.46488e-14
3.40772e-14
3.3514e-14
3.29592e-14
3.24127e-14
3.18744e-14
3.13443e-14
3.08223e-14
3.03084e-14
2.98026e-14
2.93048e-14
2.88148e-14
2.83328e-14
2.78586e-14
2.73921e-14
2.69334e-14
2.64823e-14
2.60388e-14
2.56029e-14
2.51745e-14
2.47535e-14
2.43399e-14
2.39337e-14
2.35348e-14
2.31431e-14
2.27586e-14
2.23812e-14
2.20109e-14
2.16477e-14
2.12914e-14
2.09421e-14
2.05997e-14
2.02641e-14
1.99352e-14
1.96132e-14
1.92978e-14
1.8989e-14
1.86869e-14
1.83913e-14
1.81022e-14
1.78196e-14
1.75434e-14
1.72736e-14
1.70101e-14
1.67529e-14
1.65019e-14
1.62572e-14
1.60186e-14
1.57861e-14
1.55597e-14
1.53394e-14
1.5125e-14
1.49167e-14
1.47142e-14
1.45177e-14
1.43271e-14
1.41422e-14
1.39632e-14
1.379e-14
1.36225e-14
1.34607e-14
1.33045e-14
1.3154e-14
1.30092e-14
1.28699e-14
1.27362e-14
1.26081e-14
1.24855e-14
1.23683e-14
1.22567e-14
1.21505e-14
1.20497e-14
1.19544e-14
1.18644e-14
1.17798e-14
1.17006e-14
1.16268e-14
1.15582e-14
1.1495e-14
1.14371e-14
1.13845e-14
1.13372e-14
1.12952e-14
1.12584e-14
1.1227e-14
1.12007e-14
1.11797e-14
1.1164e-14
1.11535e-14
1.11483e-14
4.63585e-15
1.38952e-14
2.31184e-14
3.22834e-14
4.13699e-14
5.03596e-14
5.92361e-14
6.79846e-14
7.65918e-14
8.50461e-14
9.33373e-14
1.01457e-13
1.09396e-13
1.1715e-13
1.24713e-13
1.32081e-13
1.39251e-13
1.46221e-13
1.5299e-13
1.59557e-13
1.65922e-13
1.72087e-13
1.78052e-13
1.8382e-13
1.89394e-13
1.94775e-13
1.99968e-13
2.04975e-13
2.09801e-13
2.14449e-13
2.18923e-13
2.23228e-13
2.27368e-13
2.31346e-13
2.35168e-13
2.38838e-13
2.4236e-13
2.45738e-13
2.48977e-13
2.52081e-13
2.55054e-13
2.579e-13
2.60623e-13
2.63227e-13
2.65716e-13
2.68094e-13
2.70364e-13
2.72529e-13
2.74593e-13
2.76559e-13
2.78431e-13
2.80211e-13
2.81902e-13
2.83508e-13
2.8503e-13
2.86472e-13
2.87835e-13
2.89123e-13
2.90338e-13
2.91481e-13
2.92556e-13
2.93563e-13
2.94505e-13
2.95385e-13
2.96203e-13
2.96961e-13
2.97661e-13
2.98306e-13
2.98895e-13
2.9943e-13
2.99914e-13
3.00347e-13
3.00731e-13
3.01066e-13
3.01355e-13
3.01598e-13
3.01795e-13
3.0195e-13
3.02061e-13
3.02131e-13
3.02159e-13
3.02148e-13
3.02098e-13
3.0201e-13
3.01884e-13
3.01721e-13
3.01522e-13
3.01289e-13
3.0102e-13
3.00718e-13
3.00383e-13
3.00015e-13
2.99615e-13
2.99183e-13
2.98721e-13
2.98229e-13
2.97707e-13
2.97156e-13
2.96577e-13
2.95969e-13
2.95334e-13
2.94671e-13
2.93982e-13
2.93267e-13
2.92527e-13
2.91761e-13
2.9097e-13
2.90155e-13
2.89316e-13
2.88454e-13
2.87568e-13
2.8666e-13
2.8573e-13
2.84778e-13
2.83805e-13
2.8281e-13
2.81795e-13
2.8076e-13
2.79705e-13
2.7863e-13
2.77537e-13
2.76424e-13
2.75294e-13
2.74145e-13
2.72979e-13
2.71795e-13
2.70595e-13
2.69378e-13
2.68145e-13
2.66897e-13
2.65633e-13
2.64353e-13
2.6306e-13
2.61751e-13
2.60429e-13
2.59093e-13
2.57744e-13
2.56382e-13
2.55007e-13
2.53619e-13
2.5222e-13
2.50809e-13
2.49387e-13
2.47954e-13
2.4651e-13
2.45056e-13
2.43593e-13
2.42119e-13
2.40636e-13
2.39144e-13
2.37643e-13
2.36134e-13
2.34617e-13
2.33093e-13
2.31561e-13
2.30021e-13
2.28475e-13
2.26923e-13
2.25364e-13
2.238e-13
2.22229e-13
2.20654e-13
2.19074e-13
2.17489e-13
2.15899e-13
2.14306e-13
2.12708e-13
2.11108e-13
2.09504e-13
2.07897e-13
2.06287e-13
2.04675e-13
2.03061e-13
2.01445e-13
1.99827e-13
1.98208e-13
1.96588e-13
1.94968e-13
1.93346e-13
1.91725e-13
1.90103e-13
1.88482e-13
1.86861e-13
1.85241e-13
1.83622e-13
1.82004e-13
1.80387e-13
1.78773e-13
1.7716e-13
1.75549e-13
1.7394e-13
1.72334e-13
1.70731e-13
1.69131e-13
1.67534e-13
1.65941e-13
1.64351e-13
1.62765e-13
1.61183e-13
1.59605e-13
1.58031e-13
1.56462e-13
1.54898e-13
1.53339e-13
1.51785e-13
1.50236e-13
1.48693e-13
1.47156e-13
1.45624e-13
1.44098e-13
1.42579e-13
1.41065e-13
1.39558e-13
1.38058e-13
1.36565e-13
1.35078e-13
1.33598e-13
1.32126e-13
1.3066e-13
1.29203e-13
1.27752e-13
1.2631e-13
1.24875e-13
1.23448e-13
1.22029e-13
1.20618e-13
1.19216e-13
1.17821e-13
1.16436e-13
1.15058e-13
1.1369e-13
1.1233e-13
1.10979e-13
1.09636e-13
1.08303e-13
1.06979e-13
1.05664e-13
1.04358e-13
1.03061e-13
1.01774e-13
1.00496e-13
9.92274e-14
9.79684e-14
9.67191e-14
9.54793e-14
9.42492e-14
9.30289e-14
9.18183e-14
9.06176e-14
8.94266e-14
8.82456e-14
8.70745e-14
8.59134e-14
8.47622e-14
8.36211e-14
8.249e-14
8.13689e-14
8.0258e-14
7.91571e-14
7.80664e-14
7.69857e-14
7.59152e-14
7.48549e-14
7.38047e-14
7.27647e-14
7.17348e-14
7.07151e-14
6.97055e-14
6.87062e-14
6.77169e-14
6.67378e-14
6.57688e-14
6.481e-14
6.38613e-14
6.29226e-14
6.19941e-14
6.10756e-14
6.01672e-14
5.92687e-14
5.83803e-14
5.75019e-14
5.66334e-14
5.57748e-14
5.49261e-14
5.40873e-14
5.32583e-14
5.24391e-14
5.16297e-14
5.08301e-14
5.00401e-14
4.92598e-14
4.84891e-14
4.7728e-14
4.69764e-14
4.62344e-14
4.55018e-14
4.47786e-14
4.40648e-14
4.33604e-14
4.26652e-14
4.19792e-14
4.13025e-14
4.06349e-14
3.99764e-14
3.93269e-14
3.86864e-14
3.80549e-14
3.74323e-14
3.68185e-14
3.62135e-14
3.56173e-14
3.50297e-14
3.44508e-14
3.38804e-14
3.33186e-14
3.27653e-14
3.22204e-14
3.16838e-14
3.11556e-14
3.06356e-14
3.01239e-14
2.96203e-14
2.91247e-14
2.86372e-14
2.81578e-14
2.76862e-14
2.72225e-14
2.67666e-14
2.63185e-14
2.58781e-14
2.54454e-14
2.50203e-14
2.46027e-14
2.41926e-14
2.379e-14
2.33947e-14
2.30068e-14
2.26262e-14
2.22528e-14
2.18865e-14
2.15275e-14
2.11754e-14
2.08305e-14
2.04925e-14
2.01614e-14
1.98372e-14
1.95198e-14
1.92092e-14
1.89054e-14
1.86082e-14
1.83177e-14
1.80338e-14
1.77564e-14
1.74856e-14
1.72212e-14
1.69632e-14
1.67116e-14
1.64663e-14
1.62273e-14
1.59946e-14
1.57681e-14
1.55478e-14
1.53336e-14
1.51255e-14
1.49235e-14
1.47275e-14
1.45375e-14
1.43535e-14
1.41754e-14
1.40032e-14
1.38369e-14
1.36764e-14
1.35217e-14
1.33728e-14
1.32297e-14
1.30922e-14
1.29605e-14
1.28344e-14
1.2714e-14
1.25993e-14
1.24901e-14
1.23865e-14
1.22885e-14
1.2196e-14
1.21091e-14
1.20277e-14
1.19517e-14
1.18813e-14
1.18163e-14
1.17568e-14
1.17028e-14
1.16541e-14
1.16109e-14
1.15731e-14
1.15408e-14
1.15138e-14
1.14922e-14
1.14761e-14
1.14653e-14
1.14599e-14
4.67845e-15
1.40242e-14
2.33369e-14
3.25959e-14
4.17816e-14
5.08762e-14
5.98633e-14
6.87281e-14
7.74572e-14
8.60387e-14
9.44619e-14
1.02718e-13
1.10798e-13
1.18696e-13
1.26406e-13
1.33924e-13
1.41246e-13
1.4837e-13
1.55293e-13
1.62015e-13
1.68536e-13
1.74856e-13
1.80976e-13
1.86898e-13
1.92624e-13
1.98156e-13
2.03498e-13
2.08652e-13
2.13622e-13
2.18411e-13
2.23024e-13
2.27464e-13
2.31736e-13
2.35844e-13
2.39791e-13
2.43583e-13
2.47223e-13
2.50716e-13
2.54067e-13
2.57278e-13
2.60355e-13
2.63302e-13
2.66122e-13
2.6882e-13
2.71399e-13
2.73863e-13
2.76216e-13
2.78461e-13
2.80601e-13
2.82641e-13
2.84583e-13
2.8643e-13
2.88185e-13
2.89851e-13
2.91432e-13
2.92929e-13
2.94345e-13
2.95683e-13
2.96945e-13
2.98134e-13
2.99251e-13
3.00299e-13
3.01279e-13
3.02194e-13
3.03046e-13
3.03836e-13
3.04566e-13
3.05237e-13
3.05852e-13
3.06412e-13
3.06918e-13
3.07371e-13
3.07774e-13
3.08126e-13
3.0843e-13
3.08687e-13
3.08897e-13
3.09063e-13
3.09184e-13
3.09262e-13
3.09297e-13
3.09292e-13
3.09246e-13
3.09161e-13
3.09037e-13
3.08875e-13
3.08677e-13
3.08441e-13
3.08171e-13
3.07865e-13
3.07525e-13
3.07152e-13
3.06746e-13
3.06307e-13
3.05837e-13
3.05336e-13
3.04804e-13
3.04242e-13
3.03651e-13
3.03031e-13
3.02383e-13
3.01707e-13
3.01003e-13
3.00273e-13
2.99516e-13
2.98733e-13
2.97925e-13
2.97092e-13
2.96234e-13
2.95352e-13
2.94447e-13
2.93518e-13
2.92567e-13
2.91593e-13
2.90597e-13
2.89579e-13
2.88541e-13
2.87482e-13
2.86402e-13
2.85302e-13
2.84183e-13
2.83045e-13
2.81887e-13
2.80712e-13
2.79518e-13
2.78307e-13
2.77078e-13
2.75833e-13
2.74571e-13
2.73292e-13
2.71998e-13
2.70689e-13
2.69364e-13
2.68025e-13
2.66671e-13
2.65303e-13
2.63922e-13
2.62527e-13
2.6112e-13
2.59699e-13
2.58267e-13
2.56822e-13
2.55366e-13
2.53899e-13
2.52421e-13
2.50932e-13
2.49433e-13
2.47924e-13
2.46406e-13
2.44878e-13
2.43342e-13
2.41797e-13
2.40243e-13
2.38682e-13
2.37113e-13
2.35537e-13
2.33954e-13
2.32365e-13
2.30769e-13
2.29167e-13
2.27559e-13
2.25946e-13
2.24328e-13
2.22705e-13
2.21077e-13
2.19445e-13
2.1781e-13
2.16171e-13
2.14528e-13
2.12883e-13
2.11234e-13
2.09584e-13
2.07931e-13
2.06276e-13
2.0462e-13
2.02962e-13
2.01303e-13
1.99644e-13
1.97984e-13
1.96323e-13
1.94663e-13
1.93003e-13
1.91343e-13
1.89684e-13
1.88026e-13
1.86369e-13
1.84714e-13
1.8306e-13
1.81409e-13
1.79759e-13
1.78112e-13
1.76468e-13
1.74826e-13
1.73188e-13
1.71552e-13
1.69921e-13
1.68293e-13
1.66669e-13
1.65049e-13
1.63433e-13
1.61822e-13
1.60215e-13
1.58614e-13
1.57017e-13
1.55426e-13
1.5384e-13
1.5226e-13
1.50685e-13
1.49117e-13
1.47555e-13
1.45998e-13
1.44449e-13
1.42906e-13
1.4137e-13
1.3984e-13
1.38318e-13
1.36803e-13
1.35295e-13
1.33794e-13
1.32302e-13
1.30817e-13
1.29339e-13
1.2787e-13
1.26409e-13
1.24956e-13
1.23511e-13
1.22075e-13
1.20647e-13
1.19228e-13
1.17818e-13
1.16417e-13
1.15024e-13
1.13641e-13
1.12266e-13
1.10901e-13
1.09545e-13
1.08198e-13
1.06861e-13
1.05533e-13
1.04215e-13
1.02906e-13
1.01607e-13
1.00318e-13
9.9039e-14
9.77695e-14
9.65099e-14
9.52603e-14
9.40207e-14
9.27911e-14
9.15716e-14
9.03623e-14
8.91631e-14
8.79741e-14
8.67953e-14
8.56268e-14
8.44686e-14
8.33206e-14
8.2183e-14
8.10558e-14
7.99388e-14
7.88323e-14
7.77361e-14
7.66504e-14
7.5575e-14
7.451e-14
7.34554e-14
7.24113e-14
7.13775e-14
7.03541e-14
6.93412e-14
6.83386e-14
6.73464e-14
6.63645e-14
6.5393e-14
6.44319e-14
6.34811e-14
6.25406e-14
6.16103e-14
6.06903e-14
5.97806e-14
5.88811e-14
5.79918e-14
5.71126e-14
5.62436e-14
5.53846e-14
5.45358e-14
5.36969e-14
5.28681e-14
5.20493e-14
5.12404e-14
5.04413e-14
4.96522e-14
4.88728e-14
4.81032e-14
4.73434e-14
4.65932e-14
4.58527e-14
4.51218e-14
4.44004e-14
4.36886e-14
4.29862e-14
4.22932e-14
4.16095e-14
4.09352e-14
4.02702e-14
3.96144e-14
3.89677e-14
3.83301e-14
3.77016e-14
3.70821e-14
3.64716e-14
3.58699e-14
3.52771e-14
3.46931e-14
3.41178e-14
3.35512e-14
3.29932e-14
3.24438e-14
3.19029e-14
3.13705e-14
3.08464e-14
3.03307e-14
2.98233e-14
2.93241e-14
2.88331e-14
2.83503e-14
2.78754e-14
2.74086e-14
2.69498e-14
2.64988e-14
2.60557e-14
2.56204e-14
2.51928e-14
2.47729e-14
2.43606e-14
2.39558e-14
2.35586e-14
2.31689e-14
2.27865e-14
2.24115e-14
2.20438e-14
2.16834e-14
2.13301e-14
2.0984e-14
2.0645e-14
2.0313e-14
1.9988e-14
1.967e-14
1.93589e-14
1.90546e-14
1.87571e-14
1.84663e-14
1.81823e-14
1.7905e-14
1.76342e-14
1.73701e-14
1.71124e-14
1.68613e-14
1.66166e-14
1.63783e-14
1.61463e-14
1.59207e-14
1.57014e-14
1.54883e-14
1.52815e-14
1.50808e-14
1.48862e-14
1.46978e-14
1.45154e-14
1.43391e-14
1.41688e-14
1.40044e-14
1.3846e-14
1.36936e-14
1.3547e-14
1.34063e-14
1.32714e-14
1.31423e-14
1.3019e-14
1.29015e-14
1.27897e-14
1.26836e-14
1.25832e-14
1.24886e-14
1.23995e-14
1.23162e-14
1.22384e-14
1.21663e-14
1.20998e-14
1.20388e-14
1.19835e-14
1.19337e-14
1.18894e-14
1.18507e-14
1.18176e-14
1.179e-14
1.17679e-14
1.17513e-14
1.17403e-14
1.17348e-14
4.7167e-15
1.41397e-14
2.3532e-14
3.28736e-14
4.21461e-14
5.13318e-14
6.04146e-14
6.93798e-14
7.82138e-14
8.69045e-14
9.5441e-14
1.03814e-13
1.12015e-13
1.20037e-13
1.27873e-13
1.35519e-13
1.42972e-13
1.50227e-13
1.57283e-13
1.64139e-13
1.70793e-13
1.77246e-13
1.835e-13
1.89554e-13
1.9541e-13
2.01072e-13
2.06542e-13
2.11822e-13
2.16916e-13
2.21827e-13
2.26559e-13
2.31116e-13
2.35502e-13
2.3972e-13
2.43776e-13
2.47673e-13
2.51416e-13
2.55008e-13
2.58455e-13
2.61759e-13
2.64926e-13
2.6796e-13
2.70864e-13
2.73642e-13
2.76299e-13
2.78838e-13
2.81262e-13
2.83576e-13
2.85783e-13
2.87886e-13
2.89888e-13
2.91793e-13
2.93604e-13
2.95323e-13
2.96954e-13
2.98499e-13
2.99961e-13
3.01342e-13
3.02646e-13
3.03873e-13
3.05027e-13
3.0611e-13
3.07123e-13
3.08069e-13
3.0895e-13
3.09767e-13
3.10523e-13
3.11219e-13
3.11856e-13
3.12436e-13
3.12961e-13
3.13433e-13
3.13851e-13
3.14219e-13
3.14536e-13
3.14805e-13
3.15026e-13
3.15201e-13
3.15331e-13
3.15416e-13
3.15458e-13
3.15457e-13
3.15415e-13
3.15333e-13
3.15211e-13
3.1505e-13
3.14851e-13
3.14615e-13
3.14342e-13
3.14034e-13
3.1369e-13
3.13312e-13
3.12901e-13
3.12456e-13
3.11979e-13
3.1147e-13
3.1093e-13
3.10359e-13
3.09757e-13
3.09127e-13
3.08467e-13
3.07779e-13
3.07063e-13
3.06319e-13
3.05548e-13
3.04751e-13
3.03928e-13
3.03079e-13
3.02205e-13
3.01306e-13
3.00384e-13
2.99437e-13
2.98467e-13
2.97475e-13
2.9646e-13
2.95422e-13
2.94363e-13
2.93283e-13
2.92182e-13
2.91061e-13
2.8992e-13
2.88759e-13
2.87579e-13
2.8638e-13
2.85163e-13
2.83927e-13
2.82674e-13
2.81404e-13
2.80117e-13
2.78813e-13
2.77493e-13
2.76157e-13
2.74806e-13
2.7344e-13
2.72059e-13
2.70664e-13
2.69255e-13
2.67832e-13
2.66396e-13
2.64947e-13
2.63486e-13
2.62013e-13
2.60527e-13
2.5903e-13
2.57523e-13
2.56004e-13
2.54475e-13
2.52935e-13
2.51386e-13
2.49828e-13
2.48261e-13
2.46684e-13
2.451e-13
2.43507e-13
2.41907e-13
2.40299e-13
2.38684e-13
2.37062e-13
2.35434e-13
2.33799e-13
2.32159e-13
2.30514e-13
2.28863e-13
2.27207e-13
2.25547e-13
2.23882e-13
2.22213e-13
2.20541e-13
2.18865e-13
2.17187e-13
2.15505e-13
2.13821e-13
2.12135e-13
2.10447e-13
2.08757e-13
2.07066e-13
2.05373e-13
2.0368e-13
2.01987e-13
2.00293e-13
1.98599e-13
1.96905e-13
1.95212e-13
1.93519e-13
1.91828e-13
1.90137e-13
1.88449e-13
1.86762e-13
1.85077e-13
1.83394e-13
1.81713e-13
1.80036e-13
1.78361e-13
1.76689e-13
1.75021e-13
1.73356e-13
1.71695e-13
1.70038e-13
1.68386e-13
1.66737e-13
1.65094e-13
1.63455e-13
1.61821e-13
1.60192e-13
1.58568e-13
1.5695e-13
1.55338e-13
1.53732e-13
1.52132e-13
1.50538e-13
1.4895e-13
1.47369e-13
1.45795e-13
1.44228e-13
1.42668e-13
1.41114e-13
1.39569e-13
1.3803e-13
1.365e-13
1.34977e-13
1.33462e-13
1.31955e-13
1.30456e-13
1.28965e-13
1.27483e-13
1.26009e-13
1.24543e-13
1.23087e-13
1.21639e-13
1.202e-13
1.1877e-13
1.1735e-13
1.15938e-13
1.14536e-13
1.13143e-13
1.1176e-13
1.10386e-13
1.09022e-13
1.07667e-13
1.06322e-13
1.04987e-13
1.03662e-13
1.02347e-13
1.01041e-13
9.97463e-14
9.84613e-14
9.71864e-14
9.59217e-14
9.46673e-14
9.34231e-14
9.21893e-14
9.09659e-14
8.97529e-14
8.85503e-14
8.73581e-14
8.61765e-14
8.50053e-14
8.38447e-14
8.26947e-14
8.15552e-14
8.04262e-14
7.93079e-14
7.82002e-14
7.71031e-14
7.60165e-14
7.49406e-14
7.38754e-14
7.28207e-14
7.17766e-14
7.07432e-14
6.97203e-14
6.87081e-14
6.77064e-14
6.67153e-14
6.57347e-14
6.47646e-14
6.38051e-14
6.2856e-14
6.19175e-14
6.09893e-14
6.00716e-14
5.91643e-14
5.82674e-14
5.73808e-14
5.65045e-14
5.56384e-14
5.47827e-14
5.39371e-14
5.31017e-14
5.22764e-14
5.14612e-14
5.06561e-14
4.9861e-14
4.90758e-14
4.83006e-14
4.75353e-14
4.67798e-14
4.60341e-14
4.52982e-14
4.45719e-14
4.38553e-14
4.31483e-14
4.24509e-14
4.17629e-14
4.10844e-14
4.04153e-14
3.97556e-14
3.91051e-14
3.84639e-14
3.78319e-14
3.7209e-14
3.65952e-14
3.59904e-14
3.53946e-14
3.48077e-14
3.42296e-14
3.36603e-14
3.30998e-14
3.2548e-14
3.20048e-14
3.14701e-14
3.0944e-14
3.04263e-14
2.99171e-14
2.94161e-14
2.89235e-14
2.84391e-14
2.79628e-14
2.74947e-14
2.70346e-14
2.65826e-14
2.61384e-14
2.57022e-14
2.52738e-14
2.48531e-14
2.44402e-14
2.4035e-14
2.36373e-14
2.32472e-14
2.28647e-14
2.24895e-14
2.21218e-14
2.17614e-14
2.14083e-14
2.10624e-14
2.07237e-14
2.03922e-14
2.00677e-14
1.97503e-14
1.94398e-14
1.91363e-14
1.88397e-14
1.855e-14
1.8267e-14
1.79908e-14
1.77213e-14
1.74584e-14
1.72022e-14
1.69525e-14
1.67094e-14
1.64728e-14
1.62426e-14
1.60189e-14
1.58015e-14
1.55905e-14
1.53857e-14
1.51872e-14
1.4995e-14
1.48089e-14
1.4629e-14
1.44553e-14
1.42876e-14
1.4126e-14
1.39704e-14
1.38209e-14
1.36773e-14
1.35397e-14
1.3408e-14
1.32822e-14
1.31623e-14
1.30483e-14
1.29401e-14
1.28377e-14
1.27411e-14
1.26502e-14
1.25652e-14
1.24859e-14
1.24123e-14
1.23444e-14
1.22822e-14
1.22258e-14
1.21749e-14
1.21298e-14
1.20903e-14
1.20565e-14
1.20283e-14
1.20058e-14
1.19889e-14
1.19777e-14
1.1972e-14
4.7497e-15
1.42393e-14
2.36996e-14
3.31117e-14
4.24576e-14
5.17202e-14
6.08835e-14
6.99328e-14
7.88545e-14
8.76365e-14
9.62677e-14
1.04738e-13
1.1304e-13
1.21165e-13
1.29106e-13
1.3686e-13
1.44421e-13
1.51786e-13
1.58953e-13
1.65919e-13
1.72685e-13
1.7925e-13
1.85614e-13
1.91778e-13
1.97745e-13
2.03515e-13
2.09091e-13
2.14477e-13
2.19674e-13
2.24687e-13
2.29519e-13
2.34173e-13
2.38655e-13
2.42966e-13
2.47113e-13
2.51098e-13
2.54926e-13
2.58602e-13
2.62129e-13
2.65511e-13
2.68754e-13
2.7186e-13
2.74834e-13
2.7768e-13
2.80402e-13
2.83004e-13
2.85489e-13
2.8786e-13
2.90123e-13
2.92279e-13
2.94332e-13
2.96286e-13
2.98143e-13
2.99907e-13
3.0158e-13
3.03165e-13
3.04666e-13
3.06084e-13
3.07421e-13
3.08682e-13
3.09867e-13
3.10979e-13
3.1202e-13
3.12992e-13
3.13898e-13
3.14738e-13
3.15515e-13
3.16231e-13
3.16887e-13
3.17485e-13
3.18026e-13
3.18512e-13
3.18945e-13
3.19325e-13
3.19653e-13
3.19932e-13
3.20163e-13
3.20346e-13
3.20482e-13
3.20574e-13
3.20621e-13
3.20625e-13
3.20586e-13
3.20506e-13
3.20386e-13
3.20225e-13
3.20026e-13
3.19789e-13
3.19515e-13
3.19204e-13
3.18858e-13
3.18476e-13
3.1806e-13
3.1761e-13
3.17127e-13
3.16611e-13
3.16064e-13
3.15485e-13
3.14876e-13
3.14236e-13
3.13567e-13
3.12869e-13
3.12142e-13
3.11387e-13
3.10605e-13
3.09796e-13
3.0896e-13
3.08098e-13
3.0721e-13
3.06298e-13
3.05361e-13
3.04399e-13
3.03414e-13
3.02405e-13
3.01374e-13
3.0032e-13
2.99244e-13
2.98147e-13
2.97028e-13
2.95889e-13
2.94729e-13
2.93549e-13
2.9235e-13
2.91132e-13
2.89894e-13
2.88639e-13
2.87365e-13
2.86074e-13
2.84766e-13
2.83441e-13
2.82099e-13
2.80741e-13
2.79368e-13
2.77979e-13
2.76576e-13
2.75158e-13
2.73725e-13
2.72279e-13
2.7082e-13
2.69347e-13
2.67861e-13
2.66364e-13
2.64854e-13
2.63332e-13
2.61799e-13
2.60255e-13
2.58701e-13
2.57136e-13
2.55562e-13
2.53977e-13
2.52384e-13
2.50782e-13
2.49171e-13
2.47552e-13
2.45925e-13
2.4429e-13
2.42648e-13
2.41e-13
2.39344e-13
2.37683e-13
2.36016e-13
2.34343e-13
2.32664e-13
2.30981e-13
2.29293e-13
2.27601e-13
2.25905e-13
2.24205e-13
2.22501e-13
2.20795e-13
2.19085e-13
2.17373e-13
2.15659e-13
2.13943e-13
2.12225e-13
2.10505e-13
2.08785e-13
2.07064e-13
2.05342e-13
2.0362e-13
2.01898e-13
2.00176e-13
1.98455e-13
1.96734e-13
1.95014e-13
1.93296e-13
1.91579e-13
1.89864e-13
1.88151e-13
1.86441e-13
1.84732e-13
1.83027e-13
1.81324e-13
1.79625e-13
1.77929e-13
1.76236e-13
1.74548e-13
1.72863e-13
1.71183e-13
1.69507e-13
1.67836e-13
1.6617e-13
1.64509e-13
1.62853e-13
1.61203e-13
1.59558e-13
1.57919e-13
1.56286e-13
1.54659e-13
1.53039e-13
1.51425e-13
1.49818e-13
1.48217e-13
1.46624e-13
1.45038e-13
1.43459e-13
1.41887e-13
1.40324e-13
1.38767e-13
1.37219e-13
1.35679e-13
1.34147e-13
1.32623e-13
1.31107e-13
1.296e-13
1.28102e-13
1.26613e-13
1.25132e-13
1.2366e-13
1.22197e-13
1.20744e-13
1.19299e-13
1.17864e-13
1.16439e-13
1.15023e-13
1.13616e-13
1.1222e-13
1.10833e-13
1.09456e-13
1.08088e-13
1.06731e-13
1.05384e-13
1.04047e-13
1.0272e-13
1.01403e-13
1.00097e-13
9.8801e-14
9.75153e-14
9.624e-14
9.49752e-14
9.37209e-14
9.24772e-14
9.1244e-14
9.00214e-14
8.88095e-14
8.76082e-14
8.64176e-14
8.52377e-14
8.40685e-14
8.29101e-14
8.17624e-14
8.06255e-14
7.94994e-14
7.8384e-14
7.72795e-14
7.61857e-14
7.51027e-14
7.40305e-14
7.29691e-14
7.19185e-14
7.08787e-14
6.98496e-14
6.88312e-14
6.78236e-14
6.68268e-14
6.58406e-14
6.48651e-14
6.39003e-14
6.29461e-14
6.20026e-14
6.10696e-14
6.01473e-14
5.92354e-14
5.83341e-14
5.74432e-14
5.65628e-14
5.56928e-14
5.48332e-14
5.39839e-14
5.31449e-14
5.23162e-14
5.14977e-14
5.06894e-14
4.98912e-14
4.91031e-14
4.8325e-14
4.7557e-14
4.67989e-14
4.60507e-14
4.53124e-14
4.45839e-14
4.38652e-14
4.31561e-14
4.24568e-14
4.1767e-14
4.10868e-14
4.04161e-14
3.97548e-14
3.9103e-14
3.84604e-14
3.78272e-14
3.72032e-14
3.65883e-14
3.59826e-14
3.53859e-14
3.47983e-14
3.42195e-14
3.36497e-14
3.30887e-14
3.25365e-14
3.1993e-14
3.14581e-14
3.09318e-14
3.04141e-14
2.99048e-14
2.9404e-14
2.89115e-14
2.84274e-14
2.79515e-14
2.74838e-14
2.70242e-14
2.65727e-14
2.61292e-14
2.56937e-14
2.5266e-14
2.48463e-14
2.44343e-14
2.403e-14
2.36335e-14
2.32445e-14
2.28632e-14
2.24893e-14
2.21229e-14
2.17639e-14
2.14123e-14
2.1068e-14
2.0731e-14
2.04011e-14
2.00784e-14
1.97628e-14
1.94543e-14
1.91527e-14
1.88581e-14
1.85705e-14
1.82897e-14
1.80157e-14
1.77485e-14
1.7488e-14
1.72342e-14
1.6987e-14
1.67465e-14
1.65125e-14
1.6285e-14
1.6064e-14
1.58495e-14
1.56413e-14
1.54395e-14
1.52441e-14
1.5055e-14
1.48721e-14
1.46954e-14
1.4525e-14
1.43607e-14
1.42025e-14
1.40505e-14
1.39045e-14
1.37646e-14
1.36308e-14
1.35029e-14
1.3381e-14
1.32651e-14
1.3155e-14
1.3051e-14
1.29527e-14
1.28604e-14
1.27739e-14
1.26933e-14
1.26185e-14
1.25495e-14
1.24863e-14
1.24289e-14
1.23772e-14
1.23313e-14
1.22912e-14
1.22568e-14
1.22282e-14
1.22053e-14
1.21881e-14
1.21766e-14
1.21709e-14
4.77678e-15
1.43209e-14
2.38368e-14
3.33064e-14
4.27118e-14
5.20365e-14
6.12646e-14
7.03816e-14
7.93738e-14
8.8229e-14
9.6936e-14
1.05485e-13
1.13867e-13
1.22074e-13
1.301e-13
1.37939e-13
1.45587e-13
1.5304e-13
1.60296e-13
1.67351e-13
1.74206e-13
1.8086e-13
1.87313e-13
1.93566e-13
1.9962e-13
2.05477e-13
2.11139e-13
2.16609e-13
2.2189e-13
2.26984e-13
2.31896e-13
2.36629e-13
2.41187e-13
2.45573e-13
2.49792e-13
2.53848e-13
2.57746e-13
2.61488e-13
2.6508e-13
2.68525e-13
2.71828e-13
2.74993e-13
2.78024e-13
2.80924e-13
2.83699e-13
2.86351e-13
2.88884e-13
2.91302e-13
2.93609e-13
2.95808e-13
2.97903e-13
2.99895e-13
3.0179e-13
3.0359e-13
3.05297e-13
3.06915e-13
3.08446e-13
3.09893e-13
3.11259e-13
3.12546e-13
3.13756e-13
3.14892e-13
3.15955e-13
3.16948e-13
3.17874e-13
3.18733e-13