/*--------------------------------*- C++ -*----------------------------------*\
  =========                 |
  \\      /  F ield         | OpenFOAM: The Open Source CFD Toolbox
   \\    /   O peration     | Website:  https://openfoam.org
    \\  /    A nd           | Version:  10
     \\/     M anipulation  |
\*---------------------------------------------------------------------------*/
FoamFile
{
    format      ascii;
    class       volScalarField;
    location    "0.46";
    object      Exp1;
}
// * * * * * * * * * * * * * * * * * * * * * * * * * * * * * * * * * * * * * //

dimensions      [0 0 0 0 0 0 0];

internalField   uniform 0;

boundaryField
{
    frontAndBack
    {
        type            empty;
    }
    inlet
    {
        type            calculated;
        value           uniform 0;
    }
    outlet
    {
        type            calculated;
        value           uniform 0;
    }
    substrate
    {
        type            calculated;
        value           nonuniform List<scalar> 
400
(
3.05329e-09
9.14341e-09
1.51951e-08
2.11913e-08
2.71172e-08
3.29597e-08
3.87073e-08
4.43497e-08
4.98783e-08
5.52851e-08
6.05636e-08
6.57082e-08
7.07142e-08
7.5578e-08
8.02967e-08
8.4868e-08
8.92906e-08
9.35638e-08
9.76872e-08
1.01661e-07
1.05487e-07
1.09165e-07
1.12697e-07
1.16086e-07
1.19332e-07
1.22439e-07
1.25409e-07
1.28245e-07
1.3095e-07
1.33526e-07
1.35977e-07
1.38305e-07
1.40514e-07
1.42606e-07
1.44586e-07
1.46455e-07
1.48217e-07
1.49875e-07
1.51431e-07
1.52889e-07
1.54251e-07
1.55521e-07
1.56701e-07
1.57793e-07
1.588e-07
1.59724e-07
1.60569e-07
1.61336e-07
1.62027e-07
1.62645e-07
1.63192e-07
1.6367e-07
1.64081e-07
1.64427e-07
1.6471e-07
1.64931e-07
1.65093e-07
1.65197e-07
1.65244e-07
1.65237e-07
1.65177e-07
1.65066e-07
1.64904e-07
1.64694e-07
1.64436e-07
1.64133e-07
1.63785e-07
1.63393e-07
1.6296e-07
1.62486e-07
1.61972e-07
1.61419e-07
1.6083e-07
1.60204e-07
1.59543e-07
1.58847e-07
1.58119e-07
1.57359e-07
1.56567e-07
1.55746e-07
1.54895e-07
1.54017e-07
1.53111e-07
1.52178e-07
1.51221e-07
1.50238e-07
1.49232e-07
1.48203e-07
1.47153e-07
1.46081e-07
1.44988e-07
1.43877e-07
1.42746e-07
1.41598e-07
1.40432e-07
1.3925e-07
1.38052e-07
1.36839e-07
1.35613e-07
1.34372e-07
1.33119e-07
1.31854e-07
1.30578e-07
1.29291e-07
1.27994e-07
1.26687e-07
1.25372e-07
1.24049e-07
1.22719e-07
1.21382e-07
1.20038e-07
1.18689e-07
1.17335e-07
1.15977e-07
1.14615e-07
1.1325e-07
1.11883e-07
1.10513e-07
1.09141e-07
1.07769e-07
1.06396e-07
1.05023e-07
1.03651e-07
1.0228e-07
1.0091e-07
9.95422e-08
9.81768e-08
9.68143e-08
9.54551e-08
9.40996e-08
9.27484e-08
9.14017e-08
9.00599e-08
8.87236e-08
8.7393e-08
8.60684e-08
8.47504e-08
8.34392e-08
8.21351e-08
8.08385e-08
7.95497e-08
7.8269e-08
7.69967e-08
7.5733e-08
7.44783e-08
7.32329e-08
7.19969e-08
7.07706e-08
6.95543e-08
6.83481e-08
6.71524e-08
6.59672e-08
6.47928e-08
6.36294e-08
6.24772e-08
6.13363e-08
6.02069e-08
5.90891e-08
5.79831e-08
5.6889e-08
5.58069e-08
5.47369e-08
5.36792e-08
5.26338e-08
5.16009e-08
5.05805e-08
4.95726e-08
4.85774e-08
4.75949e-08
4.66252e-08
4.56682e-08
4.47241e-08
4.37929e-08
4.28745e-08
4.1969e-08
4.10764e-08
4.01967e-08
3.93299e-08
3.8476e-08
3.76349e-08
3.68067e-08
3.59913e-08
3.51886e-08
3.43987e-08
3.36215e-08
3.28569e-08
3.2105e-08
3.13655e-08
3.06385e-08
2.99238e-08
2.92215e-08
2.85314e-08
2.78535e-08
2.71877e-08
2.65338e-08
2.58918e-08
2.52616e-08
2.46431e-08
2.40362e-08
2.34408e-08
2.28568e-08
2.2284e-08
2.17224e-08
2.11718e-08
2.06322e-08
2.01033e-08
1.95852e-08
1.90776e-08
1.85805e-08
1.80936e-08
1.7617e-08
1.71504e-08
1.66937e-08
1.62468e-08
1.58096e-08
1.53819e-08
1.49637e-08
1.45547e-08
1.41548e-08
1.37639e-08
1.33819e-08
1.30086e-08
1.26439e-08
1.22876e-08
1.19397e-08
1.15999e-08
1.12682e-08
1.09445e-08
1.06285e-08
1.03201e-08
1.00193e-08
9.7258e-09
9.43959e-09
9.16049e-09
8.88838e-09
8.62313e-09
8.3646e-09
8.11267e-09
7.86721e-09
7.62809e-09
7.3952e-09
7.1684e-09
6.94758e-09
6.73261e-09
6.52337e-09
6.31974e-09
6.12161e-09
5.92885e-09
5.74136e-09
5.55901e-09
5.38171e-09
5.20932e-09
5.04176e-09
4.8789e-09
4.72064e-09
4.56688e-09
4.41752e-09
4.27244e-09
4.13155e-09
3.99476e-09
3.86195e-09
3.73305e-09
3.60794e-09
3.48655e-09
3.36877e-09
3.25453e-09
3.14372e-09
3.03627e-09
2.93209e-09
2.83109e-09
2.7332e-09
2.63833e-09
2.5464e-09
2.45734e-09
2.37107e-09
2.28751e-09
2.2066e-09
2.12826e-09
2.05243e-09
1.97902e-09
1.90798e-09
1.83924e-09
1.77274e-09
1.70841e-09
1.64619e-09
1.58602e-09
1.52785e-09
1.47161e-09
1.41725e-09
1.36471e-09
1.31395e-09
1.2649e-09
1.21752e-09
1.17176e-09
1.12756e-09
1.08489e-09
1.0437e-09
1.00393e-09
9.65554e-10
9.28519e-10
8.92785e-10
8.58313e-10
8.25063e-10
7.92996e-10
7.62074e-10
7.32262e-10
7.03523e-10
6.75823e-10
6.49129e-10
6.23407e-10
5.98626e-10
5.74755e-10
5.51764e-10
5.29624e-10
5.08307e-10
4.87784e-10
4.68029e-10
4.49017e-10
4.30721e-10
4.13118e-10
3.96184e-10
3.79896e-10
3.64231e-10
3.49168e-10
3.34686e-10
3.20764e-10
3.07383e-10
2.94524e-10
2.82168e-10
2.70297e-10
2.58894e-10
2.47942e-10
2.37425e-10
2.27328e-10
2.17634e-10
2.08329e-10
1.994e-10
1.90831e-10
1.82611e-10
1.74725e-10
1.67162e-10
1.5991e-10
1.52957e-10
1.46292e-10
1.39903e-10
1.33781e-10
1.27916e-10
1.22298e-10
1.16917e-10
1.11764e-10
1.06831e-10
1.02109e-10
9.75911e-11
9.32681e-11
8.91331e-11
8.51789e-11
8.13984e-11
7.7785e-11
7.43322e-11
7.1034e-11
6.78843e-11
6.48775e-11
6.2008e-11
5.92706e-11
5.66604e-11
5.41724e-11
5.18019e-11
4.95447e-11
4.73963e-11
4.53528e-11
4.34103e-11
4.1565e-11
3.98135e-11
3.81522e-11
3.65781e-11
3.5088e-11
3.3679e-11
3.23484e-11
3.10935e-11
2.99118e-11
2.88011e-11
2.7759e-11
2.67836e-11
2.58727e-11
2.50247e-11
2.42377e-11
2.35103e-11
2.28408e-11
2.2228e-11
2.16706e-11
2.11675e-11
2.07175e-11
2.03199e-11
1.99737e-11
1.96783e-11
1.94331e-11
1.92375e-11
1.90912e-11
1.89938e-11
1.89451e-11
)
;
    }
    Wall
    {
        type            calculated;
        value           nonuniform List<scalar> 
400
(
3.0533e-09
9.14348e-09
1.51953e-08
2.11916e-08
2.71176e-08
3.29601e-08
3.87076e-08
4.435e-08
4.98785e-08
5.52852e-08
6.05636e-08
6.57081e-08
7.07141e-08
7.55777e-08
8.02962e-08
8.48675e-08
8.929e-08
9.3563e-08
9.76863e-08
1.0166e-07
1.05486e-07
1.09164e-07
1.12696e-07
1.16084e-07
1.1933e-07
1.22437e-07
1.25407e-07
1.28243e-07
1.30948e-07
1.33524e-07
1.35974e-07
1.38303e-07
1.40511e-07
1.42604e-07
1.44583e-07
1.46452e-07
1.48214e-07
1.49871e-07
1.51428e-07
1.52886e-07
1.54248e-07
1.55518e-07
1.56697e-07
1.57789e-07
1.58796e-07
1.59721e-07
1.60565e-07
1.61332e-07
1.62023e-07
1.62641e-07
1.63188e-07
1.63666e-07
1.64077e-07
1.64423e-07
1.64706e-07
1.64927e-07
1.65089e-07
1.65193e-07
1.6524e-07
1.65233e-07
1.65173e-07
1.65061e-07
1.649e-07
1.64689e-07
1.64432e-07
1.64128e-07
1.6378e-07
1.63389e-07
1.62956e-07
1.62481e-07
1.61967e-07
1.61415e-07
1.60825e-07
1.60199e-07
1.59538e-07
1.58843e-07
1.58115e-07
1.57355e-07
1.56563e-07
1.55742e-07
1.54891e-07
1.54012e-07
1.53106e-07
1.52174e-07
1.51216e-07
1.50234e-07
1.49228e-07
1.48199e-07
1.47148e-07
1.46077e-07
1.44984e-07
1.43873e-07
1.42742e-07
1.41594e-07
1.40428e-07
1.39246e-07
1.38048e-07
1.36836e-07
1.35609e-07
1.34368e-07
1.33115e-07
1.3185e-07
1.30574e-07
1.29287e-07
1.2799e-07
1.26684e-07
1.25369e-07
1.24046e-07
1.22715e-07
1.21378e-07
1.20035e-07
1.18686e-07
1.17332e-07
1.15974e-07
1.14612e-07
1.13247e-07
1.11879e-07
1.10509e-07
1.09138e-07
1.07766e-07
1.06393e-07
1.0502e-07
1.03648e-07
1.02277e-07
1.00907e-07
9.95392e-08
9.81738e-08
9.68114e-08
9.54522e-08
9.40968e-08
9.27456e-08
9.13989e-08
9.00572e-08
8.87209e-08
8.73903e-08
8.60658e-08
8.47478e-08
8.34367e-08
8.21326e-08
8.08361e-08
7.95473e-08
7.82666e-08
7.69943e-08
7.57307e-08
7.44761e-08
7.32306e-08
7.19947e-08
7.07684e-08
6.95521e-08
6.8346e-08
6.71503e-08
6.59652e-08
6.47909e-08
6.36275e-08
6.24753e-08
6.13344e-08
6.0205e-08
5.90873e-08
5.79813e-08
5.68872e-08
5.58052e-08
5.47352e-08
5.36776e-08
5.26322e-08
5.15993e-08
5.05789e-08
4.95711e-08
4.85759e-08
4.75935e-08
4.66238e-08
4.56668e-08
4.47228e-08
4.37915e-08
4.28732e-08
4.19677e-08
4.10751e-08
4.01955e-08
3.93287e-08
3.84748e-08
3.76338e-08
3.68056e-08
3.59902e-08
3.51876e-08
3.43977e-08
3.36205e-08
3.2856e-08
3.2104e-08
3.13645e-08
3.06375e-08
2.99229e-08
2.92206e-08
2.85306e-08
2.78527e-08
2.71869e-08
2.6533e-08
2.5891e-08
2.52609e-08
2.46424e-08
2.40355e-08
2.34401e-08
2.28561e-08
2.22833e-08
2.17217e-08
2.11712e-08
2.06316e-08
2.01027e-08
1.95846e-08
1.9077e-08
1.85799e-08
1.80931e-08
1.76164e-08
1.71499e-08
1.66932e-08
1.62464e-08
1.58092e-08
1.53815e-08
1.49632e-08
1.45542e-08
1.41544e-08
1.37635e-08
1.33815e-08
1.30082e-08
1.26435e-08
1.22873e-08
1.19393e-08
1.15996e-08
1.12679e-08
1.09441e-08
1.06282e-08
1.03198e-08
1.0019e-08
9.72553e-09
9.43932e-09
9.16023e-09
8.88813e-09
8.62288e-09
8.36436e-09
8.11243e-09
7.86698e-09
7.62788e-09
7.39499e-09
7.1682e-09
6.94738e-09
6.73242e-09
6.52318e-09
6.31956e-09
6.12143e-09
5.92868e-09
5.7412e-09
5.55886e-09
5.38156e-09
5.20918e-09
5.04162e-09
4.87877e-09
4.72051e-09
4.56676e-09
4.4174e-09
4.27232e-09
4.13144e-09
3.99465e-09
3.86185e-09
3.73294e-09
3.60784e-09
3.48646e-09
3.36868e-09
3.25444e-09
3.14364e-09
3.03619e-09
2.93201e-09
2.83102e-09
2.73313e-09
2.63826e-09
2.54633e-09
2.45728e-09
2.37101e-09
2.28746e-09
2.20655e-09
2.12821e-09
2.05237e-09
1.97897e-09
1.90793e-09
1.83919e-09
1.77269e-09
1.70836e-09
1.64615e-09
1.58598e-09
1.52781e-09
1.47157e-09
1.41721e-09
1.36468e-09
1.31391e-09
1.26487e-09
1.21749e-09
1.17173e-09
1.12754e-09
1.08487e-09
1.04367e-09
1.00391e-09
9.65531e-10
9.28496e-10
8.92764e-10
8.58293e-10
8.25043e-10
7.92977e-10
7.62056e-10
7.32245e-10
7.03507e-10
6.75807e-10
6.49114e-10
6.23393e-10
5.98612e-10
5.74742e-10
5.51752e-10
5.29612e-10
5.08295e-10
4.87773e-10
4.68019e-10
4.49007e-10
4.30712e-10
4.13109e-10
3.96175e-10
3.79888e-10
3.64223e-10
3.4916e-10
3.34678e-10
3.20757e-10
3.07376e-10
2.94517e-10
2.82162e-10
2.70291e-10
2.58889e-10
2.47937e-10
2.3742e-10
2.27323e-10
2.17629e-10
2.08325e-10
1.99396e-10
1.90827e-10
1.82607e-10
1.74722e-10
1.67159e-10
1.59907e-10
1.52954e-10
1.46289e-10
1.39901e-10
1.33779e-10
1.27914e-10
1.22295e-10
1.16914e-10
1.11762e-10
1.06829e-10
1.02108e-10
9.75894e-11
9.32665e-11
8.91316e-11
8.51774e-11
8.1397e-11
7.77836e-11
7.4331e-11
7.10328e-11
6.78832e-11
6.48764e-11
6.2007e-11
5.92697e-11
5.66595e-11
5.41715e-11
5.18011e-11
4.95439e-11
4.73956e-11
4.53522e-11
4.34097e-11
4.15644e-11
3.98129e-11
3.81517e-11
3.65776e-11
3.50875e-11
3.36786e-11
3.2348e-11
3.10931e-11
2.99115e-11
2.88007e-11
2.77587e-11
2.67833e-11
2.58724e-11
2.50244e-11
2.42375e-11
2.351e-11
2.28406e-11
2.22278e-11
2.16704e-11
2.11673e-11
2.07173e-11
2.03197e-11
1.99735e-11
1.96781e-11
1.94329e-11
1.92373e-11
1.9091e-11
1.89937e-11
1.8945e-11
)
;
    }
}


// ************************************************************************* //
