/*--------------------------------*- C++ -*----------------------------------*\
  =========                 |
  \\      /  F ield         | OpenFOAM: The Open Source CFD Toolbox
   \\    /   O peration     | Website:  https://openfoam.org
    \\  /    A nd           | Version:  10
     \\/     M anipulation  |
\*---------------------------------------------------------------------------*/
FoamFile
{
    format      ascii;
    class       volScalarField;
    location    "0.52";
    object      Exp1;
}
// * * * * * * * * * * * * * * * * * * * * * * * * * * * * * * * * * * * * * //

dimensions      [0 0 0 0 0 0 0];

internalField   uniform 0;

boundaryField
{
    frontAndBack
    {
        type            empty;
    }
    inlet
    {
        type            calculated;
        value           uniform 0;
    }
    outlet
    {
        type            calculated;
        value           uniform 0;
    }
    substrate
    {
        type            calculated;
        value           nonuniform List<scalar> 
400
(
3.90425e-10
1.16919e-09
1.94308e-09
2.70995e-09
3.46792e-09
4.21536e-09
4.95082e-09
5.67301e-09
6.38084e-09
7.07334e-09
7.74968e-09
8.40916e-09
9.05123e-09
9.67541e-09
1.02814e-08
1.08688e-08
1.14376e-08
1.19877e-08
1.2519e-08
1.30316e-08
1.35256e-08
1.40012e-08
1.44586e-08
1.4898e-08
1.53198e-08
1.57241e-08
1.61114e-08
1.6482e-08
1.68363e-08
1.71746e-08
1.74974e-08
1.78049e-08
1.80977e-08
1.83761e-08
1.86405e-08
1.88912e-08
1.91288e-08
1.93535e-08
1.95657e-08
1.97657e-08
1.99541e-08
2.0131e-08
2.02968e-08
2.04519e-08
2.05966e-08
2.07312e-08
2.08559e-08
2.09712e-08
2.10772e-08
2.11742e-08
2.12626e-08
2.13425e-08
2.14142e-08
2.14779e-08
2.1534e-08
2.15825e-08
2.16237e-08
2.16579e-08
2.16852e-08
2.17058e-08
2.17199e-08
2.17276e-08
2.17293e-08
2.17249e-08
2.17147e-08
2.16989e-08
2.16776e-08
2.16509e-08
2.16191e-08
2.15821e-08
2.15402e-08
2.14936e-08
2.14422e-08
2.13864e-08
2.13261e-08
2.12615e-08
2.11927e-08
2.11198e-08
2.1043e-08
2.09624e-08
2.0878e-08
2.07899e-08
2.06984e-08
2.06034e-08
2.0505e-08
2.04034e-08
2.02987e-08
2.01909e-08
2.00802e-08
1.99666e-08
1.98502e-08
1.97311e-08
1.96095e-08
1.94853e-08
1.93586e-08
1.92296e-08
1.90984e-08
1.8965e-08
1.88294e-08
1.86918e-08
1.85523e-08
1.84109e-08
1.82677e-08
1.81228e-08
1.79762e-08
1.78281e-08
1.76785e-08
1.75274e-08
1.7375e-08
1.72212e-08
1.70663e-08
1.69102e-08
1.6753e-08
1.65949e-08
1.64357e-08
1.62757e-08
1.61149e-08
1.59533e-08
1.5791e-08
1.56281e-08
1.54646e-08
1.53006e-08
1.51362e-08
1.49713e-08
1.48061e-08
1.46407e-08
1.4475e-08
1.43092e-08
1.41432e-08
1.39772e-08
1.38112e-08
1.36452e-08
1.34793e-08
1.33136e-08
1.3148e-08
1.29827e-08
1.28177e-08
1.2653e-08
1.24887e-08
1.23248e-08
1.21614e-08
1.19984e-08
1.18361e-08
1.16743e-08
1.15131e-08
1.13526e-08
1.11928e-08
1.10337e-08
1.08755e-08
1.0718e-08
1.05613e-08
1.04056e-08
1.02507e-08
1.00968e-08
9.9438e-09
9.79183e-09
9.64087e-09
9.49096e-09
9.34212e-09
9.19438e-09
9.04776e-09
8.90228e-09
8.75797e-09
8.61484e-09
8.47291e-09
8.33222e-09
8.19276e-09
8.05457e-09
7.91765e-09
7.78203e-09
7.64771e-09
7.51472e-09
7.38306e-09
7.25275e-09
7.1238e-09
6.99621e-09
6.87001e-09
6.74519e-09
6.62177e-09
6.49975e-09
6.37914e-09
6.25996e-09
6.14219e-09
6.02585e-09
5.91094e-09
5.79746e-09
5.68542e-09
5.57482e-09
5.46566e-09
5.35794e-09
5.25166e-09
5.14682e-09
5.04342e-09
4.94145e-09
4.84092e-09
4.74183e-09
4.64416e-09
4.54791e-09
4.45309e-09
4.35968e-09
4.26768e-09
4.17708e-09
4.08788e-09
4.00008e-09
3.91365e-09
3.82861e-09
3.74493e-09
3.66261e-09
3.58164e-09
3.50202e-09
3.42373e-09
3.34676e-09
3.27111e-09
3.19676e-09
3.1237e-09
3.05193e-09
2.98142e-09
2.91218e-09
2.84418e-09
2.77742e-09
2.71188e-09
2.64755e-09
2.58443e-09
2.52248e-09
2.46172e-09
2.40211e-09
2.34366e-09
2.28633e-09
2.23013e-09
2.17504e-09
2.12104e-09
2.06813e-09
2.01628e-09
1.96548e-09
1.91573e-09
1.867e-09
1.81928e-09
1.77256e-09
1.72683e-09
1.68207e-09
1.63826e-09
1.59539e-09
1.55346e-09
1.51243e-09
1.47231e-09
1.43308e-09
1.39472e-09
1.35721e-09
1.32055e-09
1.28473e-09
1.24972e-09
1.21551e-09
1.18209e-09
1.14946e-09
1.11758e-09
1.08646e-09
1.05607e-09
1.0264e-09
9.97451e-10
9.69195e-10
9.41625e-10
9.14726e-10
8.88488e-10
8.62896e-10
8.37939e-10
8.13604e-10
7.8988e-10
7.66754e-10
7.44215e-10
7.2225e-10
7.00848e-10
6.79997e-10
6.59687e-10
6.39906e-10
6.20642e-10
6.01886e-10
5.83626e-10
5.65851e-10
5.48551e-10
5.31716e-10
5.15336e-10
4.994e-10
4.83898e-10
4.68821e-10
4.5416e-10
4.39904e-10
4.26044e-10
4.12572e-10
3.99477e-10
3.86752e-10
3.74388e-10
3.62376e-10
3.50707e-10
3.39373e-10
3.28367e-10
3.1768e-10
3.07304e-10
2.97232e-10
2.87456e-10
2.77969e-10
2.68763e-10
2.59831e-10
2.51167e-10
2.42763e-10
2.34612e-10
2.26709e-10
2.19047e-10
2.11618e-10
2.04418e-10
1.9744e-10
1.90678e-10
1.84126e-10
1.77779e-10
1.71631e-10
1.65677e-10
1.59911e-10
1.54328e-10
1.48923e-10
1.43692e-10
1.38628e-10
1.33728e-10
1.28987e-10
1.24401e-10
1.19964e-10
1.15673e-10
1.11524e-10
1.07511e-10
1.03633e-10
9.98833e-11
9.62596e-11
9.27579e-11
8.93746e-11
8.61062e-11
8.29492e-11
7.99002e-11
7.69561e-11
7.41137e-11
7.13699e-11
6.87217e-11
6.61663e-11
6.37006e-11
6.13221e-11
5.90281e-11
5.68158e-11
5.46829e-11
5.26268e-11
5.06452e-11
4.87358e-11
4.68962e-11
4.51244e-11
4.34182e-11
4.17755e-11
4.01944e-11
3.86729e-11
3.72092e-11
3.58015e-11
3.4448e-11
3.3147e-11
3.18969e-11
3.0696e-11
2.9543e-11
2.84362e-11
2.73743e-11
2.63559e-11
2.53796e-11
2.44442e-11
2.35484e-11
2.2691e-11
2.1871e-11
2.10871e-11
2.03384e-11
1.96237e-11
1.89423e-11
1.8293e-11
1.76751e-11
1.70877e-11
1.65298e-11
1.60009e-11
1.55001e-11
1.50268e-11
1.45802e-11
1.41597e-11
1.37648e-11
1.33948e-11
1.30493e-11
1.27278e-11
1.24297e-11
1.21547e-11
1.19023e-11
1.16723e-11
1.14642e-11
1.12778e-11
1.11127e-11
1.09688e-11
1.08459e-11
1.07437e-11
1.06621e-11
1.0601e-11
1.05604e-11
1.05401e-11
)
;
    }
    Wall
    {
        type            calculated;
        value           nonuniform List<scalar> 
400
(
3.90426e-10
1.1692e-09
1.9431e-09
2.70998e-09
3.46797e-09
4.21541e-09
4.95086e-09
5.67305e-09
6.38087e-09
7.07336e-09
7.74968e-09
8.40916e-09
9.0512e-09
9.67537e-09
1.02813e-08
1.08687e-08
1.14375e-08
1.19876e-08
1.25189e-08
1.30315e-08
1.35255e-08
1.40011e-08
1.44584e-08
1.48978e-08
1.53195e-08
1.57239e-08
1.61112e-08
1.64818e-08
1.6836e-08
1.71743e-08
1.74971e-08
1.78046e-08
1.80974e-08
1.83758e-08
1.86401e-08
1.88909e-08
1.91284e-08
1.93531e-08
1.95653e-08
1.97653e-08
1.99536e-08
2.01306e-08
2.02964e-08
2.04515e-08
2.05961e-08
2.07307e-08
2.08554e-08
2.09707e-08
2.10767e-08
2.11737e-08
2.12621e-08
2.1342e-08
2.14137e-08
2.14774e-08
2.15335e-08
2.1582e-08
2.16232e-08
2.16574e-08
2.16846e-08
2.17052e-08
2.17193e-08
2.17271e-08
2.17287e-08
2.17244e-08
2.17142e-08
2.16984e-08
2.1677e-08
2.16504e-08
2.16185e-08
2.15816e-08
2.15397e-08
2.1493e-08
2.14417e-08
2.13858e-08
2.13255e-08
2.12609e-08
2.11921e-08
2.11193e-08
2.10425e-08
2.09618e-08
2.08774e-08
2.07894e-08
2.06978e-08
2.06028e-08
2.05045e-08
2.04029e-08
2.02982e-08
2.01904e-08
2.00796e-08
1.9966e-08
1.98497e-08
1.97306e-08
1.96089e-08
1.94847e-08
1.93581e-08
1.92291e-08
1.90979e-08
1.89644e-08
1.88289e-08
1.86913e-08
1.85518e-08
1.84104e-08
1.82672e-08
1.81223e-08
1.79757e-08
1.78276e-08
1.76779e-08
1.75269e-08
1.73745e-08
1.72207e-08
1.70658e-08
1.69097e-08
1.67526e-08
1.65944e-08
1.64353e-08
1.62752e-08
1.61144e-08
1.59528e-08
1.57906e-08
1.56276e-08
1.54642e-08
1.53002e-08
1.51357e-08
1.49709e-08
1.48057e-08
1.46403e-08
1.44746e-08
1.43088e-08
1.41428e-08
1.39768e-08
1.38108e-08
1.36448e-08
1.34789e-08
1.33132e-08
1.31476e-08
1.29823e-08
1.28173e-08
1.26526e-08
1.24883e-08
1.23244e-08
1.2161e-08
1.19981e-08
1.18357e-08
1.16739e-08
1.15128e-08
1.13523e-08
1.11925e-08
1.10334e-08
1.08751e-08
1.07177e-08
1.0561e-08
1.04053e-08
1.02504e-08
1.00965e-08
9.94351e-09
9.79154e-09
9.64058e-09
9.49068e-09
9.34184e-09
9.19411e-09
9.04749e-09
8.90201e-09
8.7577e-09
8.61458e-09
8.47266e-09
8.33197e-09
8.19252e-09
8.05433e-09
7.91742e-09
7.7818e-09
7.64749e-09
7.5145e-09
7.38284e-09
7.25253e-09
7.12358e-09
6.996e-09
6.8698e-09
6.74499e-09
6.62157e-09
6.49956e-09
6.37895e-09
6.25977e-09
6.142e-09
6.02567e-09
5.91076e-09
5.79729e-09
5.68525e-09
5.57465e-09
5.4655e-09
5.35778e-09
5.2515e-09
5.14667e-09
5.04327e-09
4.94131e-09
4.84078e-09
4.74168e-09
4.64402e-09
4.54777e-09
4.45295e-09
4.35955e-09
4.26755e-09
4.17696e-09
4.08776e-09
3.99996e-09
3.91354e-09
3.82849e-09
3.74482e-09
3.6625e-09
3.58154e-09
3.50192e-09
3.42363e-09
3.34666e-09
3.27101e-09
3.19666e-09
3.12361e-09
3.05184e-09
2.98133e-09
2.91209e-09
2.84409e-09
2.77733e-09
2.7118e-09
2.64747e-09
2.58435e-09
2.52241e-09
2.46165e-09
2.40204e-09
2.34359e-09
2.28627e-09
2.23007e-09
2.17498e-09
2.12098e-09
2.06807e-09
2.01622e-09
1.96543e-09
1.91567e-09
1.86694e-09
1.81923e-09
1.77251e-09
1.72678e-09
1.68202e-09
1.63821e-09
1.59535e-09
1.55341e-09
1.51239e-09
1.47227e-09
1.43304e-09
1.39467e-09
1.35717e-09
1.32051e-09
1.28469e-09
1.24968e-09
1.21547e-09
1.18206e-09
1.14942e-09
1.11755e-09
1.08642e-09
1.05604e-09
1.02637e-09
9.97422e-10
9.69168e-10
9.41598e-10
9.147e-10
8.88462e-10
8.62871e-10
8.37915e-10
8.13581e-10
7.89858e-10
7.66732e-10
7.44194e-10
7.22229e-10
7.00828e-10
6.79978e-10
6.59668e-10
6.39888e-10
6.20625e-10
6.01869e-10
5.83609e-10
5.65835e-10
5.48536e-10
5.31701e-10
5.15321e-10
4.99386e-10
4.83885e-10
4.68808e-10
4.54147e-10
4.39891e-10
4.26032e-10
4.1256e-10
3.99466e-10
3.86742e-10
3.74378e-10
3.62366e-10
3.50697e-10
3.39364e-10
3.28358e-10
3.17672e-10
3.07296e-10
2.97224e-10
2.87449e-10
2.77961e-10
2.68756e-10
2.59824e-10
2.5116e-10
2.42756e-10
2.34606e-10
2.26703e-10
2.19041e-10
2.11613e-10
2.04413e-10
1.97435e-10
1.90673e-10
1.84121e-10
1.77775e-10
1.71627e-10
1.65673e-10
1.59907e-10
1.54324e-10
1.4892e-10
1.43688e-10
1.38625e-10
1.33725e-10
1.28984e-10
1.24398e-10
1.19961e-10
1.1567e-10
1.11521e-10
1.07509e-10
1.0363e-10
9.98808e-11
9.62572e-11
9.27557e-11
8.93724e-11
8.61041e-11
8.29471e-11
7.98983e-11
7.69543e-11
7.41119e-11
7.13682e-11
6.87201e-11
6.61647e-11
6.36991e-11
6.13207e-11
5.90267e-11
5.68145e-11
5.46816e-11
5.26256e-11
5.06441e-11
4.87346e-11
4.68951e-11
4.51233e-11
4.34172e-11
4.17745e-11
4.01935e-11
3.8672e-11
3.72084e-11
3.58007e-11
3.44472e-11
3.31462e-11
3.18962e-11
3.06954e-11
2.95423e-11
2.84356e-11
2.73737e-11
2.63553e-11
2.53791e-11
2.44437e-11
2.35479e-11
2.26905e-11
2.18705e-11
2.10867e-11
2.0338e-11
1.96234e-11
1.89419e-11
1.82927e-11
1.76748e-11
1.70873e-11
1.65295e-11
1.60006e-11
1.54998e-11
1.50265e-11
1.45799e-11
1.41594e-11
1.37645e-11
1.33946e-11
1.30491e-11
1.27275e-11
1.24295e-11
1.21545e-11
1.19021e-11
1.16721e-11
1.1464e-11
1.12776e-11
1.11125e-11
1.09686e-11
1.08457e-11
1.07435e-11
1.06619e-11
1.06009e-11
1.05603e-11
1.054e-11
)
;
    }
}


// ************************************************************************* //
