/*--------------------------------*- C++ -*----------------------------------*\
  =========                 |
  \\      /  F ield         | OpenFOAM: The Open Source CFD Toolbox
   \\    /   O peration     | Website:  https://openfoam.org
    \\  /    A nd           | Version:  10
     \\/     M anipulation  |
\*---------------------------------------------------------------------------*/
FoamFile
{
    format      ascii;
    class       volScalarField;
    location    "0.52";
    object      N1;
}
// * * * * * * * * * * * * * * * * * * * * * * * * * * * * * * * * * * * * * //

dimensions      [0 0 0 0 0 0 0];

internalField   nonuniform List<scalar> 
8000
(
2.96369e-09
8.87876e-09
1.47613e-08
2.05946e-08
2.63644e-08
3.2058e-08
3.76644e-08
4.31737e-08
4.85773e-08
5.38676e-08
5.90383e-08
6.40838e-08
6.89995e-08
7.37818e-08
7.84277e-08
8.29349e-08
8.73021e-08
9.15282e-08
9.5613e-08
9.95566e-08
1.0336e-07
1.07023e-07
1.10549e-07
1.13938e-07
1.17192e-07
1.20314e-07
1.23306e-07
1.26171e-07
1.28911e-07
1.31528e-07
1.34027e-07
1.36409e-07
1.38678e-07
1.40836e-07
1.42886e-07
1.44832e-07
1.46676e-07
1.48421e-07
1.50069e-07
1.51625e-07
1.53089e-07
1.54466e-07
1.55756e-07
1.56964e-07
1.58092e-07
1.59141e-07
1.60114e-07
1.61014e-07
1.61842e-07
1.626e-07
1.63292e-07
1.63918e-07
1.64481e-07
1.64982e-07
1.65423e-07
1.65806e-07
1.66132e-07
1.66404e-07
1.66622e-07
1.66789e-07
1.66905e-07
1.66972e-07
1.66992e-07
1.66965e-07
1.66893e-07
1.66777e-07
1.66619e-07
1.6642e-07
1.6618e-07
1.65901e-07
1.65583e-07
1.65229e-07
1.64838e-07
1.64413e-07
1.63953e-07
1.63459e-07
1.62934e-07
1.62377e-07
1.61789e-07
1.61172e-07
1.60525e-07
1.59851e-07
1.59149e-07
1.58421e-07
1.57666e-07
1.56887e-07
1.56084e-07
1.55257e-07
1.54407e-07
1.53535e-07
1.52641e-07
1.51727e-07
1.50792e-07
1.49838e-07
1.48866e-07
1.47875e-07
1.46867e-07
1.45841e-07
1.448e-07
1.43743e-07
1.4267e-07
1.41584e-07
1.40483e-07
1.39369e-07
1.38243e-07
1.37104e-07
1.35954e-07
1.34792e-07
1.33621e-07
1.32439e-07
1.31248e-07
1.30048e-07
1.28839e-07
1.27623e-07
1.264e-07
1.25169e-07
1.23933e-07
1.2269e-07
1.21442e-07
1.2019e-07
1.18933e-07
1.17671e-07
1.16407e-07
1.15139e-07
1.13869e-07
1.12597e-07
1.11323e-07
1.10048e-07
1.08771e-07
1.07495e-07
1.06218e-07
1.04942e-07
1.03666e-07
1.02391e-07
1.01118e-07
9.98469e-08
9.85778e-08
9.73112e-08
9.60476e-08
9.47872e-08
9.35303e-08
9.22774e-08
9.10286e-08
8.97844e-08
8.85449e-08
8.73106e-08
8.60816e-08
8.48584e-08
8.3641e-08
8.24299e-08
8.12252e-08
8.00273e-08
7.88362e-08
7.76524e-08
7.6476e-08
7.53072e-08
7.41462e-08
7.29933e-08
7.18486e-08
7.07124e-08
6.95847e-08
6.84659e-08
6.7356e-08
6.62552e-08
6.51637e-08
6.40817e-08
6.30092e-08
6.19464e-08
6.08934e-08
5.98503e-08
5.88173e-08
5.77945e-08
5.67819e-08
5.57797e-08
5.4788e-08
5.38067e-08
5.28361e-08
5.18762e-08
5.0927e-08
4.99886e-08
4.9061e-08
4.81443e-08
4.72386e-08
4.63438e-08
4.54601e-08
4.45874e-08
4.37257e-08
4.28751e-08
4.20355e-08
4.12071e-08
4.03897e-08
3.95834e-08
3.87882e-08
3.8004e-08
3.72308e-08
3.64686e-08
3.57175e-08
3.49773e-08
3.4248e-08
3.35296e-08
3.2822e-08
3.21253e-08
3.14393e-08
3.0764e-08
3.00993e-08
2.94452e-08
2.88017e-08
2.81686e-08
2.75459e-08
2.69335e-08
2.63314e-08
2.57394e-08
2.51576e-08
2.45858e-08
2.40239e-08
2.34719e-08
2.29297e-08
2.23971e-08
2.18741e-08
2.13607e-08
2.08566e-08
2.03619e-08
1.98764e-08
1.94e-08
1.89327e-08
1.84743e-08
1.80247e-08
1.75838e-08
1.71516e-08
1.67279e-08
1.63126e-08
1.59057e-08
1.55069e-08
1.51162e-08
1.47336e-08
1.43588e-08
1.39918e-08
1.36325e-08
1.32808e-08
1.29365e-08
1.25996e-08
1.22699e-08
1.19474e-08
1.16319e-08
1.13233e-08
1.10216e-08
1.07265e-08
1.04381e-08
1.01562e-08
9.88063e-09
9.61137e-09
9.3483e-09
9.09131e-09
8.84029e-09
8.59515e-09
8.35577e-09
8.12206e-09
7.89392e-09
7.67124e-09
7.45394e-09
7.24189e-09
7.03502e-09
6.83322e-09
6.6364e-09
6.44446e-09
6.25731e-09
6.07485e-09
5.89699e-09
5.72364e-09
5.55471e-09
5.39011e-09
5.22976e-09
5.07355e-09
4.92142e-09
4.77327e-09
4.62901e-09
4.48858e-09
4.35187e-09
4.21882e-09
4.08935e-09
3.96337e-09
3.84081e-09
3.72159e-09
3.60563e-09
3.49287e-09
3.38323e-09
3.27664e-09
3.17303e-09
3.07232e-09
2.97445e-09
2.87936e-09
2.78698e-09
2.69723e-09
2.61007e-09
2.52542e-09
2.44323e-09
2.36343e-09
2.28597e-09
2.21078e-09
2.13782e-09
2.06702e-09
1.99832e-09
1.93169e-09
1.86705e-09
1.80437e-09
1.74359e-09
1.68465e-09
1.62752e-09
1.57215e-09
1.51848e-09
1.46647e-09
1.41609e-09
1.36727e-09
1.31999e-09
1.2742e-09
1.22985e-09
1.18691e-09
1.14535e-09
1.10511e-09
1.06617e-09
1.02849e-09
9.92023e-10
9.56748e-10
9.22626e-10
8.89624e-10
8.57711e-10
8.26854e-10
7.97023e-10
7.68187e-10
7.40318e-10
7.13387e-10
6.87367e-10
6.6223e-10
6.37949e-10
6.145e-10
5.91858e-10
5.69997e-10
5.48895e-10
5.28528e-10
5.08875e-10
4.89912e-10
4.71619e-10
4.53976e-10
4.36962e-10
4.20558e-10
4.04745e-10
3.89505e-10
3.74819e-10
3.60672e-10
3.47045e-10
3.33922e-10
3.21289e-10
3.09129e-10
2.97427e-10
2.8617e-10
2.75344e-10
2.64934e-10
2.54928e-10
2.45314e-10
2.36079e-10
2.27211e-10
2.18699e-10
2.10532e-10
2.02699e-10
1.95191e-10
1.87996e-10
1.81107e-10
1.74513e-10
1.68206e-10
1.62178e-10
1.56419e-10
1.50923e-10
1.45682e-10
1.40689e-10
1.35937e-10
1.31419e-10
1.27129e-10
1.23061e-10
1.19209e-10
1.15569e-10
1.12134e-10
1.089e-10
1.05863e-10
1.03018e-10
1.0036e-10
9.78872e-11
9.55948e-11
9.34797e-11
9.1539e-11
8.97697e-11
8.81693e-11
8.67355e-11
8.54662e-11
8.43596e-11
8.3414e-11
8.26281e-11
8.20008e-11
8.15311e-11
8.12183e-11
8.10621e-11
2.99402e-09
8.97238e-09
1.49232e-08
2.08304e-08
2.66798e-08
3.24589e-08
3.81562e-08
4.37617e-08
4.92664e-08
5.46625e-08
5.99431e-08
6.51023e-08
7.01351e-08
7.50373e-08
7.98055e-08
8.44371e-08
8.89301e-08
9.32832e-08
9.74956e-08
1.01567e-07
1.05498e-07
1.09288e-07
1.1294e-07
1.16454e-07
1.19831e-07
1.23075e-07
1.26187e-07
1.29168e-07
1.32023e-07
1.34752e-07
1.3736e-07
1.39848e-07
1.4222e-07
1.44478e-07
1.46625e-07
1.48663e-07
1.50597e-07
1.52428e-07
1.5416e-07
1.55794e-07
1.57335e-07
1.58784e-07
1.60144e-07
1.61418e-07
1.62608e-07
1.63716e-07
1.64745e-07
1.65698e-07
1.66576e-07
1.67381e-07
1.68117e-07
1.68784e-07
1.69384e-07
1.69921e-07
1.70394e-07
1.70807e-07
1.71161e-07
1.71458e-07
1.71699e-07
1.71885e-07
1.72019e-07
1.72102e-07
1.72135e-07
1.7212e-07
1.72057e-07
1.71949e-07
1.71796e-07
1.716e-07
1.71362e-07
1.71083e-07
1.70764e-07
1.70406e-07
1.70011e-07
1.69579e-07
1.69111e-07
1.68608e-07
1.68072e-07
1.67503e-07
1.66902e-07
1.6627e-07
1.65608e-07
1.64916e-07
1.64196e-07
1.63449e-07
1.62674e-07
1.61874e-07
1.61048e-07
1.60197e-07
1.59323e-07
1.58426e-07
1.57507e-07
1.56565e-07
1.55603e-07
1.54621e-07
1.53619e-07
1.52599e-07
1.5156e-07
1.50503e-07
1.4943e-07
1.48341e-07
1.47235e-07
1.46115e-07
1.44981e-07
1.43832e-07
1.42671e-07
1.41496e-07
1.4031e-07
1.39113e-07
1.37904e-07
1.36685e-07
1.35457e-07
1.34219e-07
1.32972e-07
1.31718e-07
1.30455e-07
1.29186e-07
1.2791e-07
1.26628e-07
1.25341e-07
1.24048e-07
1.22751e-07
1.2145e-07
1.20145e-07
1.18837e-07
1.17526e-07
1.16214e-07
1.14899e-07
1.13583e-07
1.12266e-07
1.10948e-07
1.09631e-07
1.08314e-07
1.06997e-07
1.05682e-07
1.04368e-07
1.03056e-07
1.01746e-07
1.00439e-07
9.91346e-08
9.78338e-08
9.65367e-08
9.52435e-08
9.39547e-08
9.26705e-08
9.13913e-08
9.01174e-08
8.8849e-08
8.75864e-08
8.633e-08
8.508e-08
8.38366e-08
8.26002e-08
8.13709e-08
8.0149e-08
7.89348e-08
7.77285e-08
7.65302e-08
7.53403e-08
7.41588e-08
7.29861e-08
7.18222e-08
7.06674e-08
6.95218e-08
6.83857e-08
6.72591e-08
6.61423e-08
6.50353e-08
6.39383e-08
6.28515e-08
6.17749e-08
6.07087e-08
5.9653e-08
5.86079e-08
5.75734e-08
5.65498e-08
5.5537e-08
5.45352e-08
5.35444e-08
5.25647e-08
5.15961e-08
5.06387e-08
4.96926e-08
4.87577e-08
4.78342e-08
4.6922e-08
4.60212e-08
4.51318e-08
4.42539e-08
4.33873e-08
4.25322e-08
4.16886e-08
4.08563e-08
4.00355e-08
3.92261e-08
3.84281e-08
3.76414e-08
3.68661e-08
3.61021e-08
3.53494e-08
3.46079e-08
3.38776e-08
3.31584e-08
3.24503e-08
3.17533e-08
3.10673e-08
3.03922e-08
2.97279e-08
2.90745e-08
2.84317e-08
2.77997e-08
2.71782e-08
2.65672e-08
2.59667e-08
2.53765e-08
2.47965e-08
2.42267e-08
2.36671e-08
2.31174e-08
2.25776e-08
2.20476e-08
2.15274e-08
2.10167e-08
2.05156e-08
2.00239e-08
1.95416e-08
1.90684e-08
1.86044e-08
1.81493e-08
1.77032e-08
1.72659e-08
1.68372e-08
1.64172e-08
1.60056e-08
1.56024e-08
1.52074e-08
1.48206e-08
1.44418e-08
1.40709e-08
1.37079e-08
1.33525e-08
1.30048e-08
1.26645e-08
1.23316e-08
1.2006e-08
1.16875e-08
1.1376e-08
1.10715e-08
1.07738e-08
1.04828e-08
1.01984e-08
9.92047e-09
9.64894e-09
9.38368e-09
9.12459e-09
8.87156e-09
8.62449e-09
8.38326e-09
8.14778e-09
7.91795e-09
7.69365e-09
7.47479e-09
7.26126e-09
7.05298e-09
6.84982e-09
6.65171e-09
6.45854e-09
6.27021e-09
6.08663e-09
5.90771e-09
5.73335e-09
5.56346e-09
5.39794e-09
5.23672e-09
5.07969e-09
4.92677e-09
4.77788e-09
4.63293e-09
4.49183e-09
4.3545e-09
4.22086e-09
4.09083e-09
3.96433e-09
3.84127e-09
3.72159e-09
3.6052e-09
3.49203e-09
3.38201e-09
3.27507e-09
3.17112e-09
3.07011e-09
2.97196e-09
2.8766e-09
2.78397e-09
2.69401e-09
2.60664e-09
2.5218e-09
2.43944e-09
2.35948e-09
2.28188e-09
2.20657e-09
2.13349e-09
2.06259e-09
1.99381e-09
1.92709e-09
1.8624e-09
1.79966e-09
1.73883e-09
1.67986e-09
1.62271e-09
1.56731e-09
1.51364e-09
1.46163e-09
1.41124e-09
1.36244e-09
1.31517e-09
1.2694e-09
1.22508e-09
1.18218e-09
1.14065e-09
1.10046e-09
1.06156e-09
1.02393e-09
9.87516e-10
9.52297e-10
9.18234e-10
8.85294e-10
8.53445e-10
8.22654e-10
7.92891e-10
7.64126e-10
7.36329e-10
7.09472e-10
6.83526e-10
6.58465e-10
6.34262e-10
6.10892e-10
5.88328e-10
5.66547e-10
5.45526e-10
5.2524e-10
5.05667e-10
4.86786e-10
4.68575e-10
4.51014e-10
4.34083e-10
4.17761e-10
4.02031e-10
3.86873e-10
3.72271e-10
3.58205e-10
3.44661e-10
3.31621e-10
3.1907e-10
3.06992e-10
2.95373e-10
2.84199e-10
2.73454e-10
2.63127e-10
2.53203e-10
2.43671e-10
2.34518e-10
2.25732e-10
2.17302e-10
2.09218e-10
2.01468e-10
1.94042e-10
1.86931e-10
1.80125e-10
1.73616e-10
1.67393e-10
1.6145e-10
1.55777e-10
1.50367e-10
1.45213e-10
1.40308e-10
1.35645e-10
1.31217e-10
1.27018e-10
1.23043e-10
1.19285e-10
1.1574e-10
1.12402e-10
1.09267e-10
1.0633e-10
1.03588e-10
1.01035e-10
9.8669e-11
9.64859e-11
9.44828e-11
9.26566e-11
9.10047e-11
8.95248e-11
8.82147e-11
8.70725e-11
8.60965e-11
8.52853e-11
8.46378e-11
8.4153e-11
8.38302e-11
8.3669e-11
3.02372e-09
9.06286e-09
1.50775e-08
2.10526e-08
2.69745e-08
3.28305e-08
3.86093e-08
4.43008e-08
4.98957e-08
5.5386e-08
6.07643e-08
6.60246e-08
7.11614e-08
7.61702e-08
8.10472e-08
8.57893e-08
9.03941e-08
9.48601e-08
9.91859e-08
1.03371e-07
1.07415e-07
1.11319e-07
1.15083e-07
1.18708e-07
1.22196e-07
1.25548e-07
1.28766e-07
1.31852e-07
1.34809e-07
1.37639e-07
1.40344e-07
1.42927e-07
1.45391e-07
1.47738e-07
1.49971e-07
1.52093e-07
1.54107e-07
1.56016e-07
1.57822e-07
1.59528e-07
1.61137e-07
1.62651e-07
1.64073e-07
1.65406e-07
1.66652e-07
1.67814e-07
1.68894e-07
1.69894e-07
1.70817e-07
1.71664e-07
1.72439e-07
1.73143e-07
1.73778e-07
1.74346e-07
1.74849e-07
1.75289e-07
1.75668e-07
1.75987e-07
1.76248e-07
1.76453e-07
1.76603e-07
1.767e-07
1.76745e-07
1.7674e-07
1.76686e-07
1.76585e-07
1.76437e-07
1.76244e-07
1.76008e-07
1.75729e-07
1.75409e-07
1.75048e-07
1.74648e-07
1.74211e-07
1.73736e-07
1.73225e-07
1.72679e-07
1.72099e-07
1.71487e-07
1.70841e-07
1.70165e-07
1.69458e-07
1.68722e-07
1.67958e-07
1.67165e-07
1.66345e-07
1.65499e-07
1.64628e-07
1.63733e-07
1.62813e-07
1.6187e-07
1.60905e-07
1.59918e-07
1.58911e-07
1.57883e-07
1.56836e-07
1.55769e-07
1.54685e-07
1.53583e-07
1.52465e-07
1.5133e-07
1.5018e-07
1.49015e-07
1.47835e-07
1.46642e-07
1.45436e-07
1.44218e-07
1.42988e-07
1.41746e-07
1.40494e-07
1.39232e-07
1.3796e-07
1.36679e-07
1.3539e-07
1.34093e-07
1.32789e-07
1.31478e-07
1.30161e-07
1.28838e-07
1.27509e-07
1.26176e-07
1.24839e-07
1.23498e-07
1.22154e-07
1.20807e-07
1.19458e-07
1.18106e-07
1.16754e-07
1.154e-07
1.14046e-07
1.12692e-07
1.11338e-07
1.09985e-07
1.08633e-07
1.07283e-07
1.05934e-07
1.04588e-07
1.03244e-07
1.01904e-07
1.00567e-07
9.92334e-08
9.79042e-08
9.65794e-08
9.52594e-08
9.39446e-08
9.26351e-08
9.13313e-08
9.00335e-08
8.87421e-08
8.74572e-08
8.61791e-08
8.49081e-08
8.36446e-08
8.23886e-08
8.11405e-08
7.99004e-08
7.86687e-08
7.74455e-08
7.62311e-08
7.50256e-08
7.38292e-08
7.26422e-08
7.14646e-08
7.02967e-08
6.91387e-08
6.79907e-08
6.68527e-08
6.57251e-08
6.46079e-08
6.35013e-08
6.24053e-08
6.13201e-08
6.02458e-08
5.91824e-08
5.81302e-08
5.70891e-08
5.60593e-08
5.50408e-08
5.40337e-08
5.30381e-08
5.20539e-08
5.10814e-08
5.01204e-08
4.91711e-08
4.82334e-08
4.73074e-08
4.63932e-08
4.54907e-08
4.46e-08
4.3721e-08
4.28537e-08
4.19982e-08
4.11545e-08
4.03224e-08
3.95021e-08
3.86935e-08
3.78965e-08
3.71111e-08
3.63374e-08
3.55751e-08
3.48244e-08
3.40851e-08
3.33573e-08
3.26408e-08
3.19356e-08
3.12416e-08
3.05588e-08
2.98871e-08
2.92264e-08
2.85766e-08
2.79378e-08
2.73097e-08
2.66924e-08
2.60857e-08
2.54896e-08
2.49039e-08
2.43285e-08
2.37635e-08
2.32086e-08
2.26638e-08
2.21291e-08
2.16042e-08
2.1089e-08
2.05836e-08
2.00877e-08
1.96014e-08
1.91243e-08
1.86566e-08
1.8198e-08
1.77484e-08
1.73078e-08
1.6876e-08
1.64529e-08
1.60384e-08
1.56324e-08
1.52348e-08
1.48454e-08
1.44642e-08
1.4091e-08
1.37257e-08
1.33683e-08
1.30185e-08
1.26763e-08
1.23415e-08
1.20141e-08
1.1694e-08
1.13809e-08
1.10749e-08
1.07758e-08
1.04834e-08
1.01977e-08
9.91862e-09
9.64595e-09
9.37962e-09
9.11952e-09
8.86554e-09
8.61757e-09
8.37551e-09
8.13925e-09
7.90868e-09
7.68371e-09
7.46421e-09
7.2501e-09
7.04128e-09
6.83762e-09
6.63905e-09
6.44546e-09
6.25675e-09
6.07283e-09
5.89359e-09
5.71895e-09
5.54881e-09
5.38308e-09
5.22166e-09
5.06447e-09
4.91142e-09
4.76242e-09
4.61737e-09
4.47621e-09
4.33883e-09
4.20517e-09
4.07513e-09
3.94863e-09
3.82561e-09
3.70597e-09
3.58964e-09
3.47654e-09
3.36661e-09
3.25976e-09
3.15592e-09
3.05503e-09
2.957e-09
2.86179e-09
2.76931e-09
2.67949e-09
2.59229e-09
2.50762e-09
2.42543e-09
2.34566e-09
2.26824e-09
2.19312e-09
2.12024e-09
2.04953e-09
1.98096e-09
1.91445e-09
1.84996e-09
1.78743e-09
1.72682e-09
1.66806e-09
1.61112e-09
1.55594e-09
1.50248e-09
1.45069e-09
1.40052e-09
1.35193e-09
1.30488e-09
1.25933e-09
1.21522e-09
1.17253e-09
1.13121e-09
1.09123e-09
1.05254e-09
1.01512e-09
9.78914e-10
9.43899e-10
9.10038e-10
8.77299e-10
8.45647e-10
8.15053e-10
7.85484e-10
7.5691e-10
7.29302e-10
7.02631e-10
6.76869e-10
6.5199e-10
6.27966e-10
6.04772e-10
5.82382e-10
5.60773e-10
5.3992e-10
5.19801e-10
5.00392e-10
4.81672e-10
4.6362e-10
4.46215e-10
4.29438e-10
4.13268e-10
3.97686e-10
3.82676e-10
3.68217e-10
3.54294e-10
3.4089e-10
3.27988e-10
3.15573e-10
3.03629e-10
2.92142e-10
2.81097e-10
2.70481e-10
2.6028e-10
2.50481e-10
2.41072e-10
2.32041e-10
2.23376e-10
2.15065e-10
2.07099e-10
1.99466e-10
1.92156e-10
1.8516e-10
1.78468e-10
1.72072e-10
1.65962e-10
1.60131e-10
1.5457e-10
1.49272e-10
1.4423e-10
1.39436e-10
1.34884e-10
1.30568e-10
1.26482e-10
1.22619e-10
1.18975e-10
1.15544e-10
1.12321e-10
1.09302e-10
1.06483e-10
1.03859e-10
1.01427e-10
9.91828e-11
9.71236e-11
9.52463e-11
9.35483e-11
9.20271e-11
9.06803e-11
8.95062e-11
8.85029e-11
8.7669e-11
8.70034e-11
8.65051e-11
8.61734e-11
8.60077e-11
3.05154e-09
9.14706e-09
1.52201e-08
2.12566e-08
2.72431e-08
3.31675e-08
3.90184e-08
4.47855e-08
5.04597e-08
5.60326e-08
6.14967e-08
6.68455e-08
7.20734e-08
7.71755e-08
8.21476e-08
8.69864e-08
9.16892e-08
9.6254e-08
1.00679e-07
1.04964e-07
1.09108e-07
1.13111e-07
1.16973e-07
1.20696e-07
1.2428e-07
1.27728e-07
1.31039e-07
1.34218e-07
1.37264e-07
1.40182e-07
1.42973e-07
1.45639e-07
1.48184e-07
1.5061e-07
1.52919e-07
1.55115e-07
1.572e-07
1.59177e-07
1.61048e-07
1.62817e-07
1.64486e-07
1.66058e-07
1.67535e-07
1.6892e-07
1.70216e-07
1.71425e-07
1.7255e-07
1.73592e-07
1.74554e-07
1.75439e-07
1.76249e-07
1.76986e-07
1.77651e-07
1.78247e-07
1.78777e-07
1.79241e-07
1.79641e-07
1.7998e-07
1.80259e-07
1.8048e-07
1.80645e-07
1.80755e-07
1.80811e-07
1.80815e-07
1.80768e-07
1.80673e-07
1.8053e-07
1.8034e-07
1.80105e-07
1.79827e-07
1.79505e-07
1.79142e-07
1.78739e-07
1.78296e-07
1.77815e-07
1.77297e-07
1.76743e-07
1.76154e-07
1.75531e-07
1.74874e-07
1.74185e-07
1.73465e-07
1.72715e-07
1.71935e-07
1.71126e-07
1.7029e-07
1.69427e-07
1.68537e-07
1.67622e-07
1.66683e-07
1.6572e-07
1.64733e-07
1.63725e-07
1.62695e-07
1.61644e-07
1.60573e-07
1.59483e-07
1.58374e-07
1.57247e-07
1.56103e-07
1.54942e-07
1.53766e-07
1.52574e-07
1.51367e-07
1.50146e-07
1.48912e-07
1.47665e-07
1.46406e-07
1.45136e-07
1.43854e-07
1.42562e-07
1.41261e-07
1.3995e-07
1.3863e-07
1.37303e-07
1.35968e-07
1.34626e-07
1.33277e-07
1.31923e-07
1.30563e-07
1.29198e-07
1.27829e-07
1.26457e-07
1.2508e-07
1.23701e-07
1.2232e-07
1.20937e-07
1.19552e-07
1.18166e-07
1.1678e-07
1.15393e-07
1.14007e-07
1.12621e-07
1.11237e-07
1.09854e-07
1.08474e-07
1.07095e-07
1.05719e-07
1.04347e-07
1.02978e-07
1.01613e-07
1.00252e-07
9.88952e-08
9.75437e-08
9.61973e-08
9.48565e-08
9.35215e-08
9.21926e-08
9.08702e-08
8.95545e-08
8.82459e-08
8.69445e-08
8.56506e-08
8.43645e-08
8.30865e-08
8.18168e-08
8.05555e-08
7.9303e-08
7.80595e-08
7.68251e-08
7.56e-08
7.43845e-08
7.31787e-08
7.19829e-08
7.07971e-08
6.96215e-08
6.84563e-08
6.73016e-08
6.61577e-08
6.50245e-08
6.39022e-08
6.2791e-08
6.16909e-08
6.06021e-08
5.95246e-08
5.84585e-08
5.7404e-08
5.63611e-08
5.53299e-08
5.43103e-08
5.33026e-08
5.23067e-08
5.13227e-08
5.03506e-08
4.93904e-08
4.84423e-08
4.75061e-08
4.65819e-08
4.56698e-08
4.47697e-08
4.38817e-08
4.30057e-08
4.21417e-08
4.12897e-08
4.04497e-08
3.96217e-08
3.88056e-08
3.80014e-08
3.7209e-08
3.64285e-08
3.56598e-08
3.49028e-08
3.41575e-08
3.34238e-08
3.27017e-08
3.1991e-08
3.12918e-08
3.0604e-08
2.99275e-08
2.92622e-08
2.8608e-08
2.79649e-08
2.73327e-08
2.67115e-08
2.6101e-08
2.55013e-08
2.49122e-08
2.43335e-08
2.37654e-08
2.32075e-08
2.26599e-08
2.21224e-08
2.15949e-08
2.10774e-08
2.05696e-08
2.00716e-08
1.95831e-08
1.91041e-08
1.86345e-08
1.81742e-08
1.7723e-08
1.72809e-08
1.68476e-08
1.64232e-08
1.60074e-08
1.56003e-08
1.52016e-08
1.48112e-08
1.4429e-08
1.4055e-08
1.3689e-08
1.33308e-08
1.29804e-08
1.26376e-08
1.23023e-08
1.19745e-08
1.1654e-08
1.13406e-08
1.10343e-08
1.07349e-08
1.04424e-08
1.01566e-08
9.87734e-09
9.60462e-09
9.33828e-09
9.07821e-09
8.82429e-09
8.57643e-09
8.3345e-09
8.0984e-09
7.86803e-09
7.64327e-09
7.42402e-09
7.21018e-09
7.00165e-09
6.79831e-09
6.60008e-09
6.40684e-09
6.21851e-09
6.03497e-09
5.85614e-09
5.68192e-09
5.51221e-09
5.34692e-09
5.18596e-09
5.02924e-09
4.87666e-09
4.72814e-09
4.58358e-09
4.44291e-09
4.30604e-09
4.17288e-09
4.04335e-09
3.91738e-09
3.79487e-09
3.67575e-09
3.55994e-09
3.44736e-09
3.33795e-09
3.23162e-09
3.12831e-09
3.02794e-09
2.93044e-09
2.83574e-09
2.74377e-09
2.65447e-09
2.56777e-09
2.48361e-09
2.40193e-09
2.32265e-09
2.24573e-09
2.1711e-09
2.0987e-09
2.02848e-09
1.96037e-09
1.89434e-09
1.83031e-09
1.76824e-09
1.70807e-09
1.64977e-09
1.59327e-09
1.53852e-09
1.48549e-09
1.43412e-09
1.38436e-09
1.33618e-09
1.28953e-09
1.24437e-09
1.20066e-09
1.15835e-09
1.11741e-09
1.07779e-09
1.03947e-09
1.0024e-09
9.66541e-10
9.31868e-10
8.98343e-10
8.65933e-10
8.34604e-10
8.04326e-10
7.75066e-10
7.46796e-10
7.19486e-10
6.93106e-10
6.6763e-10
6.4303e-10
6.19279e-10
5.96352e-10
5.74225e-10
5.52872e-10
5.32269e-10
5.12395e-10
4.93226e-10
4.74741e-10
4.56919e-10
4.39739e-10
4.23181e-10
4.07226e-10
3.91855e-10
3.7705e-10
3.62793e-10
3.49067e-10
3.35856e-10
3.23143e-10
3.10913e-10
2.9915e-10
2.8784e-10
2.76969e-10
2.66524e-10
2.5649e-10
2.46855e-10
2.37607e-10
2.28734e-10
2.20224e-10
2.12067e-10
2.0425e-10
1.96765e-10
1.89601e-10
1.82749e-10
1.76199e-10
1.69943e-10
1.63972e-10
1.58278e-10
1.52853e-10
1.4769e-10
1.42781e-10
1.3812e-10
1.337e-10
1.29516e-10
1.2556e-10
1.21829e-10
1.18315e-10
1.15016e-10
1.11924e-10
1.09037e-10
1.0635e-10
1.0386e-10
1.01562e-10
9.94533e-11
9.75311e-11
9.57923e-11
9.42345e-11
9.28555e-11
9.16532e-11
9.06258e-11
8.97719e-11
8.90903e-11
8.858e-11
8.82403e-11
8.80707e-11
3.07652e-09
9.2225e-09
1.53474e-08
2.14378e-08
2.74809e-08
3.34646e-08
3.93779e-08
4.52104e-08
5.09528e-08
5.65966e-08
6.21343e-08
6.75592e-08
7.28651e-08
7.80472e-08
8.31009e-08
8.80227e-08
9.28095e-08
9.7459e-08
1.01969e-07
1.0634e-07
1.10569e-07
1.14657e-07
1.18604e-07
1.22411e-07
1.26078e-07
1.29607e-07
1.32999e-07
1.36257e-07
1.39381e-07
1.42374e-07
1.45239e-07
1.47977e-07
1.50592e-07
1.53085e-07
1.5546e-07
1.5772e-07
1.59866e-07
1.61901e-07
1.6383e-07
1.65653e-07
1.67374e-07
1.68995e-07
1.7052e-07
1.7195e-07
1.73289e-07
1.74539e-07
1.75702e-07
1.76781e-07
1.77778e-07
1.78695e-07
1.79535e-07
1.803e-07
1.80991e-07
1.81612e-07
1.82164e-07
1.82649e-07
1.83069e-07
1.83425e-07
1.8372e-07
1.83955e-07
1.84132e-07
1.84253e-07
1.84318e-07
1.8433e-07
1.84291e-07
1.842e-07
1.84061e-07
1.83874e-07
1.83641e-07
1.83363e-07
1.8304e-07
1.82675e-07
1.82269e-07
1.81822e-07
1.81336e-07
1.80812e-07
1.8025e-07
1.79653e-07
1.79021e-07
1.78354e-07
1.77655e-07
1.76924e-07
1.76161e-07
1.75368e-07
1.74546e-07
1.73695e-07
1.72816e-07
1.71911e-07
1.7098e-07
1.70023e-07
1.69042e-07
1.68038e-07
1.67011e-07
1.65961e-07
1.64891e-07
1.638e-07
1.62689e-07
1.61558e-07
1.6041e-07
1.59244e-07
1.58061e-07
1.56861e-07
1.55646e-07
1.54415e-07
1.53171e-07
1.51913e-07
1.50641e-07
1.49357e-07
1.48062e-07
1.46755e-07
1.45437e-07
1.4411e-07
1.42773e-07
1.41427e-07
1.40073e-07
1.38712e-07
1.37343e-07
1.35967e-07
1.34586e-07
1.33199e-07
1.31807e-07
1.30411e-07
1.2901e-07
1.27607e-07
1.262e-07
1.24791e-07
1.23379e-07
1.21967e-07
1.20553e-07
1.19139e-07
1.17724e-07
1.1631e-07
1.14897e-07
1.13485e-07
1.12074e-07
1.10666e-07
1.0926e-07
1.07856e-07
1.06456e-07
1.05059e-07
1.03667e-07
1.02278e-07
1.00894e-07
9.95154e-08
9.81419e-08
9.6774e-08
9.5412e-08
9.40564e-08
9.27073e-08
9.1365e-08
9.00299e-08
8.87022e-08
8.73822e-08
8.60702e-08
8.47664e-08
8.3471e-08
8.21842e-08
8.09064e-08
7.96378e-08
7.83784e-08
7.71286e-08
7.58885e-08
7.46584e-08
7.34383e-08
7.22286e-08
7.10292e-08
6.98405e-08
6.86625e-08
6.74954e-08
6.63393e-08
6.51943e-08
6.40606e-08
6.29383e-08
6.18275e-08
6.07282e-08
5.96406e-08
5.85648e-08
5.75008e-08
5.64487e-08
5.54085e-08
5.43804e-08
5.33644e-08
5.23605e-08
5.13687e-08
5.03892e-08
4.94218e-08
4.84667e-08
4.75239e-08
4.65933e-08
4.56751e-08
4.47691e-08
4.38753e-08
4.29939e-08
4.21247e-08
4.12677e-08
4.04229e-08
3.95903e-08
3.87698e-08
3.79615e-08
3.71652e-08
3.63809e-08
3.56086e-08
3.48482e-08
3.40997e-08
3.3363e-08
3.2638e-08
3.19246e-08
3.12229e-08
3.05327e-08
2.98539e-08
2.91865e-08
2.85304e-08
2.78854e-08
2.72516e-08
2.66288e-08
2.6017e-08
2.54159e-08
2.48256e-08
2.4246e-08
2.36768e-08
2.31181e-08
2.25698e-08
2.20316e-08
2.15036e-08
2.09856e-08
2.04775e-08
1.99791e-08
1.94905e-08
1.90114e-08
1.85417e-08
1.80814e-08
1.76303e-08
1.71883e-08
1.67553e-08
1.63311e-08
1.59157e-08
1.5509e-08
1.51107e-08
1.47208e-08
1.43392e-08
1.39658e-08
1.36004e-08
1.32429e-08
1.28932e-08
1.25511e-08
1.22167e-08
1.18896e-08
1.15699e-08
1.12574e-08
1.0952e-08
1.06535e-08
1.03619e-08
1.00771e-08
9.79885e-09
9.52712e-09
9.26179e-09
9.00274e-09
8.74986e-09
8.50304e-09
8.26216e-09
8.02713e-09
7.79783e-09
7.57415e-09
7.35599e-09
7.14323e-09
6.93579e-09
6.73354e-09
6.5364e-09
6.34425e-09
6.15701e-09
5.97456e-09
5.79682e-09
5.62368e-09
5.45505e-09
5.29083e-09
5.13094e-09
4.97527e-09
4.82375e-09
4.67627e-09
4.53276e-09
4.39312e-09
4.25726e-09
4.12512e-09
3.99659e-09
3.8716e-09
3.75007e-09
3.63192e-09
3.51707e-09
3.40545e-09
3.29697e-09
3.19157e-09
3.08917e-09
2.98969e-09
2.89308e-09
2.79925e-09
2.70815e-09
2.6197e-09
2.53383e-09
2.4505e-09
2.36962e-09
2.29114e-09
2.215e-09
2.14114e-09
2.06949e-09
2.00001e-09
1.93264e-09
1.86732e-09
1.80399e-09
1.74261e-09
1.68313e-09
1.62548e-09
1.56963e-09
1.51552e-09
1.46311e-09
1.41236e-09
1.3632e-09
1.31561e-09
1.26954e-09
1.22494e-09
1.18177e-09
1.14e-09
1.09959e-09
1.06049e-09
1.02267e-09
9.86085e-10
9.50711e-10
9.16509e-10
8.83443e-10
8.51481e-10
8.2059e-10
7.90739e-10
7.61897e-10
7.34034e-10
7.07121e-10
6.8113e-10
6.56032e-10
6.31801e-10
6.08411e-10
5.85836e-10
5.64051e-10
5.43032e-10
5.22756e-10
5.032e-10
4.84341e-10
4.66158e-10
4.48631e-10
4.31738e-10
4.1546e-10
3.99779e-10
3.84674e-10
3.70129e-10
3.56126e-10
3.42647e-10
3.29677e-10
3.17199e-10
3.05199e-10
2.9366e-10
2.8257e-10
2.71913e-10
2.61676e-10
2.51847e-10
2.42412e-10
2.33359e-10
2.24677e-10
2.16355e-10
2.0838e-10
2.00744e-10
1.93435e-10
1.86444e-10
1.79762e-10
1.73379e-10
1.67288e-10
1.61478e-10
1.55944e-10
1.50676e-10
1.45668e-10
1.40913e-10
1.36404e-10
1.32135e-10
1.28099e-10
1.24292e-10
1.20708e-10
1.17341e-10
1.14187e-10
1.11242e-10
1.08501e-10
1.0596e-10
1.03616e-10
1.01464e-10
9.95032e-11
9.77293e-11
9.614e-11
9.47331e-11
9.35064e-11
9.24583e-11
9.15871e-11
9.08916e-11
9.0371e-11
9.00245e-11
8.98514e-11
3.09806e-09
9.28747e-09
1.54568e-08
2.15932e-08
2.76842e-08
3.3718e-08
3.96836e-08
4.55709e-08
5.13704e-08
5.70735e-08
6.26727e-08
6.81608e-08
7.3532e-08
7.87807e-08
8.39025e-08
8.88933e-08
9.37501e-08
9.84703e-08
1.03052e-07
1.07493e-07
1.11794e-07
1.15953e-07
1.19971e-07
1.23847e-07
1.27584e-07
1.31181e-07
1.34641e-07
1.37964e-07
1.41153e-07
1.4421e-07
1.47136e-07
1.49935e-07
1.52608e-07
1.55158e-07
1.57588e-07
1.599e-07
1.62098e-07
1.64183e-07
1.66158e-07
1.68027e-07
1.69792e-07
1.71455e-07
1.7302e-07
1.74488e-07
1.75863e-07
1.77147e-07
1.78342e-07
1.79452e-07
1.80477e-07
1.81422e-07
1.82287e-07
1.83076e-07
1.8379e-07
1.84431e-07
1.85002e-07
1.85504e-07
1.8594e-07
1.86311e-07
1.86619e-07
1.86866e-07
1.87054e-07
1.87183e-07
1.87257e-07
1.87276e-07
1.87242e-07
1.87156e-07
1.8702e-07
1.86836e-07
1.86604e-07
1.86326e-07
1.86003e-07
1.85636e-07
1.85227e-07
1.84777e-07
1.84286e-07
1.83757e-07
1.8319e-07
1.82586e-07
1.81946e-07
1.81271e-07
1.80563e-07
1.79822e-07
1.79049e-07
1.78245e-07
1.77411e-07
1.76548e-07
1.75657e-07
1.74739e-07
1.73794e-07
1.72823e-07
1.71827e-07
1.70808e-07
1.69765e-07
1.68699e-07
1.67612e-07
1.66504e-07
1.65375e-07
1.64228e-07
1.63061e-07
1.61876e-07
1.60674e-07
1.59455e-07
1.58221e-07
1.56971e-07
1.55706e-07
1.54427e-07
1.53136e-07
1.51831e-07
1.50514e-07
1.49186e-07
1.47847e-07
1.46498e-07
1.45139e-07
1.43772e-07
1.42396e-07
1.41012e-07
1.3962e-07
1.38222e-07
1.36818e-07
1.35409e-07
1.33994e-07
1.32574e-07
1.31151e-07
1.29724e-07
1.28294e-07
1.26862e-07
1.25427e-07
1.23991e-07
1.22554e-07
1.21117e-07
1.19679e-07
1.18241e-07
1.16805e-07
1.15369e-07
1.13935e-07
1.12503e-07
1.11074e-07
1.09647e-07
1.08224e-07
1.06804e-07
1.05388e-07
1.03977e-07
1.0257e-07
1.01168e-07
9.97719e-08
9.83813e-08
9.69968e-08
9.56187e-08
9.42472e-08
9.28827e-08
9.15254e-08
9.01757e-08
8.88338e-08
8.75e-08
8.61745e-08
8.48576e-08
8.35495e-08
8.22505e-08
8.09608e-08
7.96805e-08
7.84099e-08
7.71493e-08
7.58987e-08
7.46584e-08
7.34285e-08
7.22093e-08
7.10008e-08
6.98033e-08
6.86168e-08
6.74415e-08
6.62775e-08
6.5125e-08
6.3984e-08
6.28547e-08
6.17372e-08
6.06315e-08
5.95378e-08
5.84561e-08
5.73866e-08
5.63291e-08
5.5284e-08
5.4251e-08
5.32304e-08
5.22222e-08
5.12264e-08
5.0243e-08
4.9272e-08
4.83135e-08
4.73675e-08
4.6434e-08
4.55129e-08
4.46043e-08
4.37082e-08
4.28246e-08
4.19533e-08
4.10945e-08
4.02481e-08
3.9414e-08
3.85922e-08
3.77827e-08
3.69854e-08
3.62002e-08
3.54272e-08
3.46663e-08
3.39173e-08
3.31802e-08
3.24551e-08
3.17417e-08
3.104e-08
3.03499e-08
2.96714e-08
2.90044e-08
2.83488e-08
2.77044e-08
2.70713e-08
2.64492e-08
2.58382e-08
2.52381e-08
2.46488e-08
2.40702e-08
2.35022e-08
2.29448e-08
2.23977e-08
2.18609e-08
2.13343e-08
2.08177e-08
2.03111e-08
1.98143e-08
1.93273e-08
1.88498e-08
1.83818e-08
1.79232e-08
1.74739e-08
1.70337e-08
1.66025e-08
1.61802e-08
1.57666e-08
1.53618e-08
1.49654e-08
1.45775e-08
1.41978e-08
1.38263e-08
1.34629e-08
1.31074e-08
1.27597e-08
1.24196e-08
1.20872e-08
1.17621e-08
1.14444e-08
1.1134e-08
1.08305e-08
1.05341e-08
1.02445e-08
9.96165e-09
9.68541e-09
9.41567e-09
9.15232e-09
8.89524e-09
8.64432e-09
8.39944e-09
8.1605e-09
7.92739e-09
7.69999e-09
7.47821e-09
7.26192e-09
7.05103e-09
6.84542e-09
6.645e-09
6.44966e-09
6.25931e-09
6.07383e-09
5.89313e-09
5.71711e-09
5.54568e-09
5.37874e-09
5.21619e-09
5.05793e-09
4.90389e-09
4.75397e-09
4.60807e-09
4.46611e-09
4.328e-09
4.19366e-09
4.06299e-09
3.93593e-09
3.81238e-09
3.69227e-09
3.57551e-09
3.46203e-09
3.35175e-09
3.2446e-09
3.14049e-09
3.03937e-09
2.94115e-09
2.84576e-09
2.75314e-09
2.66322e-09
2.57593e-09
2.49121e-09
2.40899e-09
2.32921e-09
2.2518e-09
2.17671e-09
2.10388e-09
2.03324e-09
1.96475e-09
1.89834e-09
1.83397e-09
1.77157e-09
1.71109e-09
1.65249e-09
1.59571e-09
1.5407e-09
1.48742e-09
1.43582e-09
1.38585e-09
1.33747e-09
1.29063e-09
1.24529e-09
1.20141e-09
1.15894e-09
1.11786e-09
1.07811e-09
1.03966e-09
1.00247e-09
9.66507e-10
9.31736e-10
8.98121e-10
8.65628e-10
8.34224e-10
8.03877e-10
7.74556e-10
7.4623e-10
7.1887e-10
6.92447e-10
6.66932e-10
6.42298e-10
6.1852e-10
5.95569e-10
5.73423e-10
5.52055e-10
5.31442e-10
5.1156e-10
4.92388e-10
4.73903e-10
4.56085e-10
4.38911e-10
4.22363e-10
4.06421e-10
3.91065e-10
3.76279e-10
3.62042e-10
3.4834e-10
3.35154e-10
3.22469e-10
3.1027e-10
2.98539e-10
2.87264e-10
2.76431e-10
2.66024e-10
2.56031e-10
2.46439e-10
2.37236e-10
2.2841e-10
2.19949e-10
2.11843e-10
2.04079e-10
1.96649e-10
1.89542e-10
1.82749e-10
1.7626e-10
1.70067e-10
1.64161e-10
1.58535e-10
1.53179e-10
1.48088e-10
1.43254e-10
1.3867e-10
1.3433e-10
1.30228e-10
1.26357e-10
1.22713e-10
1.19291e-10
1.16085e-10
1.1309e-10
1.10304e-10
1.0772e-10
1.05337e-10
1.0315e-10
1.01156e-10
9.9353e-11
9.77373e-11
9.6307e-11
9.50599e-11
9.39944e-11
9.31087e-11
9.24017e-11
9.18723e-11
9.15201e-11
9.13441e-11
3.11574e-09
9.34074e-09
1.55464e-08
2.17202e-08
2.785e-08
3.39243e-08
3.99321e-08
4.58634e-08
5.17087e-08
5.74595e-08
6.31078e-08
6.86468e-08
7.407e-08
7.93721e-08
8.45483e-08
8.95945e-08
9.45073e-08
9.9284e-08
1.03922e-07
1.08421e-07
1.12778e-07
1.16994e-07
1.21069e-07
1.25002e-07
1.28794e-07
1.32446e-07
1.35959e-07
1.39335e-07
1.42576e-07
1.45684e-07
1.4866e-07
1.51507e-07
1.54227e-07
1.56823e-07
1.59297e-07
1.61652e-07
1.6389e-07
1.66015e-07
1.68029e-07
1.69934e-07
1.71734e-07
1.7343e-07
1.75027e-07
1.76526e-07
1.7793e-07
1.79241e-07
1.80463e-07
1.81597e-07
1.82646e-07
1.83612e-07
1.84498e-07
1.85306e-07
1.86038e-07
1.86696e-07
1.87282e-07
1.87798e-07
1.88247e-07
1.8863e-07
1.88949e-07
1.89205e-07
1.89401e-07
1.89538e-07
1.89618e-07
1.89643e-07
1.89614e-07
1.89532e-07
1.89398e-07