/*--------------------------------*- C++ -*----------------------------------*\
  =========                 |
  \\      /  F ield         | OpenFOAM: The Open Source CFD Toolbox
   \\    /   O peration     | Website:  https://openfoam.org
    \\  /    A nd           | Version:  10
     \\/     M anipulation  |
\*---------------------------------------------------------------------------*/
FoamFile
{
    format      ascii;
    class       volScalarField;
    location    "0.22";
    object      Exp1;
}
// * * * * * * * * * * * * * * * * * * * * * * * * * * * * * * * * * * * * * //

dimensions      [0 0 0 0 0 0 0];

internalField   uniform 0;

boundaryField
{
    frontAndBack
    {
        type            empty;
    }
    inlet
    {
        type            calculated;
        value           uniform 0;
    }
    outlet
    {
        type            calculated;
        value           uniform 0;
    }
    substrate
    {
        type            calculated;
        value           nonuniform List<scalar> 
400
(
1.94172e-05
5.81331e-05
9.65632e-05
0.000134572
0.000172038
0.000208854
0.000244921
0.000280151
0.000314466
0.000347796
0.000380079
0.000411261
0.000441298
0.00047015
0.000497785
0.000524178
0.00054931
0.000573167
0.000595741
0.000617027
0.000637028
0.000655746
0.000673191
0.000689374
0.00070431
0.000718016
0.000730511
0.000741818
0.000751959
0.000760961
0.000768849
0.000775652
0.000781398
0.000786116
0.000789838
0.000792594
0.000794416
0.000795336
0.000795385
0.000794596
0.000793002
0.000790635
0.000787527
0.000783711
0.000779219
0.000774082
0.000768332
0.000762002
0.00075512
0.000747719
0.000739829
0.000731478
0.000722697
0.000713514
0.000703957
0.000694054
0.000683832
0.000673317
0.000662536
0.000651513
0.000640272
0.000628839
0.000617235
0.000605484
0.000593607
0.000581624
0.000569558
0.000557426
0.000545248
0.000533043
0.000520827
0.000508616
0.000496428
0.000484277
0.000472178
0.000460143
0.000448187
0.000436322
0.000424559
0.000412909
0.000401383
0.000389989
0.000378737
0.000367634
0.00035669
0.00034591
0.0003353
0.000324868
0.000314617
0.000304552
0.000294679
0.000284999
0.000275517
0.000266235
0.000257155
0.000248279
0.000239608
0.000231143
0.000222885
0.000214833
0.000206988
0.000199348
0.000191914
0.000184683
0.000177655
0.000170827
0.000164199
0.000157767
0.000151529
0.000145483
0.000139626
0.000133955
0.000128467
0.00012316
0.000118029
0.000113071
0.000108283
0.000103662
9.92029e-05
9.49031e-05
9.07586e-05
8.67657e-05
8.29205e-05
7.92194e-05
7.56586e-05
7.22341e-05
6.89423e-05
6.57794e-05
6.27416e-05
5.98252e-05
5.70265e-05
5.43419e-05
5.17679e-05
4.93007e-05
4.6937e-05
4.46732e-05
4.2506e-05
4.04322e-05
3.84483e-05
3.65512e-05
3.47378e-05
3.3005e-05
3.13499e-05
2.97695e-05
2.82609e-05
2.68215e-05
2.54485e-05
2.41394e-05
2.28914e-05
2.17023e-05
2.05696e-05
1.94909e-05
1.84641e-05
1.74869e-05
1.65573e-05
1.56731e-05
1.48325e-05
1.40335e-05
1.32743e-05
1.25532e-05
1.18684e-05
1.12182e-05
1.06012e-05
1.00158e-05
9.4605e-06
8.93394e-06
8.43475e-06
7.96165e-06
7.51339e-06
7.08879e-06
6.6867e-06
6.30603e-06
5.94573e-06
5.6048e-06
5.28228e-06
4.97726e-06
4.68886e-06
4.41623e-06
4.15859e-06
3.91516e-06
3.68522e-06
3.46807e-06
3.26305e-06
3.06953e-06
2.8869e-06
2.7146e-06
2.55207e-06
2.3988e-06
2.25429e-06
2.11807e-06
1.98969e-06
1.86873e-06
1.75479e-06
1.64748e-06
1.54643e-06
1.45131e-06
1.36178e-06
1.27754e-06
1.19828e-06
1.12373e-06
1.05362e-06
9.87706e-07
9.25743e-07
8.67508e-07
8.12787e-07
7.6138e-07
7.13095e-07
6.67751e-07
6.25178e-07
5.85215e-07
5.47707e-07
5.12513e-07
4.79494e-07
4.48523e-07
4.19478e-07
3.92245e-07
3.66715e-07
3.42787e-07
3.20364e-07
2.99355e-07
2.79675e-07
2.61243e-07
2.43984e-07
2.27825e-07
2.127e-07
1.98544e-07
1.85299e-07
1.72907e-07
1.61316e-07
1.50476e-07
1.40341e-07
1.30866e-07
1.22009e-07
1.13732e-07
1.05999e-07
9.87747e-08
9.20269e-08
8.57254e-08
7.98418e-08
7.43493e-08
6.92228e-08
6.44388e-08
5.99751e-08
5.58111e-08
5.19274e-08
4.83057e-08
4.49289e-08
4.1781e-08
3.88471e-08
3.6113e-08
3.35656e-08
3.11926e-08
2.89824e-08
2.69242e-08
2.50079e-08
2.3224e-08
2.15637e-08
2.00186e-08
1.85811e-08
1.72438e-08
1.60001e-08
1.48435e-08
1.37681e-08
1.27685e-08
1.18394e-08
1.0976e-08
1.01738e-08
9.42866e-09
8.73657e-09
8.09388e-09
7.49717e-09
6.94326e-09
6.42916e-09
5.95209e-09
5.50947e-09
5.09889e-09
4.71808e-09
4.36495e-09
4.03755e-09
3.73406e-09
3.45278e-09
3.19213e-09
2.95064e-09
2.72695e-09
2.51977e-09
2.32792e-09
2.15031e-09
1.9859e-09
1.83374e-09
1.69293e-09
1.56267e-09
1.44217e-09
1.33073e-09
1.22769e-09
1.13243e-09
1.04437e-09
9.62988e-10
8.87791e-10
8.18322e-10
7.54155e-10
6.94895e-10
6.40179e-10
5.89666e-10
5.43041e-10
5.00015e-10
4.60315e-10
4.23691e-10
3.89912e-10
3.58762e-10
3.30041e-10
3.03564e-10
2.79162e-10
2.56675e-10
2.35958e-10
2.16873e-10
1.99296e-10
1.83111e-10
1.68209e-10
1.54493e-10
1.41869e-10
1.30253e-10
1.19567e-10
1.09737e-10
1.00698e-10
9.23858e-11
8.47447e-11
7.77214e-11
7.12672e-11
6.53371e-11
5.98895e-11
5.48861e-11
5.02915e-11
4.60732e-11
4.22009e-11
3.8647e-11
3.53859e-11
3.23941e-11
2.96498e-11
2.7133e-11
2.48252e-11
2.27096e-11
2.07705e-11
1.89934e-11
1.73652e-11
1.58737e-11
1.45076e-11
1.32566e-11
1.21113e-11
1.10629e-11
1.01033e-11
9.22536e-12
8.42213e-12
7.68742e-12
7.01553e-12
6.4012e-12
5.8396e-12
5.32631e-12
4.85727e-12
4.42874e-12
4.03731e-12
3.67983e-12
3.35342e-12
3.05546e-12
2.78351e-12
2.53536e-12
2.30897e-12
2.10249e-12
1.91421e-12
1.74256e-12
1.58613e-12
1.44359e-12
1.31376e-12
1.19554e-12
1.08793e-12
9.90014e-13
9.00955e-13
8.19994e-13
7.46432e-13
6.79636e-13
6.19026e-13
5.64076e-13
5.14306e-13
4.6928e-13
4.28602e-13
3.91913e-13
3.58889e-13
3.29237e-13
3.02692e-13
2.79017e-13
2.58001e-13
2.39455e-13
2.23211e-13
2.09123e-13
1.97064e-13
1.86924e-13
1.78612e-13
1.72051e-13
1.67182e-13
1.63961e-13
1.62357e-13
)
;
    }
    Wall
    {
        type            calculated;
        value           nonuniform List<scalar> 
400
(
1.94173e-05
5.81336e-05
9.65645e-05
0.000134574
0.00017204
0.000208856
0.000244923
0.000280153
0.000314467
0.000347796
0.000380078
0.00041126
0.000441296
0.000470146
0.00049778
0.000524172
0.000549303
0.000573159
0.000595732
0.000617018
0.000637017
0.000655734
0.000673178
0.00068936
0.000704295
0.000718
0.000730494
0.0007418
0.000751941
0.000760942
0.00076883
0.000775632
0.000781377
0.000786095
0.000789816
0.000792572
0.000794393
0.000795312
0.000795361
0.000794572
0.000792978
0.000790611
0.000787503
0.000783686
0.000779194
0.000774057
0.000768307
0.000761977
0.000755095
0.000747694
0.000739804
0.000731453
0.000722672
0.000713489
0.000703933
0.00069403
0.000683808
0.000673294
0.000662512
0.00065149
0.00064025
0.000628817
0.000617213
0.000605462
0.000593585
0.000581604
0.000569538
0.000557406
0.000545229
0.000533024
0.000520808
0.000508598
0.00049641
0.00048426
0.000472161
0.000460127
0.000448172
0.000436307
0.000424544
0.000412895
0.000401369
0.000389975
0.000378723
0.000367622
0.000356677
0.000345898
0.000335289
0.000324857
0.000314606
0.000304542
0.000294669
0.00028499
0.000275508
0.000266227
0.000257147
0.000248271
0.000239601
0.000231136
0.000222878
0.000214826
0.000206981
0.000199342
0.000191908
0.000184677
0.000177649
0.000170822
0.000164194
0.000157762
0.000151524
0.000145479
0.000139622
0.000133951
0.000128464
0.000123156
0.000118026
0.000113068
0.00010828
0.000103659
9.92004e-05
9.49007e-05
9.07564e-05
8.67636e-05
8.29186e-05
7.92176e-05
7.56568e-05
7.22325e-05
6.89407e-05
6.57779e-05
6.27402e-05
5.98239e-05
5.70253e-05
5.43408e-05
5.17668e-05
4.92997e-05
4.69361e-05
4.46724e-05
4.25053e-05
4.04314e-05
3.84476e-05
3.65506e-05
3.47372e-05
3.30045e-05
3.13494e-05
2.9769e-05
2.82605e-05
2.68211e-05
2.54482e-05
2.4139e-05
2.28911e-05
2.1702e-05
2.05693e-05
1.94907e-05
1.84639e-05
1.74867e-05
1.65571e-05
1.5673e-05
1.48324e-05
1.40334e-05
1.32742e-05
1.25531e-05
1.18683e-05
1.12182e-05
1.06011e-05
1.00157e-05
9.46044e-06
8.93388e-06
8.4347e-06
7.96161e-06
7.51335e-06
7.08876e-06
6.68667e-06
6.306e-06
5.94571e-06
5.60479e-06
5.28227e-06
4.97725e-06
4.68885e-06
4.41623e-06
4.15858e-06
3.91516e-06
3.68522e-06
3.46807e-06
3.26305e-06
3.06953e-06
2.88691e-06
2.71461e-06
2.55208e-06
2.3988e-06
2.25429e-06
2.11807e-06
1.9897e-06
1.86874e-06
1.7548e-06
1.64749e-06
1.54644e-06
1.45132e-06
1.36179e-06
1.27755e-06
1.19829e-06
1.12374e-06
1.05363e-06
9.87715e-07
9.25752e-07
8.67516e-07
8.12796e-07
7.61389e-07
7.13103e-07
6.67759e-07
6.25186e-07
5.85222e-07
5.47714e-07
5.12519e-07
4.79501e-07
4.48529e-07
4.19484e-07
3.92251e-07
3.66721e-07
3.42792e-07
3.20369e-07
2.9936e-07
2.7968e-07
2.61248e-07
2.43988e-07
2.27829e-07
2.12704e-07
1.98548e-07
1.85302e-07
1.72911e-07
1.6132e-07
1.5048e-07
1.40344e-07
1.30868e-07
1.22012e-07
1.13735e-07
1.06002e-07
9.87771e-08
9.20292e-08
8.57276e-08
7.98438e-08
7.43512e-08
6.92246e-08
6.44405e-08
5.99767e-08
5.58127e-08
5.19289e-08
4.83071e-08
4.49302e-08
4.17822e-08
3.88482e-08
3.61141e-08
3.35666e-08
3.11936e-08
2.89833e-08
2.6925e-08
2.50087e-08
2.32248e-08
2.15644e-08
2.00193e-08
1.85817e-08
1.72444e-08
1.60006e-08
1.4844e-08
1.37686e-08
1.27689e-08
1.18398e-08
1.09764e-08
1.01742e-08
9.42903e-09
8.73691e-09
8.0942e-09
7.49748e-09
6.94355e-09
6.42943e-09
5.95235e-09
5.50971e-09
5.09911e-09
4.71828e-09
4.36514e-09
4.03773e-09
3.73423e-09
3.45294e-09
3.19228e-09
2.95078e-09
2.72708e-09
2.51989e-09
2.32804e-09
2.15042e-09
1.986e-09
1.83383e-09
1.69302e-09
1.56275e-09
1.44225e-09
1.3308e-09
1.22776e-09
1.13249e-09
1.04443e-09
9.63041e-10
8.87841e-10
8.18368e-10
7.54197e-10
6.94935e-10
6.40216e-10
5.897e-10
5.43074e-10
5.00045e-10
4.60343e-10
4.23717e-10
3.89936e-10
3.58784e-10
3.30061e-10
3.03584e-10
2.7918e-10
2.56692e-10
2.35973e-10
2.16887e-10
1.99309e-10
1.83123e-10
1.68221e-10
1.54503e-10
1.41879e-10
1.30262e-10
1.19575e-10
1.09745e-10
1.00705e-10
9.23926e-11
8.4751e-11
7.77272e-11
7.12726e-11
6.53421e-11
5.98941e-11
5.48904e-11
5.02955e-11
4.60768e-11
4.22043e-11
3.86501e-11
3.53888e-11
3.23967e-11
2.96522e-11
2.71352e-11
2.48273e-11
2.27115e-11
2.07723e-11
1.89951e-11
1.73667e-11
1.58751e-11
1.45089e-11
1.32578e-11
1.21124e-11
1.10639e-11
1.01043e-11
9.22621e-12
8.42291e-12
7.68815e-12
7.0162e-12
6.40181e-12
5.84016e-12
5.32683e-12
4.85775e-12
4.42918e-12
4.03771e-12
3.6802e-12
3.35377e-12
3.05577e-12
2.7838e-12
2.53562e-12
2.30921e-12
2.10271e-12
1.91441e-12
1.74275e-12
1.5863e-12
1.44375e-12
1.31391e-12
1.19568e-12
1.08805e-12
9.90125e-13
9.01057e-13
8.20087e-13
7.46517e-13
6.79714e-13
6.19098e-13
5.64142e-13
5.14366e-13
4.69335e-13
4.28652e-13
3.91959e-13
3.58932e-13
3.29276e-13
3.02728e-13
2.7905e-13
2.58031e-13
2.39483e-13
2.23237e-13
2.09148e-13
1.97087e-13
1.86947e-13
1.78634e-13
1.72072e-13
1.67202e-13
1.63976e-13
1.6237e-13
)
;
    }
}


// ************************************************************************* //
