/*--------------------------------*- C++ -*----------------------------------*\
  =========                 |
  \\      /  F ield         | OpenFOAM: The Open Source CFD Toolbox
   \\    /   O peration     | Website:  https://openfoam.org
    \\  /    A nd           | Version:  10
     \\/     M anipulation  |
\*---------------------------------------------------------------------------*/
FoamFile
{
    format      ascii;
    class       volScalarField;
    location    "0.46";
    object      growth;
}
// * * * * * * * * * * * * * * * * * * * * * * * * * * * * * * * * * * * * * //

dimensions      [0 0 0 0 0 0 0];

internalField   uniform 0;

boundaryField
{
    frontAndBack
    {
        type            empty;
    }
    inlet
    {
        type            calculated;
        value           uniform 0;
    }
    outlet
    {
        type            calculated;
        value           uniform 0;
    }
    substrate
    {
        type            calculated;
        value           nonuniform List<scalar> 
400
(
0.734673
0.712425
0.691347
0.670899
0.650825
0.631001
0.611366
0.591896
0.572587
0.553451
0.534506
0.515774
0.497281
0.479053
0.461116
0.443497
0.426218
0.409302
0.392768
0.376634
0.360915
0.345622
0.330766
0.316355
0.302393
0.288884
0.27583
0.26323
0.25108
0.239379
0.228119
0.217296
0.206901
0.196927
0.187363
0.178201
0.16943
0.161039
0.153016
0.145351
0.138032
0.131048
0.124386
0.118034
0.111982
0.106218
0.10073
0.0955077
0.0905396
0.0858152
0.0813241
0.0770562
0.0730016
0.0691508
0.0654946
0.062024
0.0587304
0.0556055
0.0526414
0.0498303
0.0471648
0.044638
0.042243
0.0399733
0.0378226
0.0357852
0.0338551
0.0320272
0.0302961
0.0286569
0.027105
0.0256357
0.024245
0.0229286
0.0216828
0.0205038
0.0193882
0.0183326
0.0173339
0.0163891
0.0154952
0.0146497
0.01385
0.0130935
0.0123781
0.0117015
0.0110616
0.0104565
0.00988434
0.00934328
0.00883168
0.00834796
0.0078906
0.00745819
0.00704938
0.00666288
0.0062975
0.00595208
0.00562555
0.00531687
0.00502508
0.00474926
0.00448853
0.00424209
0.00400914
0.00378895
0.00358083
0.00338412
0.0031982
0.00302247
0.00285638
0.0026994
0.00255104
0.00241081
0.00227829
0.00215304
0.00203466
0.00192279
0.00181706
0.00171714
0.00162271
0.00153346
0.00144912
0.00136942
0.00129409
0.0012229
0.00115563
0.00109206
0.00103198
0.000975198
0.000921543
0.000870837
0.00082292
0.000777638
0.000734846
0.000694407
0.000656193
0.00062008
0.000585954
0.000553705
0.00052323
0.000494431
0.000467217
0.0004415
0.000417198
0.000394232
0.000372531
0.000352023
0.000332644
0.000314331
0.000297026
0.000280673
0.00026522
0.000250618
0.000236819
0.000223779
0.000211457
0.000199813
0.00018881
0.000178413
0.000168588
0.000159304
0.00015053
0.00014224
0.000134406
0.000127003
0.000120008
0.000113398
0.000107151
0.000101249
9.56711e-05
9.04006e-05
8.54203e-05
8.07141e-05
7.62671e-05
7.20649e-05
6.8094e-05
6.43418e-05
6.07962e-05
5.74458e-05
5.42799e-05
5.12884e-05
4.84616e-05
4.57904e-05
4.32663e-05
4.08813e-05
3.86276e-05
3.6498e-05
3.44857e-05
3.25843e-05
3.07876e-05
2.90898e-05
2.74856e-05
2.59697e-05
2.45373e-05
2.31839e-05
2.1905e-05
2.06966e-05
1.95547e-05
1.84758e-05
1.74563e-05
1.6493e-05
1.55828e-05
1.47227e-05
1.39101e-05
1.31422e-05
1.24167e-05
1.17311e-05
1.10833e-05
1.04713e-05
9.89297e-06
9.34653e-06
8.83023e-06
8.3424e-06
7.88146e-06
7.44595e-06
7.03445e-06
6.64565e-06
6.2783e-06
5.93121e-06
5.60326e-06
5.29341e-06
5.00066e-06
4.72406e-06
4.46272e-06
4.21581e-06
3.98252e-06
3.76211e-06
3.55387e-06
3.35713e-06
3.17125e-06
2.99563e-06
2.82971e-06
2.67296e-06
2.52486e-06
2.38495e-06
2.25276e-06
2.12788e-06
2.0099e-06
1.89845e-06
1.79315e-06
1.69367e-06
1.5997e-06
1.51092e-06
1.42705e-06
1.34782e-06
1.27297e-06
1.20226e-06
1.13547e-06
1.07237e-06
1.01277e-06
9.56467e-07
9.0328e-07
8.53039e-07
8.05581e-07
7.60752e-07
7.18408e-07
6.78409e-07
6.40628e-07
6.04942e-07
5.71234e-07
5.39396e-07
5.09324e-07
4.80921e-07
4.54094e-07
4.28755e-07
4.04824e-07
3.82222e-07
3.60875e-07
3.40714e-07
3.21673e-07
3.03691e-07
2.86708e-07
2.7067e-07
2.55524e-07
2.4122e-07
2.27713e-07
2.14957e-07
2.02912e-07
1.91538e-07
1.80797e-07
1.70655e-07
1.61078e-07
1.52035e-07
1.43497e-07
1.35435e-07
1.27823e-07
1.20635e-07
1.1385e-07
1.07443e-07
1.01394e-07
9.56837e-08
9.02925e-08
8.52028e-08
8.03979e-08
7.5862e-08
7.15801e-08
6.75381e-08
6.37225e-08
6.01208e-08
5.67212e-08
5.35122e-08
5.04833e-08
4.76245e-08
4.49263e-08
4.23797e-08
3.99762e-08
3.77079e-08
3.55672e-08
3.3547e-08
3.16406e-08
2.98415e-08
2.81439e-08
2.6542e-08
2.50304e-08
2.36041e-08
2.22584e-08
2.09887e-08
1.97908e-08
1.86606e-08
1.75943e-08
1.65884e-08
1.56394e-08
1.47443e-08
1.38998e-08
1.31033e-08
1.2352e-08
1.16433e-08
1.09749e-08
1.03445e-08
9.74998e-09
9.18928e-09
8.66051e-09
8.16187e-09
7.69166e-09
7.24829e-09
6.83022e-09
6.43605e-09
6.06441e-09
5.71403e-09
5.38371e-09
5.07233e-09
4.77879e-09
4.50211e-09
4.24131e-09
3.99551e-09
3.76386e-09
3.54554e-09
3.33982e-09
3.14596e-09
2.96331e-09
2.79122e-09
2.6291e-09
2.47639e-09
2.33254e-09
2.19706e-09
2.06948e-09
1.94934e-09
1.83622e-09
1.72974e-09
1.62951e-09
1.53518e-09
1.44642e-09
1.36292e-09
1.28437e-09
1.21052e-09
1.14108e-09
1.07582e-09
1.0145e-09
9.56903e-10
9.02831e-10
8.52086e-10
8.04487e-10
7.59866e-10
7.18061e-10
6.78924e-10
6.42313e-10
6.08098e-10
5.76156e-10
5.46371e-10
5.18636e-10
4.92852e-10
4.68925e-10
4.46769e-10
4.26303e-10
4.07454e-10
3.90154e-10
3.74339e-10
3.59952e-10
3.46941e-10
3.35259e-10
3.24863e-10
3.15715e-10
3.07783e-10
3.01036e-10
2.95452e-10
2.91008e-10
2.87689e-10
2.85484e-10
2.84383e-10
)
;
    }
    Wall
    {
        type            calculated;
        value           nonuniform List<scalar> 
400
(
0.734673
0.712424
0.691347
0.670899
0.650825
0.631001
0.611366
0.591895
0.572587
0.553451
0.534506
0.515774
0.497281
0.479053
0.461117
0.443498
0.42622
0.409304
0.392771
0.376637
0.360918
0.345625
0.33077
0.316358
0.302397
0.288889
0.275835
0.263234
0.251085
0.239383
0.228124
0.217301
0.206906
0.196932
0.187368
0.178206
0.169435
0.161044
0.153021
0.145356
0.138037
0.131052
0.12439
0.118039
0.111987
0.106222
0.100735
0.0955119
0.0905437
0.0858192
0.0813279
0.0770599
0.0730052
0.0691543
0.0654979
0.0620272
0.0587334
0.0556084
0.0526442
0.049833
0.0471674
0.0446405
0.0422453
0.0399755
0.0378248
0.0357872
0.0338571
0.032029
0.0302978
0.0286586
0.0271065
0.0256372
0.0242464
0.02293
0.0216841
0.020505
0.0193894
0.0183337
0.0173349
0.01639
0.0154961
0.0146506
0.0138508
0.0130943
0.0123788
0.0117022
0.0110623
0.0104571
0.00988489
0.00934379
0.00883216
0.00834841
0.00789103
0.00745859
0.00704975
0.00666323
0.00629783
0.00595239
0.00562583
0.00531714
0.00502533
0.00474949
0.00448875
0.00424229
0.00400932
0.00378912
0.00358099
0.00338427
0.00319834
0.0030226
0.0028565
0.00269951
0.00255114
0.00241091
0.00227837
0.00215312
0.00203474
0.00192286
0.00181713
0.0017172
0.00162276
0.00153351
0.00144917
0.00136946
0.00129413
0.00122294
0.00115567
0.00109209
0.001032
0.000975225
0.000921567
0.00087086
0.000822941
0.000777657
0.000734863
0.000694423
0.000656207
0.000620094
0.000585966
0.000553716
0.00052324
0.000494441
0.000467225
0.000441508
0.000417205
0.000394239
0.000372537
0.000352029
0.000332649
0.000314336
0.00029703
0.000280677
0.000265224
0.000250621
0.000236822
0.000223782
0.00021146
0.000199816
0.000188812
0.000178415
0.00016859
0.000159305
0.000150532
0.000142241
0.000134407
0.000127004
0.000120009
0.000113398
0.000107152
0.000101249
9.56717e-05
9.04011e-05
8.54207e-05
8.07145e-05
7.62674e-05
7.20652e-05
6.80943e-05
6.43421e-05
6.07964e-05
5.7446e-05
5.42801e-05
5.12885e-05
4.84617e-05
4.57905e-05
4.32665e-05
4.08814e-05
3.86277e-05
3.64981e-05
3.44858e-05
3.25843e-05
3.07876e-05
2.90899e-05
2.74856e-05
2.59697e-05
2.45374e-05
2.31839e-05
2.1905e-05
2.06966e-05
1.95548e-05
1.84758e-05
1.74563e-05
1.6493e-05
1.55828e-05
1.47227e-05
1.39101e-05
1.31422e-05
1.24167e-05
1.17311e-05
1.10833e-05
1.04713e-05
9.89297e-06
9.34654e-06
8.83023e-06
8.3424e-06
7.88146e-06
7.44595e-06
7.03445e-06
6.64565e-06
6.2783e-06
5.93121e-06
5.60326e-06
5.29341e-06
5.00066e-06
4.72406e-06
4.46272e-06
4.21581e-06
3.98252e-06
3.76211e-06
3.55387e-06
3.35713e-06
3.17125e-06
2.99563e-06
2.82971e-06
2.67296e-06
2.52486e-06
2.38495e-06
2.25276e-06
2.12788e-06
2.0099e-06
1.89845e-06
1.79315e-06
1.69367e-06
1.5997e-06
1.51092e-06
1.42705e-06
1.34782e-06
1.27297e-06
1.20227e-06
1.13547e-06
1.07238e-06
1.01277e-06
9.56467e-07
9.03281e-07
8.5304e-07
8.05582e-07
7.60753e-07
7.18408e-07
6.7841e-07
6.40629e-07
6.04942e-07
5.71235e-07
5.39397e-07
5.09325e-07
4.80921e-07
4.54094e-07
4.28756e-07
4.04824e-07
3.82222e-07
3.60875e-07
3.40714e-07
3.21673e-07
3.03691e-07
2.86708e-07
2.7067e-07
2.55524e-07
2.4122e-07
2.27713e-07
2.14958e-07
2.02912e-07
1.91538e-07
1.80797e-07
1.70655e-07
1.61078e-07
1.52035e-07
1.43497e-07
1.35435e-07
1.27823e-07
1.20636e-07
1.1385e-07
1.07443e-07
1.01394e-07
9.56839e-08
9.02926e-08
8.52029e-08
8.03981e-08
7.58622e-08
7.15802e-08
6.75382e-08
6.37226e-08
6.0121e-08
5.67213e-08
5.35123e-08
5.04834e-08
4.76246e-08
4.49264e-08
4.23798e-08
3.99763e-08
3.7708e-08
3.55673e-08
3.35471e-08
3.16407e-08
2.98416e-08
2.8144e-08
2.6542e-08
2.50305e-08
2.36042e-08
2.22585e-08
2.09888e-08
1.97908e-08
1.86606e-08
1.75943e-08
1.65884e-08
1.56395e-08
1.47443e-08
1.38999e-08
1.31034e-08
1.2352e-08
1.16434e-08
1.0975e-08
1.03446e-08
9.75002e-09
9.18931e-09
8.66054e-09
8.1619e-09
7.69169e-09
7.24831e-09
6.83025e-09
6.43607e-09
6.06443e-09
5.71405e-09
5.38374e-09
5.07235e-09
4.77881e-09
4.50213e-09
4.24133e-09
3.99553e-09
3.76387e-09
3.54556e-09
3.33983e-09
3.14598e-09
2.96332e-09
2.79124e-09
2.62912e-09
2.4764e-09
2.33255e-09
2.19707e-09
2.06949e-09
1.94935e-09
1.83623e-09
1.72975e-09
1.62952e-09
1.53519e-09
1.44643e-09
1.36293e-09
1.28438e-09
1.21052e-09
1.14108e-09
1.07582e-09
1.0145e-09
9.56909e-10
9.02836e-10
8.52091e-10
8.04493e-10
7.59871e-10
7.18066e-10
6.78928e-10
6.42318e-10
6.08102e-10
5.7616e-10
5.46375e-10
5.1864e-10
4.92856e-10
4.68928e-10
4.46772e-10
4.26306e-10
4.07457e-10
3.90156e-10
3.74341e-10
3.59954e-10
3.46943e-10
3.35261e-10
3.24865e-10
3.15718e-10
3.07785e-10
3.01039e-10
2.95454e-10
2.91011e-10
2.87692e-10
2.85486e-10
2.84384e-10
)
;
    }
}


// ************************************************************************* //
