/*--------------------------------*- C++ -*----------------------------------*\
  =========                 |
  \\      /  F ield         | OpenFOAM: The Open Source CFD Toolbox
   \\    /   O peration     | Website:  https://openfoam.org
    \\  /    A nd           | Version:  10
     \\/     M anipulation  |
\*---------------------------------------------------------------------------*/
FoamFile
{
    format      ascii;
    class       volScalarField;
    location    "0.46";
    object      N1;
}
// * * * * * * * * * * * * * * * * * * * * * * * * * * * * * * * * * * * * * //

dimensions      [0 0 0 0 0 0 0];

internalField   nonuniform List<scalar> 
8000
(
2.31773e-08
6.94347e-08
1.15435e-07
1.61046e-07
2.06154e-07
2.5066e-07
2.94474e-07
3.37517e-07
3.79722e-07
4.21028e-07
4.61383e-07
5.00743e-07
5.39071e-07
5.76336e-07
6.12514e-07
6.47589e-07
6.81545e-07
7.14377e-07
7.4608e-07
7.76655e-07
8.06106e-07
8.3444e-07
8.61668e-07
8.87803e-07
9.12858e-07
9.36851e-07
9.59801e-07
9.81725e-07
1.00265e-06
1.02258e-06
1.04156e-06
1.0596e-06
1.07672e-06
1.09295e-06
1.1083e-06
1.12281e-06
1.1365e-06
1.14938e-06
1.16148e-06
1.17282e-06
1.18343e-06
1.19332e-06
1.20251e-06
1.21103e-06
1.21889e-06
1.22611e-06
1.23271e-06
1.23871e-06
1.24413e-06
1.24898e-06
1.25328e-06
1.25705e-06
1.26029e-06
1.26304e-06
1.26529e-06
1.26707e-06
1.26839e-06
1.26925e-06
1.26969e-06
1.2697e-06
1.26929e-06
1.26849e-06
1.2673e-06
1.26574e-06
1.26381e-06
1.26152e-06
1.25889e-06
1.25592e-06
1.25263e-06
1.24902e-06
1.2451e-06
1.24089e-06
1.23639e-06
1.2316e-06
1.22655e-06
1.22123e-06
1.21565e-06
1.20983e-06
1.20377e-06
1.19747e-06
1.19095e-06
1.18421e-06
1.17726e-06
1.17011e-06
1.16276e-06
1.15522e-06
1.1475e-06
1.1396e-06
1.13153e-06
1.1233e-06
1.11491e-06
1.10637e-06
1.09769e-06
1.08886e-06
1.07991e-06
1.07082e-06
1.06162e-06
1.0523e-06
1.04287e-06
1.03334e-06
1.02371e-06
1.01399e-06
1.00417e-06
9.94281e-07
9.84311e-07
9.74268e-07
9.64158e-07
9.53987e-07
9.43758e-07
9.33477e-07
9.23149e-07
9.12778e-07
9.02369e-07
8.91926e-07
8.81454e-07
8.70958e-07
8.60441e-07
8.49908e-07
8.39363e-07
8.2881e-07
8.18253e-07
8.07697e-07
7.97144e-07
7.86599e-07
7.76066e-07
7.65547e-07
7.55047e-07
7.4457e-07
7.34117e-07
7.23694e-07
7.13302e-07
7.02945e-07
6.92627e-07
6.8235e-07
6.72117e-07
6.61931e-07
6.51795e-07
6.41711e-07
6.31682e-07
6.21711e-07
6.11799e-07
6.0195e-07
5.92165e-07
5.82447e-07
5.72797e-07
5.63219e-07
5.53713e-07
5.44282e-07
5.34928e-07
5.25652e-07
5.16456e-07
5.07341e-07
4.98309e-07
4.89362e-07
4.80501e-07
4.71726e-07
4.6304e-07
4.54444e-07
4.45938e-07
4.37523e-07
4.29201e-07
4.20972e-07
4.12837e-07
4.04798e-07
3.96854e-07
3.89006e-07
3.81255e-07
3.73601e-07
3.66045e-07
3.58587e-07
3.51227e-07
3.43966e-07
3.36804e-07
3.29741e-07
3.22777e-07
3.15912e-07
3.09146e-07
3.0248e-07
2.95913e-07
2.89444e-07
2.83074e-07
2.76803e-07
2.7063e-07
2.64555e-07
2.58578e-07
2.52698e-07
2.46914e-07
2.41227e-07
2.35636e-07
2.3014e-07
2.24738e-07
2.19431e-07
2.14217e-07
2.09096e-07
2.04067e-07
1.9913e-07
1.94283e-07
1.89527e-07
1.84859e-07
1.8028e-07
1.75788e-07
1.71383e-07
1.67064e-07
1.62829e-07
1.58679e-07
1.54612e-07
1.50627e-07
1.46723e-07
1.42899e-07
1.39155e-07
1.35489e-07
1.31901e-07
1.28389e-07
1.24952e-07
1.21589e-07
1.183e-07
1.15083e-07
1.11938e-07
1.08862e-07
1.05856e-07
1.02918e-07
1.00047e-07
9.72421e-08
9.45022e-08
9.18264e-08
8.92134e-08
8.66624e-08
8.41722e-08
8.17419e-08
7.93704e-08
7.70567e-08
7.47997e-08
7.25985e-08
7.0452e-08
6.83592e-08
6.63191e-08
6.43308e-08
6.23933e-08
6.05055e-08
5.86665e-08
5.68754e-08
5.51311e-08
5.34328e-08
5.17795e-08
5.01702e-08
4.86042e-08
4.70803e-08
4.55979e-08
4.41559e-08
4.27535e-08
4.13899e-08
4.00641e-08
3.87754e-08
3.75229e-08
3.63058e-08
3.51232e-08
3.39745e-08
3.28587e-08
3.17751e-08
3.07231e-08
2.97017e-08
2.87103e-08
2.77481e-08
2.68145e-08
2.59087e-08
2.50301e-08
2.41779e-08
2.33515e-08
2.25503e-08
2.17735e-08
2.10206e-08
2.0291e-08
1.9584e-08
1.8899e-08
1.82355e-08
1.75929e-08
1.69707e-08
1.63682e-08
1.57849e-08
1.52203e-08
1.4674e-08
1.41453e-08
1.36339e-08
1.31391e-08
1.26606e-08
1.21979e-08
1.17504e-08
1.13179e-08
1.08998e-08
1.04958e-08
1.01054e-08
9.72815e-09
9.36376e-09
9.01181e-09
8.67193e-09
8.34375e-09
8.02692e-09
7.72109e-09
7.42593e-09
7.1411e-09
6.86628e-09
6.60116e-09
6.34543e-09
6.09881e-09
5.861e-09
5.63171e-09
5.41069e-09
5.19765e-09
4.99235e-09
4.79453e-09
4.60394e-09
4.42036e-09
4.24354e-09
4.07326e-09
3.90931e-09
3.75147e-09
3.59954e-09
3.45332e-09
3.31261e-09
3.17723e-09
3.04699e-09
2.92172e-09
2.80124e-09
2.6854e-09
2.57402e-09
2.46695e-09
2.36403e-09
2.26514e-09
2.17011e-09
2.07881e-09
1.99111e-09
1.90689e-09
1.826e-09
1.74834e-09
1.67379e-09
1.60223e-09
1.53355e-09
1.46765e-09
1.40443e-09
1.34379e-09
1.28562e-09
1.22984e-09
1.17637e-09
1.12511e-09
1.07597e-09
1.02889e-09
9.83783e-10
9.40573e-10
8.99188e-10
8.5956e-10
8.21622e-10
7.85308e-10
7.50558e-10
7.17311e-10
6.85509e-10
6.55098e-10
6.26022e-10
5.98232e-10
5.71678e-10
5.46312e-10
5.22088e-10
4.98963e-10
4.76894e-10
4.55842e-10
4.35766e-10
4.16631e-10
3.98401e-10
3.81041e-10
3.64518e-10
3.48802e-10
3.33862e-10
3.1967e-10
3.06199e-10
2.93423e-10
2.81316e-10
2.69856e-10
2.5902e-10
2.48786e-10
2.39135e-10
2.30047e-10
2.21505e-10
2.13491e-10
2.05988e-10
1.98983e-10
1.92461e-10
1.86409e-10
1.80814e-10
1.75665e-10
1.70952e-10
1.66665e-10
1.62796e-10
1.59335e-10
1.56277e-10
1.53615e-10
1.51343e-10
1.49457e-10
1.47953e-10
1.46827e-10
1.46078e-10
1.45704e-10
2.34145e-08
7.01669e-08
1.16701e-07
1.6289e-07
2.08621e-07
2.53794e-07
2.98319e-07
3.42114e-07
3.85109e-07
4.27241e-07
4.68454e-07
5.08701e-07
5.47942e-07
5.86142e-07
6.23275e-07
6.59318e-07
6.94255e-07
7.28074e-07
7.60769e-07
7.92337e-07
8.22779e-07
8.521e-07
8.80306e-07
9.07408e-07
9.33418e-07
9.5835e-07
9.82221e-07
1.00505e-06
1.02685e-06
1.04765e-06
1.06746e-06
1.08631e-06
1.10422e-06
1.12121e-06
1.1373e-06
1.15252e-06
1.16688e-06
1.18041e-06
1.19314e-06
1.20508e-06
1.21625e-06
1.22668e-06
1.23638e-06
1.24539e-06
1.2537e-06
1.26136e-06
1.26837e-06
1.27475e-06
1.28052e-06
1.2857e-06
1.29031e-06
1.29436e-06
1.29787e-06
1.30085e-06
1.30332e-06
1.30529e-06
1.30678e-06
1.3078e-06
1.30837e-06
1.30849e-06
1.30819e-06
1.30746e-06
1.30634e-06
1.30482e-06
1.30291e-06
1.30064e-06
1.298e-06
1.29502e-06
1.29169e-06
1.28803e-06
1.28406e-06
1.27977e-06
1.27518e-06
1.2703e-06
1.26514e-06
1.2597e-06
1.25399e-06
1.24802e-06
1.24181e-06
1.23535e-06
1.22866e-06
1.22174e-06
1.2146e-06
1.20725e-06
1.19969e-06
1.19194e-06
1.18399e-06
1.17586e-06
1.16756e-06
1.15909e-06
1.15045e-06
1.14165e-06
1.13271e-06
1.12362e-06
1.11439e-06
1.10503e-06
1.09555e-06
1.08594e-06
1.07622e-06
1.0664e-06
1.05647e-06
1.04644e-06
1.03632e-06
1.02612e-06
1.01584e-06
1.00548e-06
9.95054e-07
9.84562e-07
9.74011e-07
9.63406e-07
9.52752e-07
9.42053e-07
9.31314e-07
9.20541e-07
9.09737e-07
8.98907e-07
8.88056e-07
8.77188e-07
8.66307e-07
8.55418e-07
8.44525e-07
8.33632e-07
8.22743e-07
8.11861e-07
8.00991e-07
7.90137e-07
7.79301e-07
7.68488e-07
7.57702e-07
7.46945e-07
7.3622e-07
7.25532e-07
7.14884e-07
7.04277e-07
6.93716e-07
6.83204e-07
6.72743e-07
6.62335e-07
6.51985e-07
6.41693e-07
6.31464e-07
6.21298e-07
6.112e-07
6.0117e-07
5.91211e-07
5.81325e-07
5.71514e-07
5.6178e-07
5.52125e-07
5.42551e-07
5.3306e-07
5.23652e-07
5.14331e-07
5.05096e-07
4.9595e-07
4.86893e-07
4.77928e-07
4.69055e-07
4.60276e-07
4.51591e-07
4.43001e-07
4.34508e-07
4.26112e-07
4.17814e-07
4.09615e-07
4.01515e-07
3.93514e-07
3.85614e-07
3.77815e-07
3.70117e-07
3.62521e-07
3.55027e-07
3.47634e-07
3.40344e-07
3.33156e-07
3.26071e-07
3.19088e-07
3.12207e-07
3.05428e-07
2.98752e-07
2.92177e-07
2.85705e-07
2.79333e-07
2.73063e-07
2.66893e-07
2.60824e-07
2.54855e-07
2.48984e-07
2.43213e-07
2.37541e-07
2.31965e-07
2.26488e-07
2.21106e-07
2.1582e-07
2.1063e-07
2.05534e-07
2.00531e-07
1.95621e-07
1.90804e-07
1.86077e-07
1.81441e-07
1.76894e-07
1.72436e-07
1.68066e-07
1.63782e-07
1.59584e-07
1.55471e-07
1.51441e-07
1.47495e-07
1.4363e-07
1.39847e-07
1.36143e-07
1.32518e-07
1.2897e-07
1.255e-07
1.22105e-07
1.18784e-07
1.15538e-07
1.12363e-07
1.0926e-07
1.06228e-07
1.03264e-07
1.00369e-07
9.75414e-08
9.47794e-08
9.20825e-08
8.94494e-08
8.68791e-08
8.43707e-08
8.19229e-08
7.95347e-08
7.72052e-08
7.49332e-08
7.27176e-08
7.05576e-08
6.84519e-08
6.63997e-08
6.43998e-08
6.24513e-08
6.05532e-08
5.87044e-08
5.69041e-08
5.51511e-08
5.34446e-08
5.17837e-08
5.01672e-08
4.85944e-08
4.70643e-08
4.55759e-08
4.41285e-08
4.2721e-08
4.13526e-08
4.00224e-08
3.87296e-08
3.74733e-08
3.62528e-08
3.5067e-08
3.39154e-08
3.2797e-08
3.17111e-08
3.06569e-08
2.96336e-08
2.86405e-08
2.76769e-08
2.67419e-08
2.5835e-08
2.49554e-08
2.41025e-08
2.32755e-08
2.24737e-08
2.16966e-08
2.09435e-08
2.02138e-08
1.95068e-08
1.8822e-08
1.81587e-08
1.75164e-08
1.68945e-08
1.62925e-08
1.57098e-08
1.51459e-08
1.46002e-08
1.40723e-08
1.35616e-08
1.30677e-08
1.25901e-08
1.21283e-08
1.16819e-08
1.12504e-08
1.08333e-08
1.04303e-08
1.0041e-08
9.66489e-09
9.30162e-09
8.95081e-09
8.61208e-09
8.28506e-09
7.9694e-09
7.66474e-09
7.37075e-09
7.08709e-09
6.81344e-09
6.5495e-09
6.29494e-09
6.04948e-09
5.81282e-09
5.58469e-09
5.3648e-09
5.1529e-09
4.94872e-09
4.752e-09
4.56251e-09
4.38e-09
4.20425e-09
4.03503e-09
3.87211e-09
3.7153e-09
3.56437e-09
3.41914e-09
3.27941e-09
3.14498e-09
3.01568e-09
2.89133e-09
2.77176e-09
2.65679e-09
2.54628e-09
2.44006e-09
2.33798e-09
2.2399e-09
2.14566e-09
2.05515e-09
1.96821e-09
1.88472e-09
1.80457e-09
1.72762e-09
1.65375e-09
1.58287e-09
1.51485e-09
1.4496e-09
1.387e-09
1.32696e-09
1.2694e-09
1.2142e-09
1.16129e-09
1.11058e-09
1.06198e-09
1.01542e-09
9.7082e-10
9.28105e-10
8.87202e-10
8.48044e-10
8.10563e-10
7.74695e-10
7.40379e-10
7.07555e-10
6.76165e-10
6.46155e-10
6.17471e-10
5.90062e-10
5.6388e-10
5.38877e-10
5.15009e-10
4.9223e-10
4.70501e-10
4.4978e-10
4.3003e-10
4.11213e-10
3.93294e-10
3.7624e-10
3.60019e-10
3.44599e-10
3.29951e-10
3.16046e-10
3.02859e-10
2.90363e-10
2.78535e-10
2.6735e-10
2.56787e-10
2.46826e-10
2.37445e-10
2.28628e-10
2.20356e-10
2.12613e-10
2.05382e-10
1.9865e-10
1.92403e-10
1.86629e-10
1.81315e-10
1.7645e-10
1.72025e-10
1.68031e-10
1.64459e-10
1.61303e-10
1.58555e-10
1.5621e-10
1.54263e-10
1.52711e-10
1.51549e-10
1.50776e-10
1.5039e-10
2.36468e-08
7.08744e-08
1.17908e-07
1.64628e-07
2.10925e-07
2.567e-07
3.01861e-07
3.46329e-07
3.90028e-07
4.32895e-07
4.74872e-07
5.15908e-07
5.5596e-07
5.94991e-07
6.32972e-07
6.69875e-07
7.05683e-07
7.40381e-07
7.73958e-07
8.0641e-07
8.37734e-07
8.67932e-07
8.9701e-07
9.24974e-07
9.51834e-07
9.77605e-07
1.0023e-06
1.02593e-06
1.04852e-06
1.07009e-06
1.09065e-06
1.11023e-06
1.12884e-06
1.14651e-06
1.16326e-06
1.17911e-06
1.19408e-06
1.2082e-06
1.22148e-06
1.23395e-06
1.24564e-06
1.25655e-06
1.26672e-06
1.27616e-06
1.28489e-06
1.29293e-06
1.3003e-06
1.30703e-06
1.31312e-06
1.3186e-06
1.32348e-06
1.32779e-06
1.33153e-06
1.33473e-06
1.33739e-06
1.33954e-06
1.34119e-06
1.34235e-06
1.34303e-06
1.34326e-06
1.34305e-06
1.3424e-06
1.34132e-06
1.33984e-06
1.33797e-06
1.3357e-06
1.33306e-06
1.33006e-06
1.32671e-06
1.32301e-06
1.31898e-06
1.31463e-06
1.30997e-06
1.305e-06
1.29974e-06
1.29419e-06
1.28836e-06
1.28227e-06
1.27592e-06
1.26932e-06
1.26247e-06
1.25539e-06
1.24808e-06
1.24055e-06
1.23281e-06
1.22486e-06
1.21672e-06
1.20839e-06
1.19987e-06
1.19118e-06
1.18232e-06
1.1733e-06
1.16412e-06
1.15479e-06
1.14532e-06
1.13571e-06
1.12597e-06
1.11611e-06
1.10613e-06
1.09604e-06
1.08585e-06
1.07555e-06
1.06516e-06
1.05468e-06
1.04412e-06
1.03348e-06
1.02277e-06
1.01199e-06
1.00115e-06
9.90252e-07
9.79305e-07
9.68312e-07
9.57278e-07
9.46207e-07
9.35105e-07
9.23977e-07
9.12826e-07
9.01658e-07
8.90476e-07
8.79286e-07
8.68091e-07
8.56896e-07
8.45705e-07
8.34521e-07
8.23349e-07
8.12193e-07
8.01057e-07
7.89944e-07
7.78857e-07
7.67801e-07
7.56778e-07
7.45793e-07
7.34848e-07
7.23946e-07
7.13091e-07
7.02286e-07
6.91533e-07
6.80836e-07
6.70197e-07
6.59618e-07
6.49104e-07
6.38655e-07
6.28274e-07
6.17964e-07
6.07728e-07
5.97566e-07
5.87481e-07
5.77476e-07
5.67552e-07
5.57711e-07
5.47954e-07
5.38284e-07
5.28702e-07
5.19209e-07
5.09808e-07
5.00499e-07
4.91283e-07
4.82163e-07
4.73138e-07
4.6421e-07
4.55381e-07
4.4665e-07
4.3802e-07
4.2949e-07
4.21062e-07
4.12735e-07
4.04511e-07
3.96391e-07
3.88374e-07
3.80461e-07
3.72652e-07
3.64949e-07
3.5735e-07
3.49856e-07
3.42467e-07
3.35184e-07
3.28005e-07
3.20932e-07
3.13964e-07
3.07101e-07
3.00343e-07
2.93689e-07
2.8714e-07
2.80694e-07
2.74352e-07
2.68114e-07
2.61977e-07
2.55943e-07
2.50011e-07
2.44179e-07
2.38449e-07
2.32818e-07
2.27286e-07
2.21852e-07
2.16517e-07
2.11278e-07
2.06136e-07
2.01089e-07
1.96137e-07
1.91278e-07
1.86512e-07
1.81838e-07
1.77256e-07
1.72763e-07
1.68359e-07
1.64044e-07
1.59816e-07
1.55674e-07
1.51617e-07
1.47645e-07
1.43755e-07
1.39948e-07
1.36221e-07
1.32575e-07
1.29007e-07
1.25517e-07
1.22104e-07
1.18767e-07
1.15504e-07
1.12314e-07
1.09197e-07
1.06151e-07
1.03175e-07
1.00268e-07
9.74285e-08
9.46561e-08
9.19495e-08
8.93074e-08
8.67288e-08
8.42126e-08
8.17577e-08
7.93631e-08
7.70275e-08
7.47501e-08
7.25296e-08
7.03651e-08
6.82555e-08
6.61998e-08
6.41968e-08
6.22456e-08
6.03452e-08
5.84945e-08
5.66926e-08
5.49384e-08
5.3231e-08
5.15694e-08
4.99526e-08
4.83797e-08
4.68498e-08
4.53618e-08
4.3915e-08
4.25084e-08
4.1141e-08
3.98121e-08
3.85207e-08
3.7266e-08
3.60472e-08
3.48633e-08
3.37137e-08
3.25974e-08
3.15137e-08
3.04618e-08
2.9441e-08
2.84504e-08
2.74894e-08
2.65571e-08
2.56529e-08
2.47761e-08
2.3926e-08
2.31019e-08
2.2303e-08
2.15289e-08
2.07788e-08
2.0052e-08
1.9348e-08
1.86662e-08
1.8006e-08
1.73667e-08
1.67479e-08
1.61489e-08
1.55692e-08
1.50083e-08
1.44656e-08
1.39407e-08
1.3433e-08
1.2942e-08
1.24673e-08
1.20084e-08
1.15648e-08
1.11361e-08
1.07219e-08
1.03216e-08
9.93502e-09
9.5616e-09
9.20099e-09
8.85279e-09
8.51663e-09
8.19214e-09
7.87897e-09
7.57676e-09
7.28517e-09
7.00388e-09
6.73256e-09
6.47089e-09
6.21857e-09
5.97529e-09
5.74078e-09
5.51475e-09
5.29692e-09
5.08703e-09
4.88482e-09
4.69003e-09
4.50243e-09
4.32176e-09
4.14781e-09
3.98034e-09
3.81914e-09
3.664e-09
3.51471e-09
3.37107e-09
3.23288e-09
3.09997e-09
2.97214e-09
2.84923e-09
2.73105e-09
2.61745e-09
2.50826e-09
2.40333e-09
2.3025e-09
2.20564e-09
2.11259e-09
2.02322e-09
1.9374e-09
1.855e-09
1.7759e-09
1.69998e-09
1.62711e-09
1.55719e-09
1.49011e-09
1.42577e-09
1.36405e-09
1.30488e-09
1.24814e-09
1.19375e-09
1.14162e-09
1.09166e-09
1.0438e-09
9.97955e-10
9.54046e-10
9.12e-10
8.71747e-10
8.33219e-10
7.96348e-10
7.61073e-10
7.27331e-10
6.95064e-10
6.64215e-10
6.34729e-10
6.06555e-10
5.79641e-10
5.53939e-10
5.29404e-10
5.05989e-10
4.83652e-10
4.62352e-10
4.42049e-10
4.22707e-10
4.04287e-10
3.86757e-10
3.70082e-10
3.54231e-10
3.39173e-10
3.2488e-10
3.11324e-10
2.98479e-10
2.8632e-10
2.74822e-10
2.63965e-10
2.53725e-10
2.44082e-10
2.35019e-10
2.26515e-10
2.18555e-10
2.11123e-10
2.04203e-10
1.97781e-10
1.91845e-10
1.86382e-10
1.81382e-10
1.76833e-10
1.72728e-10
1.69056e-10
1.65811e-10
1.62987e-10
1.60576e-10
1.58575e-10
1.56979e-10
1.55785e-10
1.5499e-10
1.54594e-10
2.38643e-08
7.15329e-08
1.19023e-07
1.66223e-07
2.13026e-07
2.59334e-07
3.05059e-07
3.50118e-07
3.94437e-07
4.37949e-07
4.80594e-07
5.22322e-07
5.63084e-07
6.02843e-07
6.41565e-07
6.79222e-07
7.15793e-07
7.51259e-07
7.8561e-07
8.18835e-07
8.50932e-07
8.819e-07
9.11741e-07
9.40461e-07
9.68069e-07
9.94574e-07
1.01999e-06
1.04433e-06
1.06762e-06
1.08986e-06
1.11108e-06
1.13129e-06
1.15052e-06
1.16879e-06
1.18612e-06
1.20253e-06
1.21804e-06
1.23267e-06
1.24645e-06
1.25939e-06
1.27153e-06
1.28287e-06
1.29344e-06
1.30327e-06
1.31236e-06
1.32075e-06
1.32845e-06
1.33548e-06
1.34185e-06
1.3476e-06
1.35272e-06
1.35726e-06
1.36121e-06
1.36459e-06
1.36743e-06
1.36973e-06
1.37152e-06
1.3728e-06
1.3736e-06
1.37392e-06
1.37378e-06
1.3732e-06
1.37217e-06
1.37073e-06
1.36888e-06
1.36663e-06
1.36399e-06
1.36097e-06
1.35759e-06
1.35386e-06
1.34979e-06
1.34538e-06
1.34065e-06
1.3356e-06
1.33026e-06
1.32461e-06
1.31868e-06
1.31248e-06
1.30601e-06
1.29928e-06
1.29229e-06
1.28507e-06
1.27761e-06
1.26993e-06
1.26202e-06
1.25391e-06
1.24559e-06
1.23708e-06
1.22838e-06
1.21949e-06
1.21044e-06
1.20121e-06
1.19183e-06
1.18229e-06
1.1726e-06
1.16278e-06
1.15282e-06
1.14273e-06
1.13252e-06
1.1222e-06
1.11177e-06
1.10123e-06
1.0906e-06
1.07987e-06
1.06907e-06
1.05818e-06
1.04721e-06
1.03618e-06
1.02509e-06
1.01394e-06
1.00273e-06
9.91479e-07
9.80184e-07
9.68852e-07
9.57488e-07
9.46095e-07
9.3468e-07
9.23247e-07
9.118e-07
9.00344e-07
8.88883e-07
8.77421e-07
8.65963e-07
8.54514e-07
8.43076e-07
8.31654e-07
8.20252e-07
8.08873e-07
7.97522e-07
7.86202e-07
7.74916e-07
7.63668e-07
7.52462e-07
7.413e-07
7.30185e-07
7.19121e-07
7.08112e-07
6.97158e-07
6.86265e-07
6.75433e-07
6.64667e-07
6.53968e-07
6.43339e-07
6.32782e-07
6.223e-07
6.11895e-07
6.01569e-07
5.91324e-07
5.81162e-07
5.71085e-07
5.61095e-07
5.51193e-07
5.41382e-07
5.31662e-07
5.22035e-07
5.12503e-07
5.03066e-07
4.93727e-07
4.84486e-07
4.75344e-07
4.66303e-07
4.57364e-07
4.48526e-07
4.39792e-07
4.31161e-07
4.22635e-07
4.14214e-07
4.05899e-07
3.9769e-07
3.89587e-07
3.81591e-07
3.73703e-07
3.65921e-07
3.58248e-07
3.50682e-07
3.43224e-07
3.35873e-07
3.28631e-07
3.21496e-07
3.14468e-07
3.07548e-07
3.00734e-07
2.94028e-07
2.87428e-07
2.80934e-07
2.74545e-07
2.68262e-07
2.62083e-07
2.56008e-07
2.50037e-07
2.44168e-07
2.38402e-07
2.32738e-07
2.27174e-07
2.21711e-07
2.16346e-07
2.11081e-07
2.05913e-07
2.00842e-07
1.95866e-07
1.90986e-07
1.862e-07
1.81508e-07
1.76907e-07
1.72398e-07
1.67979e-07
1.6365e-07
1.59408e-07
1.55254e-07
1.51186e-07
1.47204e-07
1.43305e-07
1.39489e-07
1.35755e-07
1.32102e-07
1.28528e-07
1.25033e-07
1.21616e-07
1.18274e-07
1.15008e-07
1.11816e-07
1.08697e-07
1.0565e-07
1.02673e-07
9.97656e-08
9.69268e-08
9.41552e-08
9.14497e-08
8.88093e-08
8.62327e-08
8.37189e-08
8.12668e-08
7.88753e-08
7.65432e-08
7.42695e-08
7.20531e-08
6.98929e-08
6.77878e-08
6.57368e-08
6.37388e-08
6.17928e-08
5.98977e-08
5.80525e-08
5.62563e-08
5.45079e-08
5.28064e-08
5.11509e-08
4.95403e-08
4.79736e-08
4.645e-08
4.49684e-08
4.35281e-08
4.21279e-08
4.07671e-08
3.94447e-08
3.816e-08
3.69119e-08
3.56996e-08
3.45224e-08
3.33794e-08
3.22697e-08
3.11926e-08
3.01472e-08
2.91329e-08
2.81488e-08
2.71942e-08
2.62683e-08
2.53705e-08
2.44999e-08
2.3656e-08
2.2838e-08
2.20453e-08
2.12772e-08
2.0533e-08
1.98122e-08
1.9114e-08
1.84379e-08
1.77833e-08
1.71496e-08
1.65363e-08
1.59427e-08
1.53683e-08
1.48126e-08
1.42751e-08
1.37552e-08
1.32525e-08
1.27664e-08
1.22965e-08
1.18422e-08
1.14032e-08
1.09791e-08
1.05692e-08
1.01733e-08
9.79097e-09
9.4217e-09
9.06515e-09
8.72093e-09
8.38865e-09
8.06797e-09
7.75851e-09
7.45993e-09
7.17189e-09
6.89405e-09
6.62611e-09
6.36773e-09
6.11863e-09
5.87849e-09
5.64704e-09
5.42398e-09
5.20906e-09
5.002e-09
4.80254e-09
4.61043e-09
4.42543e-09
4.2473e-09
4.07582e-09
3.91075e-09
3.75189e-09
3.59902e-09
3.45193e-09
3.31043e-09
3.17433e-09
3.04344e-09
2.91757e-09
2.79656e-09
2.68024e-09
2.56843e-09
2.46098e-09
2.35773e-09
2.25854e-09
2.16326e-09
2.07175e-09
1.98388e-09
1.8995e-09
1.8185e-09
1.74075e-09
1.66614e-09
1.59455e-09
1.52586e-09
1.45997e-09
1.39677e-09
1.33618e-09
1.27808e-09
1.22238e-09
1.169e-09
1.11785e-09
1.06884e-09
1.02189e-09
9.76931e-10
9.33877e-10
8.92658e-10
8.53205e-10
8.15451e-10
7.79329e-10
7.44778e-10
7.11737e-10
6.80148e-10
6.49955e-10
6.21104e-10
5.93545e-10
5.67227e-10
5.42102e-10
5.18126e-10
4.95253e-10
4.73442e-10
4.52653e-10
4.32846e-10
4.13985e-10
3.96034e-10
3.78959e-10
3.62727e-10
3.47309e-10
3.32673e-10
3.18792e-10
3.05639e-10
2.93188e-10
2.81415e-10
2.70296e-10
2.59811e-10
2.49937e-10
2.40656e-10
2.31949e-10
2.23798e-10
2.16187e-10
2.09101e-10
2.02525e-10
1.96447e-10
1.90853e-10
1.85733e-10
1.81075e-10
1.76871e-10
1.73111e-10
1.69789e-10
1.66896e-10
1.64428e-10
1.62379e-10
1.60744e-10
1.59522e-10
1.58708e-10
1.58302e-10
2.40597e-08
7.21228e-08
1.20019e-07
1.6764e-07
2.14885e-07
2.61658e-07
3.0787e-07
3.53439e-07
3.98291e-07
4.42357e-07
4.85577e-07
5.27897e-07
5.69269e-07
6.09652e-07
6.4901e-07
6.87313e-07
7.24537e-07
7.60663e-07
7.95676e-07
8.29566e-07
8.62326e-07
8.93954e-07
9.24451e-07
9.53821e-07
9.8207e-07
1.00921e-06
1.03525e-06
1.0602e-06
1.08408e-06
1.1069e-06
1.12868e-06
1.14945e-06
1.16922e-06
1.188e-06
1.20583e-06
1.22272e-06
1.23869e-06
1.25377e-06
1.26797e-06
1.28133e-06
1.29385e-06
1.30556e-06
1.31649e-06
1.32664e-06
1.33605e-06
1.34474e-06
1.35272e-06
1.36001e-06
1.36663e-06
1.3726e-06
1.37794e-06
1.38267e-06
1.3868e-06
1.39035e-06
1.39334e-06
1.39578e-06
1.39769e-06
1.39908e-06
1.39997e-06
1.40037e-06
1.4003e-06
1.39977e-06
1.39879e-06
1.39738e-06
1.39555e-06
1.39331e-06
1.39067e-06
1.38764e-06
1.38424e-06
1.38048e-06
1.37637e-06
1.37191e-06
1.36712e-06
1.36201e-06
1.35659e-06
1.35087e-06
1.34485e-06
1.33855e-06
1.33197e-06
1.32513e-06
1.31804e-06
1.31069e-06
1.3031e-06
1.29528e-06
1.28724e-06
1.27898e-06
1.27051e-06
1.26184e-06
1.25298e-06
1.24393e-06
1.2347e-06
1.22531e-06
1.21574e-06
1.20602e-06
1.19615e-06
1.18614e-06
1.17599e-06
1.16571e-06
1.1553e-06
1.14477e-06
1.13414e-06
1.1234e-06
1.11256e-06
1.10162e-06
1.0906e-06
1.0795e-06
1.06832e-06
1.05707e-06
1.04575e-06
1.03438e-06
1.02295e-06
1.01148e-06
9.99957e-07
9.88399e-07
9.76808e-07
9.65188e-07
9.53544e-07
9.41882e-07
9.30206e-07
9.1852e-07
9.0683e-07
8.95138e-07
8.83451e-07
8.71771e-07
8.60103e-07
8.48452e-07
8.36821e-07
8.25213e-07
8.13634e-07
8.02086e-07
7.90573e-07
7.79098e-07
7.67666e-07
7.56279e-07
7.44941e-07
7.33654e-07
7.22422e-07
7.11248e-07
7.00135e-07
6.89085e-07
6.78101e-07
6.67187e-07
6.56343e-07
6.45573e-07
6.3488e-07
6.24265e-07
6.1373e-07
6.03278e-07
5.92911e-07
5.82631e-07
5.72439e-07
5.62337e-07
5.52327e-07
5.42411e-07
5.32589e-07
5.22864e-07
5.13237e-07
5.03709e-07
4.94282e-07
4.84955e-07
4.75731e-07
4.66611e-07
4.57595e-07
4.48684e-07
4.39879e-07
4.31181e-07
4.22589e-07
4.14106e-07
4.05731e-07
3.97464e-07
3.89307e-07
3.81259e-07
3.7332e-07
3.65492e-07
3.57773e-07
3.50164e-07
3.42665e-07
3.35276e-07
3.27997e-07
3.20827e-07
3.13767e-07
3.06816e-07
2.99973e-07
2.9324e-07
2.86614e-07
2.80097e-07
2.73686e-07
2.67382e-07
2.61185e-07
2.55093e-07
2.49106e-07
2.43223e-07
2.37444e-07
2.31768e-07
2.26194e-07
2.20721e-07
2.15349e-07
2.10077e-07
2.04903e-07
1.99827e-07
1.94848e-07
1.89966e-07
1.85178e-07
1.80485e-07
1.75884e-07
1.71376e-07
1.66959e-07
1.62632e-07
1.58394e-07
1.54244e-07
1.5018e-07
1.46203e-07
1.4231e-07
1.385e-07
1.34773e-07
1.31127e-07
1.27562e-07
1.24075e-07
1.20666e-07
1.17334e-07
1.14077e-07
1.10895e-07
1.07786e-07
1.04749e-07
1.01783e-07
9.88868e-08
9.60591e-08
9.3299e-08
9.06051e-08
8.79765e-08
8.54119e-08
8.29102e-08
8.04703e-08
7.8091e-08
7.57713e-08
7.35101e-08
7.13062e-08
6.91585e-08
6.70661e-08
6.50277e-08
6.30423e-08
6.11089e-08
5.92265e-08
5.73939e-08
5.56101e-08
5.38743e-08
5.21852e-08
5.0542e-08
4.89437e-08
4.73893e-08
4.58778e-08
4.44082e-08
4.29798e-08
4.15915e-08
4.02424e-08
3.89316e-08
3.76583e-08
3.64215e-08
3.52205e-08
3.40543e-08
3.29222e-08
3.18233e-08
3.07568e-08
2.9722e-08
2.8718e-08
2.77441e-08
2.67995e-08
2.58835e-08
2.49954e-08
2.41344e-08
2.32999e-08
2.24911e-08
2.17074e-08
2.09482e-08
2.02128e-08
1.95005e-08
1.88108e-08
1.81429e-08
1.74964e-08
1.68707e-08
1.62651e-08
1.56791e-08
1.51122e-08
1.45638e-08
1.40334e-08
1.35204e-08
1.30245e-08
1.25451e-08
1.20817e-08
1.16338e-08
1.12011e-08
1.0783e-08
1.03791e-08
9.98895e-09
9.61221e-09
9.24845e-09
8.89727e-09
8.55828e-09
8.23111e-09
7.91539e-09
7.61077e-09
7.31691e-09
7.03346e-09
6.76009e-09
6.49649e-09
6.24235e-09
5.99736e-09
5.76122e-09
5.53366e-09
5.31439e-09
5.10314e-09
4.89965e-09
4.70365e-09
4.51492e-09
4.33319e-09
4.15824e-09
3.98983e-09
3.82776e-09
3.67179e-09
3.52173e-09
3.37737e-09
3.23852e-09
3.10498e-09
2.97657e-09
2.85311e-09
2.73443e-09
2.62036e-09
2.51074e-09
2.40541e-09
2.30421e-09
2.20701e-09
2.11364e-09
2.02399e-09
1.93791e-09
1.85527e-09
1.77595e-09
1.69983e-09
1.62679e-09
1.55671e-09
1.48949e-09
1.42502e-09
1.36319e-09
1.30392e-09
1.2471e-09
1.19264e-09
1.14045e-09
1.09045e-09
1.04256e-09
9.96685e-10
9.5276e-10
9.10708e-10
8.70457e-10
8.31939e-10
7.95087e-10
7.59837e-10
7.26128e-10
6.939e-10
6.63097e-10
6.33663e-10
6.05547e-10
5.78696e-10
5.53064e-10
5.28602e-10
5.05267e-10
4.83015e-10
4.61805e-10
4.41598e-10
4.22356e-10
4.04042e-10
3.86621e-10
3.70062e-10
3.54331e-10
3.394e-10
3.25238e-10
3.11819e-10
2.99116e-10
2.87105e-10
2.75762e-10
2.65064e-10
2.54991e-10
2.45522e-10
2.36639e-10
2.28323e-10
2.20558e-10
2.13329e-10
2.0662e-10
2.00419e-10
1.94712e-10
1.89488e-10
1.84736e-10
1.80447e-10
1.76612e-10
1.73222e-10
1.70271e-10
1.67753e-10
1.65662e-10
1.63995e-10
1.62747e-10
1.61917e-10
1.61502e-10
2.42281e-08
7.26309e-08
1.20874e-07
1.68855e-07
2.16474e-07
2.63639e-07
3.1026e-07
3.56257e-07
4.01554e-07
4.46084e-07
4.89784e-07
5.32598e-07
5.74478e-07
6.15381e-07
6.55269e-07
6.9411e-07
7.3188e-07
7.68555e-07
8.04121e-07
8.38564e-07
8.71878e-07
9.04057e-07
9.35101e-07
9.65013e-07
9.93798e-07
1.02146e-06
1.04802e-06
1.07348e-06
1.09786e-06
1.12117e-06
1.14343e-06
1.16465e-06
1.18487e-06
1.20408e-06
1.22233e-06
1.23962e-06
1.25598e-06
1.27143e-06
1.286e-06
1.29969e-06
1.31254e-06
1.32456e-06
1.33578e-06
1.34622e-06
1.35589e-06
1.36483e-06
1.37304e-06
1.38055e-06
1.38738e-06
1.39354e-06
1.39906e-06
1.40395e-06
1.40824e-06
1.41193e-06
1.41504e-06
1.4176e-06
1.41961e-06
1.42109e-06
1.42206e-06
1.42253e-06
1.42252e-06
1.42203e-06
1.42109e-06
1.41971e-06
1.41789e-06
1.41566e-06
1.41302e-06
1.40999e-06
1.40658e-06
1.40279e-06
1.39864e-06
1.39414e-06
1.38931e-06
1.38414e-06
1.37866e-06
1.37287e-06
1.36678e-06
1.3604e-06
1.35374e-06
1.3468e-06
1.33961e-06
1.33216e-06
1.32446e-06
1.31653e-06
1.30837e-06
1.29999e-06
1.2914e-06
1.2826e-06
1.2736e-06
1.26441e-06
1.25505e-06
1.2455e-06
1.23579e-06
1.22592e-06
1.21589e-06
1.20572e-06
1.19541e-06
1.18496e-06
1.17439e-06
1.1637e-06
1.15289e-06
1.14198e-06
1.13096e-06
1.11985e-06
1.10865e-06
1.09737e-06
1.08601e-06
1.07458e-06
1.06308e-06
1.05152e-06
1.0399e-06
1.02824e-06
1.01653e-06
1.00478e-06
9.93002e-07
9.81192e-07
9.69357e-07
9.57503e-07
9.45635e-07
9.33757e-07
9.21874e-07
9.0999e-07
8.98109e-07
8.86237e-07
8.74377e-07
8.62533e-07
8.5071e-07
8.38911e-07
8.2714e-07
8.15401e-07
8.03697e-07
7.92033e-07
7.80411e-07
7.68836e-07
7.5731e-07
7.45836e-07
7.34418e-07
7.23059e-07
7.11762e-07
7.00529e-07
6.89363e-07
6.78267e-07
6.67244e-07
6.56295e-07
6.45425e-07
6.34633e-07
6.23924e-07
6.13299e-07
6.0276e-07
5.92309e-07
5.81947e-07
5.71678e-07
5.61502e-07
5.51421e-07
5.41437e-07
5.3155e-07
5.21763e-07
5.12077e-07
5.02493e-07
4.93012e-07
4.83635e-07
4.74363e-07
4.65197e-07
4.56138e-07
4.47187e-07
4.38344e-07
4.2961e-07
4.20986e-07
4.12472e-07
4.04068e-07
3.95775e-07
3.87593e-07
3.79523e-07
3.71564e-07
3.63717e-07
3.55982e-07
3.48358e-07
3.40846e-07
3.33446e-07
3.26157e-07
3.1898e-07
3.11913e-07
3.04957e-07
2.98112e-07
2.91376e-07
2.8475e-07
2.78233e-07
2.71825e-07
2.65524e-07
2.59331e-07
2.53245e-07
2.47264e-07
2.41389e-07
2.35619e-07
2.29952e-07
2.24388e-07
2.18927e-07
2.13567e-07
2.08307e-07
2.03147e-07
1.98086e-07
1.93122e-07
1.88255e-07
1.83483e-07
1.78807e-07
1.74224e-07
1.69733e-07
1.65334e-07
1.61026e-07
1.56807e-07
1.52676e-07
1.48632e-07
1.44674e-07
1.40802e-07
1.37013e-07
1.33306e-07
1.29681e-07
1.26137e-07
1.22671e-07
1.19283e-07
1.15973e-07
1.12738e-07
1.09577e-07
1.06489e-07
1.03474e-07
1.0053e-07
9.76552e-08
9.48491e-08
9.21105e-08
8.94382e-08
8.6831e-08
8.42877e-08
8.18073e-08
7.93885e-08
7.70303e-08
7.47315e-08
7.24909e-08
7.03076e-08
6.81804e-08
6.61081e-08
6.40898e-08
6.21242e-08
6.02105e-08
5.83475e-08
5.65341e-08
5.47694e-08
5.30523e-08
5.13818e-08
4.97569e-08
4.81766e-08
4.664e-08
4.51461e-08
4.36939e-08
4.22825e-08
4.0911e-08
3.95784e-08
3.8284e-08
3.70267e-08
3.58057e-08
3.46201e-08
3.34692e-08
3.23521e-08
3.12679e-08
3.02158e-08
2.91951e-08
2.8205e-08
2.72447e-08
2.63135e-08
2.54106e-08
2.45354e-08
2.3687e-08
2.28648e-08
2.20681e-08
2.12963e-08
2.05486e-08
1.98245e-08
1.91233e-08
1.84444e-08
1.77871e-08
1.7151e-08
1.65353e-08
1.59396e-08
1.53632e-08
1.48057e-08
1.42665e-08
1.37451e-08
1.32409e-08
1.27535e-08
1.22824e-08
1.18271e-08
1.13872e-08
1.09621e-08
1.05515e-08
1.01549e-08
9.77192e-09
9.40211e-09
9.04509e-09
8.70047e-09
8.36786e-09
8.0469e-09
7.73722e-09
7.43848e-09
7.15031e-09
6.87241e-09
6.60443e-09
6.34606e-09
6.097e-09
5.85694e-09
5.6256e-09
5.40269e-09
5.18792e-09
4.98105e-09
4.7818e-09
4.58993e-09
4.40518e-09
4.22732e-09
4.05612e-09
3.89135e-09
3.7328e-09
3.58024e-09
3.43348e-09
3.29232e-09
3.15656e-09
3.02602e-09
2.90051e-09
2.77986e-09
2.6639e-09
2.55245e-09
2.44537e-09
2.34249e-09
2.24367e-09
2.14876e-09
2.05762e-09
1.97011e-09
1.8861e-09
1.80546e-09
1.72807e-09
1.65382e-09
1.58257e-09
1.51423e-09
1.44869e-09
1.38584e-09
1.32558e-09
1.26782e-09
1.21245e-09
1.1594e-09
1.10857e-09
1.05988e-09
1.01324e-09
9.68589e-10
9.25838e-10
8.84919e-10
8.45761e-10
8.08297e-10
7.72461e-10
7.38192e-10
7.05429e-10
6.74114e-10
6.44191e-10
6.15607e-10
5.88311e-10
5.62252e-10
5.37384e-10
5.13662e-10
4.9104e-10
4.69478e-10
4.48935e-10
4.29373e-10
4.10754e-10
3.93045e-10
3.7621e-10
3.60218e-10
3.45038e-10
3.30641e-10
3.16999e-10
3.04085e-10
2.91875e-10
2.80343e-10
2.69468e-10
2.59227e-10
2.49601e-10
2.4057e-10
2.32116e-10
2.24223e-10
2.16873e-10
2.10053e-10
2.03749e-10
1.97947e-10
1.92636e-10
1.87806e-10
1.83445e-10
1.79546e-10
1.761e-10
1.731e-10
1.7054e-10
1.68414e-10
1.66719e-10
1.65451e-10
1.64607e-10
1.64185e-10
2.43663e-08
7.30475e-08
1.21575e-07
1.69848e-07
2.17771e-07
2.65252e-07
3.12203e-07
3.58544e-07
4.04199e-07
4.491e-07
4.93184e-07
5.36395e-07
5.78681e-07
6.2e-07
6.60312e-07
6.99585e-07
7.3779e-07
7.74905e-07
8.10913e-07
8.458e-07
8.79556e-07
9.12177e-07
9.43659e-07
9.74006e-07
1.00322e-06
1.03131e-06
1.05828e-06
1.08415e-06
1.10893e-06
1.13263e-06
1.15527e-06
1.17686e-06
1.19743e-06
1.217e-06
1.23558e-06
1.2532e-06
1.26987e-06
1.28562e-06
1.30047e-06
1.31444e-06
1.32755e-06
1.33982e-06
1.35128e-06
1.36194e-06
1.37183e-06
1.38096e-06
1.38937e-06
1.39705e-06
1.40405e-06
1.41037e-06
1.41603e-06
1.42106e-06
1.42546e-06
1.42926e-06
1.43248e-06
1.43512e-06
1.43722e-06
1.43877e-06
1.43981e-06
1.44033e-06
1.44037e-06
1.43992e-06
1.43901e-06
1.43765e-06
1.43585e-06
1.43363e-06
1.43099e-06
1.42795e-06