/*--------------------------------*- C++ -*----------------------------------*\
  =========                 |
  \\      /  F ield         | OpenFOAM: The Open Source CFD Toolbox
   \\    /   O peration     | Website:  https://openfoam.org
    \\  /    A nd           | Version:  10
     \\/     M anipulation  |
\*---------------------------------------------------------------------------*/
FoamFile
{
    format      ascii;
    class       volScalarField;
    location    "0.4";
    object      cov;
}
// * * * * * * * * * * * * * * * * * * * * * * * * * * * * * * * * * * * * * //

dimensions      [0 0 0 0 0 0 0];

internalField   uniform 0;

boundaryField
{
    frontAndBack
    {
        type            empty;
    }
    inlet
    {
        type            calculated;
        value           uniform 0;
    }
    outlet
    {
        type            calculated;
        value           uniform 0;
    }
    substrate
    {
        type            calculated;
        value           nonuniform List<scalar> 
400
(
0.734673
0.712425
0.691347
0.670898
0.650825
0.631001
0.611366
0.591895
0.572587
0.553451
0.534505
0.515773
0.49728
0.479052
0.461115
0.443496
0.426217
0.409301
0.392767
0.376633
0.360913
0.34562
0.330764
0.316353
0.302391
0.288883
0.275828
0.263228
0.251078
0.239377
0.228117
0.217294
0.206899
0.196925
0.187361
0.178199
0.169427
0.161036
0.153014
0.145349
0.13803
0.131045
0.124383
0.118032
0.111979
0.106215
0.100727
0.0955048
0.0905367
0.0858123
0.0813212
0.0770532
0.0729986
0.0691478
0.0654915
0.0620209
0.0587273
0.0556024
0.0526383
0.0498272
0.0471617
0.0446349
0.0422399
0.0399702
0.0378195
0.0357821
0.0338521
0.0320241
0.030293
0.0286538
0.0271019
0.0256327
0.0242419
0.0229256
0.0216798
0.0205008
0.0193852
0.0183296
0.0173309
0.0163861
0.0154923
0.0146468
0.0138471
0.0130907
0.0123753
0.0116987
0.0110588
0.0104537
0.00988157
0.00934053
0.00882896
0.00834525
0.00788792
0.00745554
0.00704675
0.00666028
0.00629492
0.00594953
0.00562302
0.00531437
0.00502261
0.00474681
0.00448612
0.0042397
0.00400678
0.00378662
0.00357853
0.00338184
0.00319595
0.00302025
0.00285418
0.00269723
0.0025489
0.0024087
0.00227621
0.00215098
0.00203264
0.0019208
0.00181509
0.0017152
0.0016208
0.00153158
0.00144727
0.00136759
0.00129229
0.00122113
0.00115389
0.00109034
0.00103029
0.000973539
0.000919911
0.000869233
0.000821343
0.000776087
0.000733322
0.00069291
0.000654722
0.000618635
0.000584535
0.000552311
0.000521862
0.000493088
0.000465899
0.000440206
0.000415929
0.000392988
0.00037131
0.000350826
0.00033147
0.000313181
0.000295899
0.000279568
0.000264138
0.000249557
0.00023578
0.000222762
0.000210462
0.000198839
0.000187857
0.00017748
0.000167675
0.000158411
0.000149657
0.000141386
0.000133571
0.000126187
0.00011921
0.000112618
0.000106389
0.000100504
9.49441e-05
8.96907e-05
8.47271e-05
8.00374e-05
7.56065e-05
7.14202e-05
6.7465e-05
6.37282e-05
6.01977e-05
5.68621e-05
5.37107e-05
5.07334e-05
4.79206e-05
4.52632e-05
4.27526e-05
4.03807e-05
3.814e-05
3.60231e-05
3.40232e-05
3.21339e-05
3.03491e-05
2.86631e-05
2.70702e-05
2.55656e-05
2.41442e-05
2.28014e-05
2.1533e-05
2.03349e-05
1.92031e-05
1.81339e-05
1.7124e-05
1.61701e-05
1.5269e-05
1.44179e-05
1.3614e-05
1.28547e-05
1.21374e-05
1.146e-05
1.08202e-05
1.02159e-05
9.64512e-06
9.10605e-06
8.59694e-06
8.11611e-06
7.66201e-06
7.23315e-06
6.82814e-06
6.44567e-06
6.08447e-06
5.74338e-06
5.42127e-06
5.11711e-06
4.82989e-06
4.55868e-06
4.30258e-06
4.06077e-06
3.83244e-06
3.61686e-06
3.4133e-06
3.22112e-06
3.03967e-06
2.86836e-06
2.70663e-06
2.55394e-06
2.40979e-06
2.27371e-06
2.14525e-06
2.02398e-06
1.90951e-06
1.80146e-06
1.69946e-06
1.60319e-06
1.51232e-06
1.42655e-06
1.34561e-06
1.26921e-06
1.19711e-06
1.12906e-06
1.06484e-06
1.00424e-06
9.47057e-07
8.93095e-07
8.42176e-07
7.9413e-07
7.48796e-07
7.06023e-07
6.65667e-07
6.27593e-07
5.91674e-07
5.57787e-07
5.2582e-07
4.95664e-07
4.67219e-07
4.40387e-07
4.15079e-07
3.91208e-07
3.68694e-07
3.47461e-07
3.27435e-07
3.08551e-07
2.90742e-07
2.73949e-07
2.58113e-07
2.43182e-07
2.29104e-07
2.15831e-07
2.03317e-07
1.91519e-07
1.80398e-07
1.69913e-07
1.60031e-07
1.50715e-07
1.41935e-07
1.33659e-07
1.2586e-07
1.1851e-07
1.11583e-07
1.05055e-07
9.89045e-08
9.31089e-08
8.76482e-08
8.25034e-08
7.76563e-08
7.309e-08
6.87885e-08
6.47366e-08
6.09199e-08
5.7325e-08
5.39393e-08
5.07506e-08
4.77477e-08
4.49199e-08
4.22571e-08
3.97499e-08
3.73892e-08
3.51667e-08
3.30743e-08
3.11045e-08
2.92504e-08
2.7505e-08
2.58623e-08
2.43162e-08
2.28611e-08
2.14917e-08
2.02031e-08
1.89906e-08
1.78498e-08
1.67764e-08
1.57666e-08
1.48166e-08
1.3923e-08
1.30824e-08
1.22918e-08
1.15482e-08
1.08489e-08
1.01913e-08
9.57291e-09
8.99146e-09
8.44478e-09
7.9308e-09
7.44762e-09
6.99342e-09
6.56648e-09
6.16519e-09
5.78804e-09
5.43361e-09
5.10054e-09
4.78757e-09
4.49351e-09
4.21724e-09
3.95769e-09
3.71388e-09
3.48486e-09
3.26976e-09
3.06774e-09
2.87802e-09
2.69987e-09
2.5326e-09
2.37556e-09
2.22813e-09
2.08974e-09
1.95984e-09
1.83793e-09
1.72352e-09
1.61617e-09
1.51545e-09
1.42097e-09
1.33234e-09
1.24922e-09
1.17127e-09
1.09818e-09
1.02966e-09
9.65441e-10
9.05257e-10
8.48867e-10
7.96046e-10
7.46578e-10
7.00263e-10
6.56913e-10
6.16351e-10
5.78413e-10
5.42943e-10
5.09795e-10
4.78835e-10
4.49933e-10
4.22973e-10
3.97841e-10
3.74434e-10
3.52656e-10
3.32416e-10
3.13629e-10
2.96218e-10
2.80109e-10
2.65236e-10
2.51536e-10
2.38952e-10
2.27431e-10
2.16925e-10
2.07389e-10
1.98783e-10
1.91071e-10
1.8422e-10
1.78202e-10
1.72991e-10
1.68565e-10
1.64904e-10
1.61995e-10
1.59823e-10
1.5838e-10
1.57661e-10
)
;
    }
    Wall
    {
        type            calculated;
        value           nonuniform List<scalar> 
400
(
0.734672
0.712424
0.691347
0.670899
0.650825
0.631001
0.611365
0.591895
0.572587
0.553451
0.534505
0.515773
0.49728
0.479053
0.461116
0.443497
0.426219
0.409303
0.392769
0.376636
0.360916
0.345624
0.330768
0.316357
0.302395
0.288887
0.275833
0.263232
0.251083
0.239381
0.228122
0.217299
0.206904
0.19693
0.187366
0.178204
0.169432
0.161041
0.153019
0.145354
0.138035
0.13105
0.124388
0.118036
0.111984
0.10622
0.100732
0.095509
0.0905407
0.0858162
0.081325
0.0770569
0.0730022
0.0691512
0.0654949
0.0620241
0.0587304
0.0556054
0.0526411
0.0498299
0.0471643
0.0446374
0.0422422
0.0399724
0.0378217
0.0357841
0.033854
0.0320259
0.0302948
0.0286555
0.0271035
0.0256342
0.0242434
0.0229269
0.0216811
0.020502
0.0193864
0.0183307
0.017332
0.0163871
0.0154932
0.0146477
0.0138479
0.0130914
0.012376
0.0116993
0.0110594
0.0104543
0.00988212
0.00934105
0.00882944
0.00834571
0.00788835
0.00745594
0.00704712
0.00666063
0.00629525
0.00594984
0.00562331
0.00531464
0.00502285
0.00474704
0.00448633
0.00423989
0.00400696
0.00378679
0.00357869
0.00338199
0.00319608
0.00302037
0.0028543
0.00269734
0.002549
0.0024088
0.00227629
0.00215107
0.00203271
0.00192086
0.00181516
0.00171526
0.00162085
0.00153163
0.00144732
0.00136763
0.00129233
0.00122117
0.00115392
0.00109037
0.00103032
0.000973566
0.000919935
0.000869255
0.000821363
0.000776106
0.000733339
0.000692926
0.000654736
0.000618648
0.000584547
0.000552322
0.000521872
0.000493097
0.000465907
0.000440214
0.000415936
0.000392994
0.000371316
0.000350832
0.000331475
0.000313185
0.000295903
0.000279572
0.000264141
0.000249561
0.000235783
0.000222765
0.000210464
0.000198841
0.000187859
0.000177482
0.000167677
0.000158412
0.000149658
0.000141387
0.000133572
0.000126188
0.000119211
0.000112619
0.00010639
0.000100505
9.49447e-05
8.96912e-05
8.47276e-05
8.00378e-05
7.56069e-05
7.14206e-05
6.74653e-05
6.37285e-05
6.01979e-05
5.68623e-05
5.37109e-05
5.07336e-05
4.79207e-05
4.52633e-05
4.27527e-05
4.03808e-05
3.81401e-05
3.60232e-05
3.40233e-05
3.2134e-05
3.03492e-05
2.86631e-05
2.70703e-05
2.55656e-05
2.41442e-05
2.28015e-05
2.15331e-05
2.03349e-05
1.92031e-05
1.8134e-05
1.71241e-05
1.61701e-05
1.52691e-05
1.44179e-05
1.3614e-05
1.28547e-05
1.21375e-05
1.146e-05
1.08202e-05
1.02159e-05
9.64513e-06
9.10606e-06
8.59695e-06
8.11612e-06
7.66202e-06
7.23316e-06
6.82815e-06
6.44567e-06
6.08447e-06
5.74338e-06
5.42128e-06
5.11711e-06
4.82989e-06
4.55868e-06
4.30259e-06
4.06077e-06
3.83244e-06
3.61686e-06
3.41331e-06
3.22112e-06
3.03967e-06
2.86836e-06
2.70663e-06
2.55394e-06
2.40979e-06
2.27371e-06
2.14525e-06
2.02399e-06
1.90951e-06
1.80146e-06
1.69946e-06
1.60319e-06
1.51232e-06
1.42656e-06
1.34561e-06
1.26921e-06
1.19711e-06
1.12906e-06
1.06485e-06
1.00425e-06
9.47059e-07
8.93097e-07
8.42178e-07
7.94132e-07
7.48798e-07
7.06025e-07
6.65669e-07
6.27595e-07
5.91675e-07
5.57789e-07
5.25821e-07
4.95666e-07
4.6722e-07
4.40389e-07
4.1508e-07
3.91209e-07
3.68695e-07
3.47462e-07
3.27437e-07
3.08552e-07
2.90743e-07
2.7395e-07
2.58114e-07
2.43183e-07
2.29105e-07
2.15832e-07
2.03318e-07
1.9152e-07
1.80398e-07
1.69914e-07
1.60031e-07
1.50716e-07
1.41936e-07
1.3366e-07
1.25861e-07
1.1851e-07
1.11583e-07
1.05056e-07
9.8905e-08
9.31093e-08
8.76486e-08
8.25038e-08
7.76567e-08
7.30904e-08
6.87889e-08
6.47369e-08
6.09202e-08
5.73254e-08
5.39396e-08
5.07509e-08
4.7748e-08
4.49202e-08
4.22574e-08
3.97502e-08
3.73895e-08
3.51669e-08
3.30745e-08
3.11048e-08
2.92506e-08
2.75052e-08
2.58625e-08
2.43163e-08
2.28612e-08
2.14919e-08
2.02033e-08
1.89908e-08
1.78499e-08
1.67766e-08
1.57667e-08
1.48167e-08
1.39231e-08
1.30825e-08
1.22919e-08
1.15483e-08
1.0849e-08
1.01914e-08
9.573e-09
8.99155e-09
8.44485e-09
7.93088e-09
7.44769e-09
6.99348e-09
6.56654e-09
6.16525e-09
5.7881e-09
5.43367e-09
5.10059e-09
4.78762e-09
4.49356e-09
4.21728e-09
3.95773e-09
3.71392e-09
3.4849e-09
3.26979e-09
3.06777e-09
2.87805e-09
2.69991e-09
2.53263e-09
2.37559e-09
2.22816e-09
2.08976e-09
1.95987e-09
1.83795e-09
1.72355e-09
1.61619e-09
1.51547e-09
1.42099e-09
1.33236e-09
1.24923e-09
1.17128e-09
1.09819e-09
1.02968e-09
9.65454e-10
9.0527e-10
8.4888e-10
7.96057e-10
7.46589e-10
7.00273e-10
6.56922e-10
6.16361e-10
5.78422e-10
5.42951e-10
5.09803e-10
4.78842e-10
4.49941e-10
4.22979e-10
3.97847e-10
3.74441e-10
3.52662e-10
3.32421e-10
3.13634e-10
2.96223e-10
2.80114e-10
2.6524e-10
2.5154e-10
2.38956e-10
2.27435e-10
2.16928e-10
2.07392e-10
1.98786e-10
1.91074e-10
1.84224e-10
1.78205e-10
1.72994e-10
1.68568e-10
1.64908e-10
1.61998e-10
1.59826e-10
1.58383e-10
1.57662e-10
)
;
    }
}


// ************************************************************************* //
