/*--------------------------------*- C++ -*----------------------------------*\
  =========                 |
  \\      /  F ield         | OpenFOAM: The Open Source CFD Toolbox
   \\    /   O peration     | Website:  https://openfoam.org
    \\  /    A nd           | Version:  10
     \\/     M anipulation  |
\*---------------------------------------------------------------------------*/
FoamFile
{
    format      ascii;
    class       volScalarField;
    location    "0.4";
    object      Exp1;
}
// * * * * * * * * * * * * * * * * * * * * * * * * * * * * * * * * * * * * * //

dimensions      [0 0 0 0 0 0 0];

internalField   uniform 0;

boundaryField
{
    frontAndBack
    {
        type            empty;
    }
    inlet
    {
        type            calculated;
        value           uniform 0;
    }
    outlet
    {
        type            calculated;
        value           uniform 0;
    }
    substrate
    {
        type            calculated;
        value           nonuniform List<scalar> 
400
(
2.45347e-08
7.34706e-08
1.22094e-07
1.70265e-07
2.17861e-07
2.64775e-07
3.10913e-07
3.56189e-07
4.00532e-07
4.43875e-07
4.86164e-07
5.27353e-07
5.67402e-07
6.06279e-07
6.4396e-07
6.80425e-07
7.15663e-07
7.49666e-07
7.8243e-07
8.13958e-07
8.44255e-07
8.7333e-07
9.01194e-07
9.27862e-07
9.5335e-07
9.77677e-07
1.00086e-06
1.02293e-06
1.0439e-06
1.06379e-06
1.08264e-06
1.10046e-06
1.11728e-06
1.13312e-06
1.14801e-06
1.16197e-06
1.17504e-06
1.18722e-06
1.19855e-06
1.20905e-06
1.21875e-06
1.22766e-06
1.2358e-06
1.24321e-06
1.2499e-06
1.25589e-06
1.2612e-06
1.26585e-06
1.26987e-06
1.27326e-06
1.27606e-06
1.27826e-06
1.27991e-06
1.281e-06
1.28155e-06
1.28159e-06
1.28113e-06
1.28018e-06
1.27875e-06
1.27687e-06
1.27454e-06
1.27179e-06
1.26861e-06
1.26503e-06
1.26105e-06
1.2567e-06
1.25198e-06
1.2469e-06
1.24148e-06
1.23572e-06
1.22964e-06
1.22326e-06
1.21657e-06
1.20959e-06
1.20232e-06
1.19479e-06
1.187e-06
1.17896e-06
1.17068e-06
1.16217e-06
1.15343e-06
1.14448e-06
1.13533e-06
1.12598e-06
1.11645e-06
1.10673e-06
1.09685e-06
1.08681e-06
1.07661e-06
1.06626e-06
1.05578e-06
1.04517e-06
1.03443e-06
1.02358e-06
1.01263e-06
1.00157e-06
9.90421e-07
9.79185e-07
9.67871e-07
9.56484e-07
9.45031e-07
9.3352e-07
9.21956e-07
9.10346e-07
8.98695e-07
8.87011e-07
8.753e-07
8.63566e-07
8.51816e-07
8.40055e-07
8.28289e-07
8.16523e-07
8.04763e-07
7.93014e-07
7.8128e-07
7.69567e-07
7.57879e-07
7.46221e-07
7.34598e-07
7.23013e-07
7.11472e-07
6.99978e-07
6.88536e-07
6.77149e-07
6.65822e-07
6.54557e-07
6.43358e-07
6.3223e-07
6.21174e-07
6.10195e-07
5.99296e-07
5.88479e-07
5.77747e-07
5.67103e-07
5.56549e-07
5.46089e-07
5.35724e-07
5.25457e-07
5.15289e-07
5.05224e-07
4.95262e-07
4.85406e-07
4.75657e-07
4.66017e-07
4.56488e-07
4.4707e-07
4.37766e-07
4.28576e-07
4.19501e-07
4.10543e-07
4.01702e-07
3.92979e-07
3.84375e-07
3.7589e-07
3.67526e-07
3.59282e-07
3.51159e-07
3.43157e-07
3.35277e-07
3.27518e-07
3.19881e-07
3.12365e-07
3.04971e-07
2.97698e-07
2.90546e-07
2.83515e-07
2.76604e-07
2.69814e-07
2.63143e-07
2.56591e-07
2.50158e-07
2.43842e-07
2.37644e-07
2.31562e-07
2.25595e-07
2.19744e-07
2.14006e-07
2.08381e-07
2.02868e-07
1.97467e-07
1.92175e-07
1.86992e-07
1.81917e-07
1.76949e-07
1.72087e-07
1.67328e-07
1.62673e-07
1.5812e-07
1.53668e-07
1.49315e-07
1.4506e-07
1.40902e-07
1.36839e-07
1.32871e-07
1.28995e-07
1.25211e-07
1.21517e-07
1.17912e-07
1.14394e-07
1.10962e-07
1.07614e-07
1.0435e-07
1.01167e-07
9.8065e-08
9.50417e-08
9.20959e-08
8.92263e-08
8.64314e-08
8.371e-08
8.10605e-08
7.84816e-08
7.59719e-08
7.35301e-08
7.11549e-08
6.88448e-08
6.65985e-08
6.44148e-08
6.22922e-08
6.02295e-08
5.82254e-08
5.62786e-08
5.43879e-08
5.2552e-08
5.07696e-08
4.90395e-08
4.73606e-08
4.57316e-08
4.41514e-08
4.26187e-08
4.11325e-08
3.96916e-08
3.82949e-08
3.69412e-08
3.56297e-08
3.4359e-08
3.31283e-08
3.19365e-08
3.07825e-08
2.96655e-08
2.85843e-08
2.75381e-08
2.65258e-08
2.55467e-08
2.45998e-08
2.36841e-08
2.27988e-08
2.19432e-08
2.11162e-08
2.03172e-08
1.95453e-08
1.87997e-08
1.80797e-08
1.73845e-08
1.67133e-08
1.60656e-08
1.54405e-08
1.48373e-08
1.42555e-08
1.36944e-08
1.31532e-08
1.26315e-08
1.21285e-08
1.16438e-08
1.11767e-08
1.07266e-08
1.02931e-08
9.87553e-09
9.47344e-09
9.08632e-09
8.71367e-09
8.35501e-09
8.00987e-09
7.67781e-09
7.35838e-09
7.05116e-09
6.75573e-09
6.47168e-09
6.19863e-09
5.9362e-09
5.68401e-09
5.4417e-09
5.20893e-09
4.98536e-09
4.77067e-09
4.56453e-09
4.36664e-09
4.1767e-09
3.99442e-09
3.81952e-09
3.65173e-09
3.49079e-09
3.33645e-09
3.18845e-09
3.04656e-09
2.91056e-09
2.78021e-09
2.65531e-09
2.53564e-09
2.42101e-09
2.31122e-09
2.20609e-09
2.10543e-09
2.00906e-09
1.91683e-09
1.82856e-09
1.74411e-09
1.66331e-09
1.58603e-09
1.51211e-09
1.44144e-09
1.37386e-09
1.30927e-09
1.24754e-09
1.18854e-09
1.13217e-09
1.07832e-09
1.02689e-09
9.7777e-10
9.30867e-10
8.86089e-10
8.43346e-10
8.02552e-10
7.63623e-10
7.26481e-10
6.91049e-10
6.57254e-10
6.25024e-10
5.94293e-10
5.64995e-10
5.37067e-10
5.1045e-10
4.85087e-10
4.60921e-10
4.379e-10
4.15974e-10
3.95092e-10
3.7521e-10
3.56281e-10
3.38264e-10
3.21116e-10
3.04799e-10
2.89275e-10
2.74507e-10
2.60462e-10
2.47105e-10
2.34406e-10
2.22334e-10
2.1086e-10
1.99957e-10
1.89597e-10
1.79756e-10
1.70409e-10
1.61533e-10
1.53106e-10
1.45108e-10
1.37517e-10
1.30315e-10
1.23483e-10
1.17004e-10
1.10861e-10
1.05038e-10
9.95204e-11
9.42931e-11
8.93426e-11
8.46557e-11
8.02201e-11
7.60238e-11
7.20555e-11
6.83046e-11
6.47609e-11
6.14147e-11
5.82568e-11
5.52785e-11
5.24716e-11
4.98283e-11
4.73412e-11
4.50034e-11
4.28083e-11
4.07496e-11
3.88216e-11
3.70187e-11
3.53358e-11
3.37681e-11
3.23111e-11
3.09605e-11
2.97125e-11
2.85635e-11
2.751e-11
2.65491e-11
2.56778e-11
2.48937e-11
2.41945e-11
2.35781e-11
2.30427e-11
2.25866e-11
2.22086e-11
2.19076e-11
2.16826e-11
2.15329e-11
2.14582e-11
)
;
    }
    Wall
    {
        type            calculated;
        value           nonuniform List<scalar> 
400
(
2.45348e-08
7.34712e-08
1.22095e-07
1.70267e-07
2.17863e-07
2.64778e-07
3.10915e-07
3.56192e-07
4.00533e-07
4.43876e-07
4.86165e-07
5.27352e-07
5.674e-07
6.06276e-07
6.43956e-07
6.80421e-07
7.15658e-07
7.49659e-07
7.82423e-07
8.13949e-07
8.44245e-07
8.73319e-07
9.01182e-07
9.27848e-07
9.53336e-07
9.77662e-07
1.00085e-06
1.02291e-06
1.04388e-06
1.06377e-06
1.08262e-06
1.10044e-06
1.11726e-06
1.1331e-06
1.14799e-06
1.16195e-06
1.17501e-06
1.1872e-06
1.19853e-06
1.20903e-06
1.21872e-06
1.22763e-06
1.23577e-06
1.24318e-06
1.24987e-06
1.25586e-06
1.26117e-06
1.26582e-06
1.26984e-06
1.27323e-06
1.27602e-06
1.27823e-06
1.27987e-06
1.28096e-06
1.28152e-06
1.28156e-06
1.2811e-06
1.28014e-06
1.27872e-06
1.27684e-06
1.27451e-06
1.27175e-06
1.26857e-06
1.26499e-06
1.26102e-06
1.25667e-06
1.25194e-06
1.24687e-06
1.24144e-06
1.23569e-06
1.22961e-06
1.22322e-06
1.21653e-06
1.20955e-06
1.20229e-06
1.19476e-06
1.18697e-06
1.17893e-06
1.17065e-06
1.16213e-06
1.1534e-06
1.14445e-06
1.1353e-06
1.12595e-06
1.11642e-06
1.1067e-06
1.09682e-06
1.08677e-06
1.07657e-06
1.06623e-06
1.05575e-06
1.04514e-06
1.0344e-06
1.02355e-06
1.0126e-06
1.00154e-06
9.90391e-07
9.79156e-07
9.67842e-07
9.56455e-07
9.45003e-07
9.33492e-07
9.21928e-07
9.10318e-07
8.98668e-07
8.86985e-07
8.75273e-07
8.6354e-07
8.5179e-07
8.40029e-07
8.28264e-07
8.16498e-07
8.04739e-07
7.92989e-07
7.81256e-07
7.69543e-07
7.57856e-07
7.46198e-07
7.34575e-07
7.22991e-07
7.1145e-07
6.99957e-07
6.88515e-07
6.77128e-07
6.65801e-07
6.54537e-07
6.43338e-07
6.3221e-07
6.21155e-07
6.10176e-07
5.99277e-07
5.8846e-07
5.77729e-07
5.67085e-07
5.56532e-07
5.46072e-07
5.35707e-07
5.2544e-07
5.15273e-07
5.05208e-07
4.95247e-07
4.85391e-07
4.75642e-07
4.66003e-07
4.56474e-07
4.47056e-07
4.37752e-07
4.28562e-07
4.19488e-07
4.1053e-07
4.01689e-07
3.92967e-07
3.84363e-07
3.75879e-07
3.67515e-07
3.59271e-07
3.51148e-07
3.43147e-07
3.35267e-07
3.27508e-07
3.19871e-07
3.12355e-07
3.04961e-07
2.97689e-07
2.90537e-07
2.83506e-07
2.76596e-07
2.69806e-07
2.63135e-07
2.56583e-07
2.5015e-07
2.43835e-07
2.37636e-07
2.31555e-07
2.25588e-07
2.19737e-07
2.13999e-07
2.08375e-07
2.02862e-07
1.97461e-07
1.92169e-07
1.86987e-07
1.81912e-07
1.76944e-07
1.72081e-07
1.67323e-07
1.62668e-07
1.58115e-07
1.53663e-07
1.4931e-07
1.45055e-07
1.40898e-07
1.36835e-07
1.32867e-07
1.28991e-07
1.25207e-07
1.21513e-07
1.17908e-07
1.1439e-07
1.10958e-07
1.07611e-07
1.04347e-07
1.01164e-07
9.80621e-08
9.50389e-08
9.20933e-08
8.92237e-08
8.6429e-08
8.37076e-08
8.10582e-08
7.84794e-08
7.59698e-08
7.35281e-08
7.11529e-08
6.88429e-08
6.65967e-08
6.4413e-08
6.22905e-08
6.02278e-08
5.82238e-08
5.62771e-08
5.43864e-08
5.25505e-08
5.07682e-08
4.90382e-08
4.73593e-08
4.57304e-08
4.41502e-08
4.26175e-08
4.11314e-08
3.96905e-08
3.82938e-08
3.69403e-08
3.56287e-08
3.43581e-08
3.31274e-08
3.19357e-08
3.07817e-08
2.96647e-08
2.85835e-08
2.75374e-08
2.65252e-08
2.55461e-08
2.45991e-08
2.36835e-08
2.27983e-08
2.19426e-08
2.11157e-08
2.03167e-08
1.95448e-08
1.87992e-08
1.80792e-08
1.7384e-08
1.67129e-08
1.60652e-08
1.54401e-08
1.4837e-08
1.42552e-08
1.3694e-08
1.31529e-08
1.26312e-08
1.21282e-08
1.16435e-08
1.11764e-08
1.07264e-08
1.02928e-08
9.8753e-09
9.47323e-09
9.08612e-09
8.71348e-09
8.35482e-09
8.0097e-09
7.67764e-09
7.35822e-09
7.05101e-09
6.75558e-09
6.47155e-09
6.1985e-09
5.93607e-09
5.68389e-09
5.44159e-09
5.20882e-09
4.98526e-09
4.77057e-09
4.56444e-09
4.36655e-09
4.17661e-09
3.99434e-09
3.81944e-09
3.65166e-09
3.49072e-09
3.33638e-09
3.18839e-09
3.04651e-09
2.9105e-09
2.78016e-09
2.65526e-09
2.5356e-09
2.42097e-09
2.31118e-09
2.20605e-09
2.10539e-09
2.00903e-09
1.9168e-09
1.82853e-09
1.74408e-09
1.66328e-09
1.586e-09
1.51209e-09
1.44141e-09
1.37384e-09
1.30925e-09
1.24752e-09
1.18852e-09
1.13215e-09
1.07831e-09
1.02687e-09
9.77755e-10
9.30854e-10
8.86077e-10
8.43334e-10
8.0254e-10
7.63612e-10
7.26471e-10
6.9104e-10
6.57245e-10
6.25016e-10
5.94285e-10
5.64987e-10
5.3706e-10
5.10444e-10
4.85081e-10
4.60916e-10
4.37895e-10
4.15969e-10
3.95088e-10
3.75206e-10
3.56277e-10
3.3826e-10
3.21113e-10
3.04796e-10
2.89272e-10
2.74504e-10
2.60459e-10
2.47103e-10
2.34404e-10
2.22332e-10
2.10858e-10
1.99955e-10
1.89595e-10
1.79754e-10
1.70407e-10
1.61532e-10
1.53105e-10
1.45107e-10
1.37516e-10
1.30314e-10
1.23482e-10
1.17003e-10
1.1086e-10
1.05038e-10
9.95198e-11
9.42925e-11
8.9342e-11
8.46552e-11
8.02196e-11
7.60234e-11
7.20552e-11
6.83043e-11
6.47606e-11
6.14144e-11
5.82565e-11
5.52783e-11
5.24714e-11
4.98281e-11
4.73411e-11
4.50033e-11
4.28081e-11
4.07495e-11
3.88215e-11
3.70186e-11
3.53357e-11
3.37681e-11
3.2311e-11
3.09605e-11
2.97125e-11
2.85635e-11
2.751e-11
2.65491e-11
2.56778e-11
2.48938e-11
2.41946e-11
2.35781e-11
2.30427e-11
2.25867e-11
2.22087e-11
2.19076e-11
2.16826e-11
2.1533e-11
2.14582e-11
)
;
    }
}


// ************************************************************************* //
