/*--------------------------------*- C++ -*----------------------------------*\
  =========                 |
  \\      /  F ield         | OpenFOAM: The Open Source CFD Toolbox
   \\    /   O peration     | Website:  https://openfoam.org
    \\  /    A nd           | Version:  10
     \\/     M anipulation  |
\*---------------------------------------------------------------------------*/
FoamFile
{
    format      ascii;
    class       volScalarField;
    location    "0.66";
    object      growth;
}
// * * * * * * * * * * * * * * * * * * * * * * * * * * * * * * * * * * * * * //

dimensions      [0 0 0 0 0 0 0];

internalField   uniform 0;

boundaryField
{
    frontAndBack
    {
        type            empty;
    }
    inlet
    {
        type            calculated;
        value           uniform 0;
    }
    outlet
    {
        type            calculated;
        value           uniform 0;
    }
    substrate
    {
        type            calculated;
        value           nonuniform List<scalar> 
400
(
0.734673
0.712425
0.691347
0.670899
0.650825
0.631001
0.611366
0.591896
0.572588
0.553452
0.534506
0.515774
0.497281
0.479053
0.461116
0.443497
0.426218
0.409302
0.392768
0.376634
0.360915
0.345622
0.330766
0.316355
0.302393
0.288885
0.27583
0.26323
0.251081
0.239379
0.22812
0.217296
0.206902
0.196927
0.187364
0.178202
0.16943
0.161039
0.153017
0.145352
0.138033
0.131048
0.124386
0.118035
0.111983
0.106218
0.100731
0.0955082
0.09054
0.0858157
0.0813246
0.0770567
0.0730021
0.0691513
0.065495
0.0620244
0.0587308
0.055606
0.0526418
0.0498307
0.0471653
0.0446385
0.0422434
0.0399737
0.0378231
0.0357856
0.0338556
0.0320277
0.0302966
0.0286574
0.0271054
0.0256362
0.0242455
0.0229291
0.0216833
0.0205043
0.0193887
0.0183331
0.0173344
0.0163895
0.0154957
0.0146502
0.0138504
0.013094
0.0123786
0.011702
0.0110621
0.010457
0.00988477
0.00934371
0.00883211
0.00834839
0.00789103
0.00745862
0.0070498
0.0066633
0.00629792
0.0059525
0.00562596
0.00531728
0.00502548
0.00474966
0.00448893
0.00424248
0.00400953
0.00378934
0.00358122
0.0033845
0.00319857
0.00302284
0.00285675
0.00269976
0.0025514
0.00241117
0.00227864
0.00215339
0.00203501
0.00192313
0.0018174
0.00171747
0.00162304
0.00153379
0.00144944
0.00136973
0.0012944
0.00122321
0.00115594
0.00109236
0.00103227
0.000975493
0.000921834
0.000871125
0.000823204
0.000777918
0.000735122
0.000694679
0.000656461
0.000620345
0.000586215
0.000553962
0.000523483
0.000494681
0.000467463
0.000441742
0.000417436
0.000394467
0.000372762
0.000352251
0.000332868
0.000314552
0.000297243
0.000280887
0.00026543
0.000250824
0.000237022
0.000223979
0.000211654
0.000200007
0.000189
0.0001786
0.000168771
0.000159484
0.000150707
0.000142414
0.000134577
0.000127171
0.000120172
0.000113559
0.00010731
0.000101404
9.58238e-05
9.05505e-05
8.55673e-05
8.08583e-05
7.64085e-05
7.22035e-05
6.823e-05
6.44751e-05
6.09268e-05
5.75738e-05
5.44054e-05
5.14113e-05
4.8582e-05
4.59083e-05
4.33818e-05
4.09944e-05
3.87383e-05
3.66064e-05
3.45919e-05
3.26881e-05
3.08892e-05
2.91892e-05
2.75829e-05
2.60649e-05
2.46304e-05
2.32749e-05
2.1994e-05
2.07836e-05
1.96398e-05
1.85589e-05
1.75376e-05
1.65724e-05
1.56603e-05
1.47985e-05
1.39841e-05
1.32145e-05
1.24872e-05
1.18e-05
1.11506e-05
1.05369e-05
9.95703e-06
9.40905e-06
8.89123e-06
8.40191e-06
7.93951e-06
7.50256e-06
7.08966e-06
6.69949e-06
6.33078e-06
5.98237e-06
5.65313e-06
5.34201e-06
5.04802e-06
4.7702e-06
4.50767e-06
4.25959e-06
4.02517e-06
3.80364e-06
3.59431e-06
3.39649e-06
3.20957e-06
3.03293e-06
2.86601e-06
2.70828e-06
2.55923e-06
2.41838e-06
2.28528e-06
2.15951e-06
2.04066e-06
1.92835e-06
1.82222e-06
1.72193e-06
1.62716e-06
1.53761e-06
1.45299e-06
1.37302e-06
1.29745e-06
1.22605e-06
1.15857e-06
1.09481e-06
1.03455e-06
9.77612e-07
9.23808e-07
8.72964e-07
8.24918e-07
7.79517e-07
7.36614e-07
6.96073e-07
6.57762e-07
6.21561e-07
5.87351e-07
5.55024e-07
5.24477e-07
4.9561e-07
4.68333e-07
4.42556e-07
4.18198e-07
3.95181e-07
3.7343e-07
3.52877e-07
3.33455e-07
3.15101e-07
2.97758e-07
2.81369e-07
2.65883e-07
2.51248e-07
2.37419e-07
2.24351e-07
2.12003e-07
2.00334e-07
1.89307e-07
1.78887e-07
1.69041e-07
1.59736e-07
1.50944e-07
1.42635e-07
1.34784e-07
1.27365e-07
1.20354e-07
1.1373e-07
1.07469e-07
1.01554e-07
9.59635e-08
9.06811e-08
8.56895e-08
8.09726e-08
7.65153e-08
7.23033e-08
6.83232e-08
6.45621e-08
6.10081e-08
5.76497e-08
5.44761e-08
5.14772e-08
4.86434e-08
4.59656e-08
4.34352e-08
4.10441e-08
3.87846e-08
3.66494e-08
3.46318e-08
3.27253e-08
3.09237e-08
2.92213e-08
2.76126e-08
2.60925e-08
2.46561e-08
2.32987e-08
2.20161e-08
2.08041e-08
1.96588e-08
1.85766e-08
1.7554e-08
1.65877e-08
1.56746e-08
1.48118e-08
1.39965e-08
1.32261e-08
1.24981e-08
1.18102e-08
1.11603e-08
1.05461e-08
9.9658e-09
9.41746e-09
8.89934e-09
8.40977e-09
7.9472e-09
7.51013e-09
7.09716e-09
6.70698e-09
6.33832e-09
5.99e-09
5.66091e-09
5.34999e-09
5.05625e-09
4.77874e-09
4.51657e-09
4.26891e-09
4.03495e-09
3.81395e-09
3.60519e-09
3.40801e-09
3.22178e-09
3.04589e-09
2.87979e-09
2.72294e-09
2.57483e-09
2.435e-09
2.30299e-09
2.17838e-09
2.06077e-09
1.94978e-09
1.84506e-09
1.74626e-09
1.65308e-09
1.56522e-09
1.48238e-09
1.40432e-09
1.33076e-09
1.26149e-09
1.19627e-09
1.1349e-09
1.07718e-09
1.02293e-09
9.71969e-10
9.24135e-10
8.79274e-10
8.37244e-10
7.97908e-10
7.61141e-10
7.26825e-10
6.94849e-10
6.6511e-10
6.37515e-10
6.11972e-10
5.88402e-10
5.66727e-10
5.46878e-10
5.28792e-10
5.12411e-10
4.97681e-10
4.84556e-10
4.72994e-10
4.62956e-10
4.54412e-10
4.47333e-10
4.41698e-10
4.37486e-10
4.34686e-10
4.33289e-10
)
;
    }
    Wall
    {
        type            calculated;
        value           nonuniform List<scalar> 
400
(
0.734673
0.712424
0.691347
0.670899
0.650826
0.631001
0.611366
0.591895
0.572587
0.553451
0.534506
0.515774
0.497281
0.479053
0.461117
0.443498
0.42622
0.409304
0.392771
0.376637
0.360918
0.345625
0.33077
0.316359
0.302397
0.288889
0.275835
0.263234
0.251085
0.239384
0.228124
0.217301
0.206907
0.196932
0.187369
0.178207
0.169435
0.161044
0.153022
0.145357
0.138038
0.131053
0.124391
0.118039
0.111987
0.106223
0.100735
0.0955123
0.0905441
0.0858196
0.0813284
0.0770603
0.0730056
0.0691547
0.0654983
0.0620276
0.0587339
0.0556089
0.0526446
0.0498334
0.0471679
0.0446409
0.0422458
0.039976
0.0378252
0.0357877
0.0338576
0.0320295
0.0302983
0.0286591
0.027107
0.0256377
0.0242469
0.0229304
0.0216846
0.0205055
0.0193898
0.0183342
0.0173354
0.0163905
0.0154966
0.014651
0.0138512
0.0130947
0.0123793
0.0117026
0.0110627
0.0104576
0.00988533
0.00934423
0.0088326
0.00834884
0.00789145
0.00745901
0.00705017
0.00666365
0.00629824
0.0059528
0.00562624
0.00531754
0.00502573
0.00474989
0.00448914
0.00424268
0.00400971
0.00378951
0.00358138
0.00338465
0.00319871
0.00302297
0.00285686
0.00269987
0.0025515
0.00241126
0.00227873
0.00215347
0.00203508
0.0019232
0.00181746
0.00171753
0.00162309
0.00153384
0.00144949
0.00136978
0.00129444
0.00122325
0.00115597
0.00109239
0.0010323
0.00097552
0.000921858
0.000871147
0.000823224
0.000777936
0.000735139
0.000694695
0.000656476
0.000620358
0.000586227
0.000553973
0.000523493
0.00049469
0.000467471
0.00044175
0.000417443
0.000394474
0.000372768
0.000352256
0.000332873
0.000314556
0.000297247
0.000280891
0.000265434
0.000250827
0.000237025
0.000223982
0.000211656
0.000200009
0.000189002
0.000178601
0.000168773
0.000159485
0.000150709
0.000142415
0.000134578
0.000127172
0.000120173
0.00011356
0.00010731
0.000101405
9.58244e-05
9.05509e-05
8.55677e-05
8.08587e-05
7.64088e-05
7.22038e-05
6.82302e-05
6.44753e-05
6.0927e-05
5.7574e-05
5.44056e-05
5.14114e-05
4.85821e-05
4.59085e-05
4.3382e-05
4.09945e-05
3.87384e-05
3.66065e-05
3.45919e-05
3.26882e-05
3.08892e-05
2.91893e-05
2.75829e-05
2.60649e-05
2.46304e-05
2.32749e-05
2.1994e-05
2.07836e-05
1.96398e-05
1.85589e-05
1.75376e-05
1.65724e-05
1.56604e-05
1.47985e-05
1.39841e-05
1.32145e-05
1.24872e-05
1.18e-05
1.11506e-05
1.05369e-05
9.95703e-06
9.40905e-06
8.89123e-06
8.40191e-06
7.93951e-06
7.50256e-06
7.08966e-06
6.69949e-06
6.33078e-06
5.98237e-06
5.65313e-06
5.34201e-06
5.04801e-06
4.7702e-06
4.50767e-06
4.25959e-06
4.02516e-06
3.80364e-06
3.59431e-06
3.39649e-06
3.20957e-06
3.03293e-06
2.86601e-06
2.70828e-06
2.55922e-06
2.41838e-06
2.28528e-06
2.15951e-06
2.04066e-06
1.92835e-06
1.82222e-06
1.72193e-06
1.62716e-06
1.53761e-06
1.45299e-06
1.37302e-06
1.29745e-06
1.22605e-06
1.15857e-06
1.09481e-06
1.03455e-06
9.77612e-07
9.23807e-07
8.72964e-07
8.24918e-07
7.79517e-07
7.36614e-07
6.96073e-07
6.57762e-07
6.2156e-07
5.87351e-07
5.55024e-07
5.24477e-07
4.9561e-07
4.68332e-07
4.42556e-07
4.18198e-07
3.95181e-07
3.7343e-07
3.52877e-07
3.33455e-07
3.15101e-07
2.97758e-07
2.81369e-07
2.65883e-07
2.51248e-07
2.37419e-07
2.24351e-07
2.12003e-07
2.00334e-07
1.89307e-07
1.78887e-07
1.69041e-07
1.59736e-07
1.50944e-07
1.42635e-07
1.34784e-07
1.27365e-07
1.20354e-07
1.1373e-07
1.07469e-07
1.01554e-07
9.59635e-08
9.06811e-08
8.56895e-08
8.09726e-08
7.65153e-08
7.23033e-08
6.83232e-08
6.45621e-08
6.10081e-08
5.76497e-08
5.44761e-08
5.14772e-08
4.86434e-08
4.59656e-08
4.34352e-08
4.10441e-08
3.87846e-08
3.66494e-08
3.46318e-08
3.27253e-08
3.09237e-08
2.92213e-08
2.76126e-08
2.60925e-08
2.46561e-08
2.32987e-08
2.20161e-08
2.08041e-08
1.96588e-08
1.85766e-08
1.7554e-08
1.65877e-08
1.56746e-08
1.48118e-08
1.39965e-08
1.32261e-08
1.24981e-08
1.18102e-08
1.11603e-08
1.05461e-08
9.9658e-09
9.41746e-09
8.89934e-09
8.40977e-09
7.9472e-09
7.51013e-09
7.09716e-09
6.70698e-09
6.33832e-09
5.99e-09
5.66091e-09
5.34999e-09
5.05625e-09
4.77874e-09
4.51658e-09
4.26891e-09
4.03495e-09
3.81395e-09
3.60519e-09
3.40801e-09
3.22178e-09
3.04589e-09
2.87979e-09
2.72294e-09
2.57483e-09
2.435e-09
2.30299e-09
2.17838e-09
2.06077e-09
1.94978e-09
1.84506e-09
1.74626e-09
1.65308e-09
1.56522e-09
1.48238e-09
1.40432e-09
1.33076e-09
1.26149e-09
1.19627e-09
1.1349e-09
1.07718e-09
1.02293e-09
9.71969e-10
9.24135e-10
8.79274e-10
8.37244e-10
7.97908e-10
7.61141e-10
7.26825e-10
6.94849e-10
6.65111e-10
6.37515e-10
6.11972e-10
5.88402e-10
5.66727e-10
5.46878e-10
5.28793e-10
5.12411e-10
4.97682e-10
4.84557e-10
4.72994e-10
4.62957e-10
4.54412e-10
4.47334e-10
4.41698e-10
4.37487e-10
4.34687e-10
4.33289e-10
)
;
    }
}


// ************************************************************************* //
