/*--------------------------------*- C++ -*----------------------------------*\
  =========                 |
  \\      /  F ield         | OpenFOAM: The Open Source CFD Toolbox
   \\    /   O peration     | Website:  https://openfoam.org
    \\  /    A nd           | Version:  10
     \\/     M anipulation  |
\*---------------------------------------------------------------------------*/
FoamFile
{
    format      ascii;
    class       volScalarField;
    location    "0.42";
    object      beta;
}
// * * * * * * * * * * * * * * * * * * * * * * * * * * * * * * * * * * * * * //

dimensions      [0 0 0 0 0 0 0];

internalField   uniform 0;

boundaryField
{
    frontAndBack
    {
        type            empty;
    }
    inlet
    {
        type            calculated;
        value           uniform 0;
    }
    outlet
    {
        type            calculated;
        value           uniform 0;
    }
    substrate
    {
        type            calculated;
        value           nonuniform List<scalar> 
400
(
0.00265327
0.00287575
0.00308653
0.00329102
0.00349175
0.00368999
0.00388634
0.00408104
0.00427413
0.00446549
0.00465494
0.00484226
0.0050272
0.00520948
0.00538884
0.00556504
0.00573782
0.00590698
0.00607232
0.00623366
0.00639086
0.00654379
0.00669235
0.00683646
0.00697608
0.00711116
0.00724171
0.00736771
0.00748921
0.00760622
0.00771882
0.00782705
0.007931
0.00803074
0.00812638
0.008218
0.00830571
0.00838963
0.00846985
0.0085465
0.00861969
0.00868953
0.00875616
0.00881967
0.00888019
0.00893783
0.00899271
0.00904494
0.00909462
0.00914186
0.00918677
0.00922945
0.00927
0.0093085
0.00934507
0.00937977
0.00941271
0.00944396
0.0094736
0.00950171
0.00952837
0.00955363
0.00957758
0.00960028
0.00962179
0.00964216
0.00966146
0.00967974
0.00969705
0.00971344
0.00972896
0.00974366
0.00975756
0.00977073
0.00978319
0.00979497
0.00980613
0.00981669
0.00982667
0.00983612
0.00984506
0.00985352
0.00986151
0.00986908
0.00987623
0.009883
0.0098894
0.00989545
0.00990117
0.00990658
0.0099117
0.00991653
0.00992111
0.00992543
0.00992952
0.00993338
0.00993704
0.00994049
0.00994376
0.00994684
0.00994976
0.00995252
0.00995513
0.00995759
0.00995992
0.00996212
0.0099642
0.00996617
0.00996803
0.00996979
0.00997145
0.00997302
0.0099745
0.0099759
0.00997723
0.00997848
0.00997966
0.00998078
0.00998184
0.00998284
0.00998378
0.00998467
0.00998552
0.00998631
0.00998707
0.00998778
0.00998845
0.00998909
0.00998969
0.00999026
0.00999079
0.0099913
0.00999178
0.00999223
0.00999266
0.00999306
0.00999344
0.00999381
0.00999415
0.00999447
0.00999477
0.00999506
0.00999533
0.00999559
0.00999583
0.00999606
0.00999628
0.00999649
0.00999668
0.00999686
0.00999703
0.0099972
0.00999735
0.0099975
0.00999764
0.00999777
0.00999789
0.00999801
0.00999812
0.00999822
0.00999832
0.00999841
0.0099985
0.00999858
0.00999866
0.00999873
0.0099988
0.00999887
0.00999893
0.00999899
0.00999905
0.0099991
0.00999915
0.0099992
0.00999924
0.00999928
0.00999932
0.00999936
0.00999939
0.00999943
0.00999946
0.00999949
0.00999952
0.00999954
0.00999957
0.00999959
0.00999962
0.00999964
0.00999966
0.00999968
0.00999969
0.00999971
0.00999973
0.00999974
0.00999976
0.00999977
0.00999978
0.00999979
0.00999981
0.00999982
0.00999983
0.00999984
0.00999985
0.00999985
0.00999986
0.00999987
0.00999988
0.00999988
0.00999989
0.0099999
0.0099999
0.00999991
0.00999991
0.00999992
0.00999992
0.00999993
0.00999993
0.00999993
0.00999994
0.00999994
0.00999994
0.00999995
0.00999995
0.00999995
0.00999996
0.00999996
0.00999996
0.00999996
0.00999997
0.00999997
0.00999997
0.00999997
0.00999997
0.00999997
0.00999998
0.00999998
0.00999998
0.00999998
0.00999998
0.00999998
0.00999998
0.00999998
0.00999998
0.00999999
0.00999999
0.00999999
0.00999999
0.00999999
0.00999999
0.00999999
0.00999999
0.00999999
0.00999999
0.00999999
0.00999999
0.00999999
0.00999999
0.00999999
0.00999999
0.00999999
0.00999999
0.00999999
0.01
0.01
0.01
0.01
0.01
0.01
0.01
0.01
0.01
0.01
0.01
0.01
0.01
0.01
0.01
0.01
0.01
0.01
0.01
0.01
0.01
0.01
0.01
0.01
0.01
0.01
0.01
0.01
0.01
0.01
0.01
0.01
0.01
0.01
0.01
0.01
0.01
0.01
0.01
0.01
0.01
0.01
0.01
0.01
0.01
0.01
0.01
0.01
0.01
0.01
0.01
0.01
0.01
0.01
0.01
0.01
0.01
0.01
0.01
0.01
0.01
0.01
0.01
0.01
0.01
0.01
0.01
0.01
0.01
0.01
0.01
0.01
0.01
0.01
0.01
0.01
0.01
0.01
0.01
0.01
0.01
0.01
0.01
0.01
0.01
0.01
0.01
0.01
0.01
0.01
0.01
0.01
0.01
0.01
0.01
0.01
0.01
0.01
0.01
0.01
0.01
0.01
0.01
0.01
0.01
0.01
0.01
0.01
0.01
0.01
0.01
0.01
0.01
0.01
0.01
0.01
0.01
0.01
0.01
0.01
0.01
0.01
0.01
0.01
0.01
0.01
0.01
0.01
0.01
0.01
0.01
0.01
0.01
0.01
0.01
0.01
0.01
0.01
)
;
    }
    Wall
    {
        type            calculated;
        value           nonuniform List<scalar> 
400
(
0.00265327
0.00287576
0.00308653
0.00329101
0.00349175
0.00368999
0.00388634
0.00408105
0.00427413
0.00446549
0.00465494
0.00484226
0.00502719
0.00520947
0.00538883
0.00556502
0.00573781
0.00590696
0.0060723
0.00623364
0.00639083
0.00654376
0.00669231
0.00683642
0.00697604
0.00711112
0.00724166
0.00736767
0.00748916
0.00760617
0.00771877
0.007827
0.00793095
0.00803069
0.00812633
0.00821795
0.00830566
0.00838958
0.0084698
0.00854645
0.00861964
0.00868949
0.00875611
0.00881962
0.00888014
0.00893779
0.00899267
0.00904489
0.00909458
0.00914182
0.00918673
0.00922941
0.00926996
0.00930847
0.00934503
0.00937974
0.00941268
0.00944393
0.00947357
0.00950168
0.00952834
0.00955361
0.00957756
0.00960026
0.00962177
0.00964214
0.00966144
0.00967972
0.00969703
0.00971343
0.00972895
0.00974364
0.00975755
0.00977071
0.00978317
0.00979496
0.00980612
0.00981668
0.00982666
0.00983611
0.00984505
0.00985351
0.0098615
0.00986907
0.00987622
0.00988299
0.00988939
0.00989544
0.00990116
0.00990657
0.00991169
0.00991653
0.0099211
0.00992543
0.00992951
0.00993338
0.00993703
0.00994049
0.00994375
0.00994684
0.00994976
0.00995252
0.00995512
0.00995759
0.00995992
0.00996212
0.0099642
0.00996617
0.00996803
0.00996978
0.00997144
0.00997301
0.0099745
0.0099759
0.00997723
0.00997848
0.00997966
0.00998078
0.00998184
0.00998284
0.00998378
0.00998467
0.00998552
0.00998631
0.00998707
0.00998778
0.00998845
0.00998909
0.00998969
0.00999026
0.00999079
0.0099913
0.00999178
0.00999223
0.00999266
0.00999306
0.00999344
0.00999381
0.00999415
0.00999447
0.00999477
0.00999506
0.00999533
0.00999559
0.00999583
0.00999606
0.00999628
0.00999649
0.00999668
0.00999686
0.00999703
0.0099972
0.00999735
0.0099975
0.00999764
0.00999777
0.00999789
0.00999801
0.00999812
0.00999822
0.00999832
0.00999841
0.0099985
0.00999858
0.00999866
0.00999873
0.0099988
0.00999887
0.00999893
0.00999899
0.00999905
0.0099991
0.00999915
0.0099992
0.00999924
0.00999928
0.00999932
0.00999936
0.00999939
0.00999943
0.00999946
0.00999949
0.00999952
0.00999954
0.00999957
0.00999959
0.00999962
0.00999964
0.00999966
0.00999968
0.00999969
0.00999971
0.00999973
0.00999974
0.00999976
0.00999977
0.00999978
0.00999979
0.00999981
0.00999982
0.00999983
0.00999984
0.00999985
0.00999985
0.00999986
0.00999987
0.00999988
0.00999988
0.00999989
0.0099999
0.0099999
0.00999991
0.00999991
0.00999992
0.00999992
0.00999993
0.00999993
0.00999993
0.00999994
0.00999994
0.00999994
0.00999995
0.00999995
0.00999995
0.00999996
0.00999996
0.00999996
0.00999996
0.00999997
0.00999997
0.00999997
0.00999997
0.00999997
0.00999997
0.00999998
0.00999998
0.00999998
0.00999998
0.00999998
0.00999998
0.00999998
0.00999998
0.00999998
0.00999999
0.00999999
0.00999999
0.00999999
0.00999999
0.00999999
0.00999999
0.00999999
0.00999999
0.00999999
0.00999999
0.00999999
0.00999999
0.00999999
0.00999999
0.00999999
0.00999999
0.00999999
0.00999999
0.01
0.01
0.01
0.01
0.01
0.01
0.01
0.01
0.01
0.01
0.01
0.01
0.01
0.01
0.01
0.01
0.01
0.01
0.01
0.01
0.01
0.01
0.01
0.01
0.01
0.01
0.01
0.01
0.01
0.01
0.01
0.01
0.01
0.01
0.01
0.01
0.01
0.01
0.01
0.01
0.01
0.01
0.01
0.01
0.01
0.01
0.01
0.01
0.01
0.01
0.01
0.01
0.01
0.01
0.01
0.01
0.01
0.01
0.01
0.01
0.01
0.01
0.01
0.01
0.01
0.01
0.01
0.01
0.01
0.01
0.01
0.01
0.01
0.01
0.01
0.01
0.01
0.01
0.01
0.01
0.01
0.01
0.01
0.01
0.01
0.01
0.01
0.01
0.01
0.01
0.01
0.01
0.01
0.01
0.01
0.01
0.01
0.01
0.01
0.01
0.01
0.01
0.01
0.01
0.01
0.01
0.01
0.01
0.01
0.01
0.01
0.01
0.01
0.01
0.01
0.01
0.01
0.01
0.01
0.01
0.01
0.01
0.01
0.01
0.01
0.01
0.01
0.01
0.01
0.01
0.01
0.01
0.01
0.01
0.01
0.01
0.01
0.01
)
;
    }
}


// ************************************************************************* //
