/*--------------------------------*- C++ -*----------------------------------*\
  =========                 |
  \\      /  F ield         | OpenFOAM: The Open Source CFD Toolbox
   \\    /   O peration     | Website:  https://openfoam.org
    \\  /    A nd           | Version:  10
     \\/     M anipulation  |
\*---------------------------------------------------------------------------*/
FoamFile
{
    format      ascii;
    class       volScalarField;
    location    "0.42";
    object      cov;
}
// * * * * * * * * * * * * * * * * * * * * * * * * * * * * * * * * * * * * * //

dimensions      [0 0 0 0 0 0 0];

internalField   uniform 0;

boundaryField
{
    frontAndBack
    {
        type            empty;
    }
    inlet
    {
        type            calculated;
        value           uniform 0;
    }
    outlet
    {
        type            calculated;
        value           uniform 0;
    }
    substrate
    {
        type            calculated;
        value           nonuniform List<scalar> 
400
(
0.734673
0.712425
0.691347
0.670898
0.650825
0.631001
0.611366
0.591896
0.572587
0.553451
0.534506
0.515774
0.49728
0.479052
0.461116
0.443496
0.426218
0.409302
0.392768
0.376634
0.360914
0.345621
0.330765
0.316354
0.302392
0.288884
0.275829
0.263229
0.251079
0.239378
0.228118
0.217295
0.2069
0.196926
0.187362
0.1782
0.169429
0.161037
0.153015
0.14535
0.138031
0.131047
0.124384
0.118033
0.111981
0.106217
0.100729
0.0955065
0.0905384
0.0858139
0.0813228
0.0770549
0.0730003
0.0691495
0.0654933
0.0620227
0.0587291
0.0556042
0.05264
0.0498289
0.0471635
0.0446367
0.0422416
0.0399719
0.0378213
0.0357838
0.0338538
0.0320258
0.0302947
0.0286556
0.0271036
0.0256344
0.0242437
0.0229273
0.0216815
0.0205025
0.0193869
0.0183313
0.0173326
0.0163878
0.015494
0.0146485
0.0138487
0.0130923
0.0123769
0.0117003
0.0110604
0.0104553
0.00988312
0.00934207
0.00883048
0.00834677
0.00788942
0.00745702
0.00704822
0.00666174
0.00629637
0.00595096
0.00562444
0.00531577
0.00502399
0.00474818
0.00448746
0.00424103
0.00400809
0.00378792
0.00357981
0.00338311
0.0031972
0.00302148
0.0028554
0.00269844
0.00255008
0.00240987
0.00227736
0.00215212
0.00203376
0.0019219
0.00181618
0.00171627
0.00162185
0.00153262
0.00144829
0.0013686
0.00129328
0.00122211
0.00115485
0.00109128
0.00103121
0.000974448
0.000920804
0.000870111
0.000822205
0.000776934
0.000734154
0.000693727
0.000655523
0.000619422
0.000585307
0.000553069
0.000522605
0.000493817
0.000466614
0.000440907
0.000416616
0.000393661
0.00037197
0.000351473
0.000332104
0.000313801
0.000296506
0.000280163
0.00026472
0.000250127
0.000236338
0.000223307
0.000210995
0.00019936
0.000188367
0.000177978
0.000168162
0.000158887
0.000150122
0.00014184
0.000134015
0.00012662
0.000119633
0.000113031
0.000106793
0.000100898
9.53282e-05
9.00654e-05
8.50925e-05
8.03938e-05
7.59541e-05
7.1759e-05
6.77952e-05
6.405e-05
6.05112e-05
5.71676e-05
5.40083e-05
5.10232e-05
4.82027e-05
4.55378e-05
4.30199e-05
4.06409e-05
3.83931e-05
3.62694e-05
3.42628e-05
3.2367e-05
3.05757e-05
2.88833e-05
2.72844e-05
2.57737e-05
2.43464e-05
2.29979e-05
2.17239e-05
2.05203e-05
1.93831e-05
1.83087e-05
1.72937e-05
1.63348e-05
1.54289e-05
1.4573e-05
1.37644e-05
1.30006e-05
1.22789e-05
1.15972e-05
1.09532e-05
1.03448e-05
9.77006e-06
9.22713e-06
8.71424e-06
8.22974e-06
7.77205e-06
7.33972e-06
6.93132e-06
6.54554e-06
6.18114e-06
5.83692e-06
5.51179e-06
5.20467e-06
4.91458e-06
4.64058e-06
4.38178e-06
4.13734e-06
3.90645e-06
3.68839e-06
3.48243e-06
3.2879e-06
3.10418e-06
2.93067e-06
2.7668e-06
2.61204e-06
2.46588e-06
2.32785e-06
2.1975e-06
2.0744e-06
1.95815e-06
1.84837e-06
1.74471e-06
1.64682e-06
1.55439e-06
1.46711e-06
1.3847e-06
1.30688e-06
1.23341e-06
1.16403e-06
1.09853e-06
1.03669e-06
9.783e-07
9.23176e-07
8.71133e-07
8.22001e-07
7.75618e-07
7.31832e-07
6.90497e-07
6.51477e-07
6.14644e-07
5.79876e-07
5.47058e-07
5.16081e-07
4.86842e-07
4.59246e-07
4.332e-07
4.08618e-07
3.85417e-07
3.63522e-07
3.42859e-07
3.2336e-07
3.04959e-07
2.87595e-07
2.7121e-07
2.55749e-07
2.41161e-07
2.27397e-07
2.14411e-07
2.02158e-07
1.90598e-07
1.79693e-07
1.69405e-07
1.597e-07
1.50545e-07
1.41909e-07
1.33763e-07
1.26079e-07
1.18832e-07
1.11997e-07
1.05551e-07
9.94713e-08
9.3738e-08
8.83313e-08
8.32329e-08
7.84253e-08
7.38922e-08
6.96179e-08
6.5588e-08
6.17885e-08
5.82065e-08
5.48296e-08
5.16462e-08
4.86454e-08
4.58168e-08
4.31506e-08
4.06376e-08
3.82691e-08
3.60369e-08
3.39332e-08
3.19507e-08
3.00826e-08
2.83223e-08
2.66636e-08
2.51008e-08
2.36284e-08
2.22412e-08
2.09344e-08
1.97033e-08
1.85436e-08
1.74513e-08
1.64225e-08
1.54534e-08
1.45408e-08
1.36813e-08
1.2872e-08
1.21098e-08
1.13922e-08
1.07165e-08
1.00803e-08
9.48134e-09
8.91748e-09
8.3867e-09
7.88706e-09
7.41678e-09
6.97414e-09
6.55756e-09
6.16551e-09
5.79658e-09
5.44942e-09
5.12277e-09
4.81544e-09
4.52629e-09
4.25428e-09
3.9984e-09
3.75771e-09
3.53133e-09
3.31842e-09
3.11819e-09
2.9299e-09
2.75285e-09
2.58639e-09
2.4299e-09
2.28278e-09
2.1445e-09
2.01453e-09
1.89238e-09
1.7776e-09
1.66975e-09
1.56844e-09
1.47326e-09
1.38387e-09
1.29992e-09
1.2211e-09
1.1471e-09
1.07765e-09
1.01247e-09
9.51324e-10
8.93968e-10
8.40184e-10
7.89765e-10
7.42516e-10
6.98256e-10
6.56812e-10
6.18025e-10
5.81742e-10
5.47823e-10
5.16136e-10
4.86557e-10
4.5897e-10
4.33267e-10
4.09347e-10
3.87116e-10
3.66487e-10
3.47378e-10
3.29714e-10
3.13425e-10
2.98447e-10
2.8472e-10
2.72189e-10
2.60806e-10
2.50524e-10
2.41302e-10
2.33105e-10
2.25899e-10
2.19656e-10
2.1435e-10
2.09961e-10
2.0647e-10
2.03864e-10
2.02133e-10
2.01269e-10
)
;
    }
    Wall
    {
        type            calculated;
        value           nonuniform List<scalar> 
400
(
0.734673
0.712424
0.691347
0.670899
0.650825
0.631001
0.611366
0.591895
0.572587
0.553451
0.534506
0.515774
0.497281
0.479053
0.461117
0.443498
0.426219
0.409304
0.39277
0.376636
0.360917
0.345624
0.330769
0.316358
0.302396
0.288888
0.275834
0.263233
0.251084
0.239383
0.228123
0.2173
0.206905
0.196931
0.187367
0.178205
0.169434
0.161042
0.15302
0.145355
0.138036
0.131051
0.124389
0.118038
0.111986
0.106221
0.100733
0.0955107
0.0905424
0.0858179
0.0813267
0.0770586
0.0730039
0.069153
0.0654966
0.0620258
0.0587321
0.0556071
0.0526428
0.0498316
0.0471661
0.0446391
0.042244
0.0399742
0.0378234
0.0357859
0.0338558
0.0320277
0.0302965
0.0286572
0.0271052
0.0256359
0.0242451
0.0229287
0.0216828
0.0205037
0.0193881
0.0183324
0.0173336
0.0163887
0.0154949
0.0146493
0.0138495
0.013093
0.0123776
0.0117009
0.011061
0.0104559
0.00988367
0.00934259
0.00883097
0.00834722
0.00788985
0.00745742
0.00704859
0.00666209
0.00629669
0.00595126
0.00562472
0.00531603
0.00502423
0.00474841
0.00448768
0.00424123
0.00400828
0.00378809
0.00357997
0.00338326
0.00319734
0.00302161
0.00285552
0.00269855
0.00255018
0.00240997
0.00227745
0.0021522
0.00203383
0.00192197
0.00181624
0.00171633
0.00162191
0.00153267
0.00144834
0.00136864
0.00129332
0.00122214
0.00115488
0.00109131
0.00103124
0.000974475
0.000920828
0.000870133
0.000822225
0.000776953
0.000734171
0.000693742
0.000655538
0.000619435
0.000585319
0.00055308
0.000522615
0.000493826
0.000466622
0.000440915
0.000416623
0.000393667
0.000371976
0.000351478
0.000332108
0.000313805
0.00029651
0.000280167
0.000264723
0.00025013
0.00023634
0.00022331
0.000210997
0.000199362
0.000188369
0.00017798
0.000168164
0.000158888
0.000150123
0.000141841
0.000134016
0.000126621
0.000119634
0.000113032
0.000106793
0.000100899
9.53288e-05
9.00659e-05
8.5093e-05
8.03942e-05
7.59544e-05
7.17594e-05
6.77955e-05
6.40502e-05
6.05114e-05
5.71678e-05
5.40085e-05
5.10234e-05
4.82029e-05
4.5538e-05
4.30201e-05
4.0641e-05
3.83932e-05
3.62695e-05
3.42629e-05
3.2367e-05
3.05758e-05
2.88834e-05
2.72844e-05
2.57737e-05
2.43465e-05
2.2998e-05
2.17239e-05
2.05203e-05
1.93831e-05
1.83087e-05
1.72937e-05
1.63348e-05
1.54289e-05
1.4573e-05
1.37644e-05
1.30006e-05
1.22789e-05
1.15972e-05
1.09532e-05
1.03448e-05
9.77007e-06
9.22713e-06
8.71424e-06
8.22974e-06
7.77206e-06
7.33972e-06
6.93132e-06
6.54555e-06
6.18114e-06
5.83693e-06
5.51179e-06
5.20467e-06
4.91459e-06
4.64059e-06
4.38178e-06
4.13734e-06
3.90646e-06
3.68839e-06
3.48243e-06
3.28791e-06
3.10419e-06
2.93067e-06
2.7668e-06
2.61204e-06
2.46588e-06
2.32785e-06
2.1975e-06
2.0744e-06
1.95815e-06
1.84838e-06
1.74471e-06
1.64683e-06
1.55439e-06
1.46711e-06
1.3847e-06
1.30688e-06
1.23341e-06
1.16403e-06
1.09853e-06
1.03669e-06
9.78301e-07
9.23177e-07
8.71134e-07
8.22002e-07
7.7562e-07
7.31833e-07
6.90498e-07
6.51478e-07
6.14645e-07
5.79877e-07
5.47059e-07
5.16082e-07
4.86843e-07
4.59247e-07
4.33201e-07
4.08618e-07
3.85418e-07
3.63523e-07
3.4286e-07
3.23361e-07
3.0496e-07
2.87596e-07
2.71211e-07
2.5575e-07
2.41162e-07
2.27398e-07
2.14411e-07
2.02159e-07
1.90599e-07
1.79694e-07
1.69405e-07
1.597e-07
1.50545e-07
1.41909e-07
1.33763e-07
1.2608e-07
1.18833e-07
1.11998e-07
1.05551e-07
9.94717e-08
9.37383e-08
8.83317e-08
8.32332e-08
7.84256e-08
7.38924e-08
6.96182e-08
6.55883e-08
6.17888e-08
5.82068e-08
5.48299e-08
5.16465e-08
4.86456e-08
4.5817e-08
4.31508e-08
4.06378e-08
3.82692e-08
3.6037e-08
3.39333e-08
3.19509e-08
3.00827e-08
2.83224e-08
2.66638e-08
2.51009e-08
2.36285e-08
2.22413e-08
2.09345e-08
1.97034e-08
1.85438e-08
1.74514e-08
1.64226e-08
1.54535e-08
1.45409e-08
1.36814e-08
1.28721e-08
1.21099e-08
1.13923e-08
1.07165e-08
1.00803e-08
9.4814e-09
8.91755e-09
8.38675e-09
7.88712e-09
7.41683e-09
6.97419e-09
6.55761e-09
6.16556e-09
5.79663e-09
5.44947e-09
5.12281e-09
4.81548e-09
4.52633e-09
4.25432e-09
3.99843e-09
3.75774e-09
3.53136e-09
3.31845e-09
3.11821e-09
2.92993e-09
2.75288e-09
2.58642e-09
2.42992e-09
2.2828e-09
2.14452e-09
2.01455e-09
1.8924e-09
1.77762e-09
1.66977e-09
1.56845e-09
1.47328e-09
1.38388e-09
1.29994e-09
1.22111e-09
1.14712e-09
1.07766e-09
1.01248e-09
9.51335e-10
8.93978e-10
8.40193e-10
7.89774e-10
7.42525e-10
6.98264e-10
6.5682e-10
6.18032e-10
5.81749e-10
5.4783e-10
5.16142e-10
4.86563e-10
4.58975e-10
4.33272e-10
4.09352e-10
3.87121e-10
3.66492e-10
3.47383e-10
3.29718e-10
3.13429e-10
2.98451e-10
2.84723e-10
2.72193e-10
2.60809e-10
2.50527e-10
2.41306e-10
2.33108e-10
2.25902e-10
2.19659e-10
2.14353e-10
2.09964e-10
2.06473e-10
2.03867e-10
2.02135e-10
2.0127e-10
)
;
    }
}


// ************************************************************************* //
