/*--------------------------------*- C++ -*----------------------------------*\
  =========                 |
  \\      /  F ield         | OpenFOAM: The Open Source CFD Toolbox
   \\    /   O peration     | Website:  https://openfoam.org
    \\  /    A nd           | Version:  10
     \\/     M anipulation  |
\*---------------------------------------------------------------------------*/
FoamFile
{
    format      ascii;
    class       volScalarField;
    location    "1";
    object      p;
}
// * * * * * * * * * * * * * * * * * * * * * * * * * * * * * * * * * * * * * //

dimensions      [1 -1 -2 0 0 0 0];

internalField   nonuniform List<scalar> 
5250
(
1
1.00001
1.00003
1.00006
1.00016
1.00038
1.00102
1.00235
1.00632
1.01456
1.03877
1.09333
1.24672
1.65908
2.90477
6.77411
12.7011
11.689
11.3248
11.4606
11.7642
11.9845
12.1136
12.2049
12.2732
1
1.00001
1.00002
1.00006
1.00016
1.00039
1.00098
1.00238
1.0061
1.01458
1.03777
1.09245
1.24186
1.64715
2.86516
6.64563
12.6925
11.6925
11.3211
11.4554
11.7565
11.9745
12.1035
12.1963
12.266
1
1.00001
1.00002
1.00006
1.00015
1.00038
1.00095
1.00232
1.00593
1.0142
1.03663
1.08964
1.23362
1.62288
2.78477
6.37217
12.6571
11.69
11.3026
11.429
11.7186
11.9293
12.0548
12.1468
12.2167
1
1.00001
1.00002
1.00006
1.00015
1.00037
1.00092
1.00224
1.00571
1.01368
1.03523
1.08603
1.22335
1.592
2.68023
5.99668
12.559
11.6685
11.266
11.3786
11.646
11.8468
11.9671
12.0566
12.1264
1
1.00001
1.00002
1.00006
1.00014
1.00035
1.00088
1.00214
1.00546
1.01304
1.03361
1.08186
1.21222
1.56014
2.58186
5.67947
12.2953
11.5998
11.2093
11.304
11.5405
11.7305
11.8445
11.9297
11.9983
1
1.00001
1.00002
1.00005
1.00013
1.00033
1.00083
1.00201
1.00517
1.01224
1.0318
1.07691
1.19967
1.5243
2.47517
5.34339
11.8904
11.4647
11.1319
11.2026
11.3954
11.5743
11.68
11.7574
11.8238
1
1.00001
1.00002
1.00005
1.00012
1.00031
1.00078
1.00186
1.00484
1.01133
1.02973
1.07135
1.18574
1.48479
2.35949
4.97972
11.372
11.2837
11.0449
11.0759
11.2081
11.373
11.4623
11.5222
11.576
1
1.00001
1.00002
1.00004
1.00011
1.00028
1.00071
1.00169
1.00445
1.01031
1.02733
1.06507
1.16984
1.44091
2.23235
4.58626
10.693
11.1055
10.951
10.92
10.9878
11.1226
11.1797
11.2049
11.2233
1
1.00001
1.00002
1.00004
1.00011
1.00024
1.00066
1.00149
1.00404
1.0092
1.02471
1.05819
1.15259
1.39281
2.09291
4.16847
9.8337
10.9833
10.8326
10.7127
10.7438
10.8157
10.8123
10.7671
10.6738
1
1
1.00001
1.00004
1.00009
1.00022
1.00054
1.0014
1.00329
1.00868
1.02037
1.05331
1.13063
1.34569
1.94245
3.73022
8.7911
10.8848
10.7105
10.4772
10.4625
10.4476
10.3625
10.1495
9.75522
1
1
1.00001
1.00003
1.00008
1.00019
1.00048
1.00113
1.00298
1.00692
1.01841
1.04352
1.11374
1.28896
1.7921
3.26815
7.57808
10.8077
10.5974
10.2459
10.154
10.0442
9.78063
9.16897
7.57244
1
1
1.00001
1.00002
1.00006
1.00016
1.00038
1.00097
1.00232
1.00605
1.01428
1.03731
1.09067
1.23721
1.63028
2.79386
6.20502
10.6646
10.4648
10.044
9.84297
9.63615
9.21162
8.37115
6.70351
1
1
1.00001
1.00002
1.00005
1.00012
1.00033
1.00075
1.002
1.00457
1.0123
1.02848
1.07498
1.1846
1.49263
2.35986
4.87287
10.2617
10.1975
9.87993
9.5438
9.23935
8.72369
7.85519
6.49579
1
1
1.00001
1.00002
1.00004
1.00011
1.00024
1.00066
1.00149
1.00403
1.00927
1.0245
1.05862
1.15173
1.39229
2.08152
4.08973
9.22117
9.84473
9.65599
9.26701
8.88663
8.35077
7.54255
6.45365
1
1
1.00001
1.00001
1.00003
1.00008
1.00021
1.00048
1.00129
1.00301
1.00782
1.01884
1.04783
1.11939
1.3105
1.84256
3.39511
7.65498
9.5485
9.41422
9.06075
8.60429
8.07013
7.3419
6.43476
1
1
1
1.00001
1.00002
1.00007
1.00015
1.0004
1.00094
1.00239
1.00593
1.01451
1.03682
1.09103
1.23524
1.62563
2.75841
5.96774
9.31251
9.23468
8.92613
8.39812
7.85957
7.20494
6.42276
1
1
1
1.00001
1.00002
1.00005
1.00012
1.00029
1.00071
1.0018
1.0043
1.01113
1.02639
1.06813
1.16827
1.44365
2.20195
4.30844
8.7795
9.00921
8.78555
8.27715
7.70653
7.09748
6.40529
1
1
1
1.00001
1.00001
1.00003
1.00009
1.00021
1.00056
1.00128
1.00339
1.00791
1.02049
1.04959
1.12664
1.32504
1.87904
3.45561
7.50356
8.70325
8.56035
8.16945
7.59035
7.01324
6.394
1
1
1
1
1.00001
1.00003
1.00006
1.00016
1.00039
1.00095
1.00241
1.00576
1.01493
1.03568
1.09193
1.23115
1.61879
2.70837
5.69669
8.37979
8.33533
8.08141
7.54226
6.96077
6.38292
1
1
1
1
1.00001
1.00002
1.00004
1.00011
1.00026
1.0007
1.00158
1.00427
1.00976
1.02576
1.06116
1.15791
1.40332
2.08286
3.89145
7.71073
8.13714
7.96656
7.53376
6.94341
6.38398
1
1
1
1
1
1.00001
1.00003
1.00008
1.00019
1.00046
1.00118
1.00275
1.00728
1.01685
1.04418
1.10651
1.27834
1.73308
3.00891
6.26622
7.87118
7.79134
7.50792
6.95093
6.39149
1
1
1
1
1
1.00001
1.00002
1.00005
1.00012
1.00032
1.00074
1.00196
1.00448
1.01194
1.02757
1.07251
1.17678
1.46823
2.2483
4.31303
7.37884
7.59737
7.43408
7.00015
6.41636
1
1
1
1
1
1.00001
1.00001
1.00003
1.00009
1.0002
1.00053
1.0012
1.00322
1.0073
1.01958
1.04544
1.11872
1.29698
1.79198
3.11126
6.26641
7.37515
7.29278
7.00778
6.47243
1
1
1
1
1
1
1.00001
1.00002
1.00005
1.00013
1.00033
1.00082
1.00195
1.00502
1.01178
1.03062
1.07333
1.18942
1.4869
2.30204
4.39107
6.91671
7.10104
6.96454
6.59817
1
1
1
1
1
1
1.00001
1.00001
1.00004
1.00008
1.00022
1.00049
1.00131
1.00297
1.00789
1.01833
1.04739
1.11511
1.29766
1.77232
3.02279
5.89771
6.89514
6.8489
6.63189
1
1
1
1
1
1
1
1.00001
1.00002
1.00005
1.00013
1.00032
1.00075
1.00195
1.00451
1.01186
1.02759
1.07155
1.17496
1.45639
2.18958
4.04237
6.42666
6.70113
6.59222
1
1
1
1
1
1
1
1.00001
1.00001
1.00003
1.00008
1.00018
1.00049
1.0011
1.00295
1.00672
1.01774
1.04163
1.10675
1.2668
1.69341
2.7918
5.35089
6.46994
6.46018
1
1
1
1
1
1
1
1
1.00001
1.00002
1.00005
1.00011
1.00028
1.00066
1.00171
1.00392
1.01034
1.0237
1.06195
1.14796
1.38321
1.97051
3.41062
5.91847
6.32514
1
1
1
1
1
1
1
1
1
1.00001
1.00003
1.00006
1.00017
1.00038
1.00101
1.0023
1.00611
1.0139
1.0367
1.0863
1.22385
1.56631
2.46445
4.62807
6.00949
1
1
1
1
1
1
1
1
1
1.00001
1.00001
1.00004
1.00009
1.00023
1.00053
1.0014
1.00323
1.00835
1.01974
1.04959
1.12141
1.30621
1.77318
2.896
5.25494
1
1
1
1
1
1
1
1
1
1
1.00001
1.00002
1.00005
1.00013
1.00029
1.00078
1.00175
1.00467
1.01054
1.02801
1.06512
1.16867
1.41886
2.06935
3.63133
1
1
1
1
1
1
1
1
1
1
1
1.00001
1.00003
1.00007
1.00016
1.00042
1.00097
1.00253
1.00592
1.01501
1.03636
1.0904
1.22656
1.57147
2.43335
1
1
1
1
1
1
1
1
1
1
1
1.00001
1.00001
1.00004
1.00009
1.00022
1.00052
1.00135
1.00308
1.00814
1.01852
1.04847
1.11406
1.29154
1.71592
1
1
1
1
1
1
1
1
1
1
1
1
1.00001
1.00002
1.00005
1.00011
1.00028
1.00067
1.00165
1.00406
1.00968
1.02453
1.05823
1.14788
1.36379
1
1
1
1
1
1
1
1
1
1
1
1
1
1.00001
1.00002
1.00006
1.00014
1.00034
1.00088
1.00199
1.00527
1.0119
1.03159
1.07302
1.18961
1
1
1
1
1
1
1
1
1
1
1
1
1
1
1.00001
1.00003
1.00007
1.00017
1.00044
1.00101
1.00266
1.00599
1.0159
1.03631
1.09452
1
1
1
1
1
1
1
1
1
1
1
1
1
1
1.00001
1.00001
1.00004
1.00008
1.00022
1.0005
1.00128
1.00304
1.00746
1.01831
1.04417
1
1
1
1
1
1
1
1
1
1
1
1
1
1
1
1.00001
1.00002
1.00004
1.0001
1.00024
1.00061
1.00147
1.00352
1.0088
1.02054
1
1
1
1
1
1
1
1
1
1
1
1
1
1
1
1
1.00001
1.00002
1.00005
1.00012
1.00028
1.0007
1.00166
1.00403
1.00996
1
1
1
1
1
1
1
1
1
1
1
1
1
1
1
1
1
1.00001
1.00002
1.00006
1.00013
1.00033
1.00074
1.00195
1.00439
1
1
1
1
1
1
1
1
1
1
1
1
1
1
1
1
1
1
1.00001
1.00003
1.00006
1.00015
1.00034
1.00089
1.00201
1
1
1
1
1
1
1
1
1
1
1
1
1
1
1
1
1
1
1
1.00001
1.00003
1.00007
1.00015
1.00039
1.00089
1
1
1
1
1
1
1
1
1
1
1
1
1
1
1
1
1
1
1
1
1.00001
1.00003
1.00007
1.00016
1.00042
1
1
1
1
1
1
1
1
1
1
1
1
1
1
1
1
1
1
1
1
1
1.00001
1.00003
1.00007
1.00018
1
1
1
1
1
1
1
1
1
1
1
1
1
1
1
1
1
1
1
1
1
1.00001
1.00001
1.00003
1.00007
1
1
1
1
1
1
1
1
1
1
1
1
1
1
1
1
1
1
1
1
1
1
1.00001
1.00001
1.00003
1
1
1
1
1
1
1
1
1
1
1
1
1
1
1
1
1
1
1
1
1
1
1
1.00001
1.00001
1
1
1
1
1
1
1
1
1
1
1
1
1
1
1
1
1
1
1
1
1
1
1
1
1
1
1
1
1
1
1
1
1
1
1
1
1
1
1
1
1
1
1
1
1
1
1
1
1
1
1
1
1
1
1
1
1
1
1
1
1
1
1
1
1
1
1
1
1
1
1
1
1
1
1
3.04942
1.54041
1.04011
0.920795
0.940788
1.00687
1.14647
1.26402
1.30101
1.29783
1.28776
1.26723
1.25354
1.24954
1.24849
1.24678
1.2433
1.23712
1.22926
1.22055
1.21159
1.20269
1.19384
1.18488
1.17569
1.16616
1.15626
1.14602
1.13547
1.12469
1.11376
1.10277
1.09176
1.08078
1.06988
1.05912
1.04852
1.03807
1.0278
1.01776
1.00797
0.998403
0.98907
0.979989
0.971172
0.962618
0.954326
0.946303
0.938549
0.931053
0.923821
0.916844
0.910141
0.903708
0.89755
0.891695
0.886122
0.880854
0.875888
0.871218
0.866855
0.862785
0.859015
0.855541
0.852341
0.849437
0.846811
0.844491
0.842452
0.840729
0.839363
0.838267
0.837515
0.836986
0.836855
0.836869
0.83696
0.837229
0.837825
0.838888
0.840058
0.841375
0.842849
0.844463
0.846275
0.848023
0.849951
0.851947
0.854203
0.856431
0.858381
0.861275
0.863008
0.866572
0.868252
0.87207
0.874092
0.878719
0.882722
0.89173
3.76918
2.35221
1.74323
1.47835
1.34748
1.25175
1.20476
1.20707
1.2172
1.2396
1.27118
1.28034
1.27848
1.27295
1.26158
1.25034
1.24128
1.23398
1.2274
1.22063
1.21317
1.20489
1.19588
1.18644
1.17672
1.16676
1.1566
1.14622
1.13563
1.12483
1.11391
1.10293
1.09192
1.08095
1.07004
1.05924
1.04865
1.03821
1.02789
1.01786
1.00808
0.998587
0.989233
0.980158
0.971354
0.962811
0.954518
0.946487
0.938726
0.931201
0.923941
0.916941
0.910226
0.90377
0.897556
0.891712
0.886068
0.880849
0.875836
0.871124
0.866735
0.862608
0.858808
0.855336
0.852218
0.849431
0.846878
0.844671
0.842643
0.840966
0.839628
0.838505
0.837651
0.837096
0.836965
0.836979
0.837067
0.83733
0.837905
0.838977
0.840141
0.841474
0.842878
0.844459
0.846214
0.848015
0.84993
0.851995
0.854167
0.856446
0.858659
0.861088
0.863533
0.866281
0.868572
0.871897
0.874152
0.878538
0.882006
0.889629
4.59419
3.27289
2.43933
1.90596
1.56172
1.34399
1.21324
1.16817
1.17138
1.18337
1.20978
1.24017
1.25934
1.2592
1.25746
1.25273
1.243
1.23308
1.22452
1.21675
1.20892
1.20082
1.19235
1.18347
1.1742
1.16453
1.15451
1.1442
1.13366
1.12293
1.11209
1.10128
1.09047
1.07959
1.06877
1.05813
1.04762
1.03726
1.02702
1.017
1.00727
0.99783
0.988567
0.979536
0.970777
0.962279
0.954014
0.946013
0.938233
0.930703
0.923455
0.916453
0.909719
0.90326
0.897081
0.891209
0.885636
0.880364
0.875411
0.870752
0.866388
0.862397
0.858634
0.855066
0.851738
0.848737
0.846318
0.843936
0.842028
0.84024
0.838937
0.837849
0.837067
0.836513
0.836394
0.836413
0.836511
0.836783
0.837403
0.838573
0.839628
0.841134
0.842452
0.844283
0.845885
0.847888
0.849832
0.851934
0.854073
0.856302
0.85862
0.860999
0.863519
0.866206
0.86859
0.871842
0.874226
0.878345
0.881485
0.888025
5.04343
3.83732
2.94865
2.33214
1.91819
1.63684
1.45438
1.33558
1.26001
1.22275
1.21919
1.22197
1.22969
1.24524
1.25405
1.25387
1.25207
1.24736
1.23748
1.22572
1.2148
1.20464
1.19512
1.18588
1.17649
1.16672
1.15652
1.146
1.13525
1.12437
1.11346
1.10257
1.09169
1.08083
1.07003
1.05935
1.04882
1.0384
1.0281
1.01807
1.00832
0.998757
0.989415
0.980383
0.97157
0.963026
0.954764
0.946685
0.938806
0.931309
0.92403
0.916979
0.910191
0.903674
0.89746
0.891521
0.885908
0.880599
0.875583
0.87085
0.866471
0.862294
0.858486
0.855082
0.851946
0.849098
0.846542
0.844253
0.842314
0.84057
0.839275
0.838163
0.837319
0.836879
0.836732
0.836746
0.836831
0.837073
0.837641
0.838839
0.839892
0.841422
0.842673
0.844556
0.84604
0.848169
0.849947
0.852133
0.854252
0.856516
0.858872
0.861299
0.863777
0.866464
0.868991
0.8721
0.874457
0.878443
0.881269
0.887048
5.31515
4.25928
3.40294
2.75627
2.28367
1.93931
1.68759
1.50296
1.37337
1.28215
1.22812
1.20576
1.2061
1.20856
1.21455
1.22476
1.229
1.2287
1.22709
1.22289
1.21414
1.20336
1.19267
1.18224
1.172
1.16181
1.15161
1.14136
1.13102
1.12059
1.11009
1.09953
1.08893
1.07831
1.06769
1.05718
1.04683
1.03656
1.02639
1.0164
1.00672
0.997242
0.987991
0.978993
0.970213
0.961657
0.953373
0.945329
0.937559
0.930024
0.922755
0.915746
0.908996
0.902526
0.896339
0.890442
0.884849
0.879555
0.874565
0.869896
0.865512
0.861461
0.857731
0.854207
0.850972
0.848066
0.845457
0.843177
0.841207
0.839509
0.838169
0.837132
0.83633
0.835867
0.835781
0.835809
0.835929
0.836238
0.83691
0.838051
0.839156
0.840746
0.842009
0.844081
0.845541
0.84783
0.849557
0.851967
0.854018
0.8565
0.858822
0.861283
0.863786
0.866596
0.869057
0.872353
0.874614
0.878706
0.881312
0.88673
5.49633
4.5817
3.78595
3.14121
2.63797
2.25144
1.95621
1.73208
1.56282
1.43583
1.34444
1.27796
1.2379
1.21622
1.21076
1.21159
1.21371
1.21839
1.22042
1.21988
1.21779
1.21287
1.20282
1.19059
1.17805
1.16595
1.15448
1.14356
1.13299
1.12256
1.11214
1.10168
1.09115
1.08054
1.0699
1.05938
1.04902
1.03867
1.0284
1.01835
1.00857
0.998991
0.989653
0.980523
0.971622
0.962997
0.954624
0.946513
0.938673
0.931109
0.923814
0.916757
0.90997
0.903476
0.897263
0.891333
0.885697
0.880354
0.875317
0.870576
0.866134
0.862002
0.858144
0.854628
0.851434
0.848545
0.845941
0.84365
0.841671
0.839965
0.8386
0.837568
0.836751
0.836272
0.8362
0.836225
0.836338
0.836653
0.837355
0.838481
0.839721
0.841243
0.842588
0.844694
0.846177
0.84861
0.850348
0.852907
0.854972
0.857572
0.859861
0.862565
0.864984
0.868001
0.870287
0.873806
0.875945
0.880047
0.88246
0.88756
5.61828
4.82178
4.09453
3.47289
2.96196
2.55151
2.22512
1.96707
1.76291
1.60168
1.47519
1.37735
1.304
1.25186
1.22066
1.20463
1.19786
1.19754
1.19779
1.19835
1.1981
1.19689
1.19374
1.187
1.17627
1.16439
1.15243
1.14081
1.1296
1.11875
1.10817
1.09778
1.0875
1.07722
1.06693
1.05674
1.04666
1.0365
1.02634
1.01642
1.00671
0.997191
0.987918
0.978843
0.969933
0.961324
0.953068
0.944966
0.937203
0.929665
0.922384
0.915364
0.908539
0.902117
0.895953
0.890052
0.884429
0.879091
0.874048
0.869305
0.86486
0.860719
0.856896
0.85337
0.850154
0.847265
0.844661
0.842366
0.840391
0.83869
0.837339
0.836332
0.835528
0.83511
0.83508
0.835124
0.83529
0.835683
0.836503
0.837822
0.839206
0.840894
0.842633
0.844739
0.846605
0.849332
0.851368
0.854338
0.856479
0.859484
0.861895
0.86512
0.867479
0.871005
0.873133
0.876979
0.879007
0.88313
0.88541
0.890453
5.7093
5.0069
4.34384
3.75482
3.25106
2.83096
2.48506
2.20272
1.97324
1.78688
1.63634
1.5153
1.41848
1.34334
1.28518
1.24193
1.21469
1.19848
1.19055
1.18728
1.18618
1.18571
1.18468
1.18234
1.17752
1.16874
1.1581
1.14647
1.13449
1.12261
1.11112
1.10009
1.08944
1.07906
1.06885
1.05876
1.04871
1.03866
1.02866
1.01875
1.00898
0.999428
0.990085
0.980924
0.972031
0.963454
0.955057
0.946895
0.939154
0.931648
0.924289
0.917066
0.910267
0.903792
0.897561
0.891592
0.885898
0.880489
0.875375
0.87056
0.866041
0.861829
0.857926
0.854328
0.851045
0.848092
0.845449
0.843088
0.841064
0.839333
0.83797
0.83696
0.836175
0.835846
0.835856
0.835956
0.836244
0.836863
0.838101
0.839729
0.841689
0.843974
0.846375
0.849163
0.852036
0.855254
0.858216
0.861801
0.864783
0.869015
0.871774
0.876057
0.878434
0.882626
0.88459
0.888546
0.89027
0.893896
0.895805
0.900541
5.77073
5.14619
4.54389
3.99231
3.50508
3.08576
2.73057
2.43265
2.18418
1.97772
1.80632
1.66445
1.54698
1.4504
1.37141
1.30887
1.25958
1.22255
1.19873
1.18386
1.17524
1.17074
1.16791
1.16576
1.16307
1.15844
1.15169
1.14296
1.13271
1.12155
1.1101
1.09873
1.08765
1.07689
1.06645
1.05628
1.0463
1.03646
1.02672
1.01707
1.00753
0.998149
0.988916
0.979836
0.971001
0.962453
0.954082
0.94591
0.938175
0.930747
0.923379
0.916132
0.909281
0.90279
0.896523
0.890509
0.884765
0.879306
0.874143
0.869285
0.864733
0.860497
0.856573
0.852958
0.84968
0.846707
0.84403
0.841727
0.839767
0.838111
0.836849
0.835955
0.835383
0.83543
0.83563
0.836112
0.837106
0.838846
0.841192
0.844129
0.847583
0.851668
0.856265
0.861433
0.866925
0.872967
0.878905
0.885329
0.890814
0.897027
0.901323
0.90766
0.910422
0.915306
0.916883
0.920282
0.921194
0.923332
0.924128
0.927985
5.82145
5.25602
4.70482
4.19026
3.72488
3.3141
2.95741
2.65119
2.38995
2.16827
1.98011
1.821
1.68648
1.57335
1.47844
1.39972
1.3345
1.28245
1.24028
1.20785
1.1855
1.17053
1.16111
1.15537
1.15148
1.14816
1.14432
1.13911
1.13224
1.12372
1.11387
1.10306
1.09179
1.08048
1.06942
1.05871
1.0484
1.03842
1.02869
1.01915
1.00974
1.00047
0.991311
0.982262
0.973402
0.964778
0.956326
0.948053
0.94017
0.932654
0.925203
0.917921
0.910995
0.904443
0.898135
0.892088
0.886306
0.880803
0.875588
0.870672
0.866052
0.861742
0.85775
0.854069
0.850736
0.847744
0.845066
0.84281
0.840964
0.839487
0.838509
0.838324
0.838558
0.839231
0.84068
0.843376
0.847249
0.852456
0.859067
0.867186
0.876677
0.887495
0.899306
0.912032
0.924975
0.938309
0.950782
0.963242
0.97345
0.983629
0.99003
0.998529
1.00123
1.00556
1.00551
1.00542
1.0041
1.00181
0.996677
0.999877
5.85913
5.34049
4.83665
4.35818
3.9165
3.51806
3.16469
2.85506
2.58581
2.35308
2.15239
1.97985
1.83155
1.70446
1.59538
1.50232
1.42295
1.35621
1.30017
1.25453
1.21744
1.18866
1.16787
1.15342
1.14355
1.13683
1.13164
1.12702
1.12209
1.11608
1.10885
1.10022
1.09061
1.08027
1.06954
1.05867
1.04817
1.03797
1.02803
1.01836
1.00892
0.999679
0.990602
0.981662
0.972884
0.96429
0.955853
0.947565
0.939568
0.931952
0.924467
0.917152
0.910203
0.903622
0.897316
0.891279
0.885503
0.879991
0.874763
0.869822
0.865165
0.860808
0.856777
0.853081
0.849766
0.846855
0.844384
0.842486
0.841201
0.841035
0.841548
0.843042
0.846184
0.851294
0.859087
0.869682
0.883325
0.90015
0.920011
0.942729
0.967729
0.994385
1.0218
1.04972
1.07634
1.10153
1.12364
1.144
1.15959
1.17379
1.18195
1.18959
1.19042
1.18967
1.18601
1.18108
1.17083
1.16123
1.14283
1.14943
5.90405
5.42153
4.95457
4.50653
4.08687
3.70184
3.35434
3.04457
2.7708
2.53041
2.32015
2.13682
1.97716
1.83835
1.71768
1.61295
1.52214
1.44374
1.37628
1.31876
1.27009
1.2298
1.19686
1.17076
1.15094
1.13664
1.12634
1.11892
1.11305
1.10785
1.10252
1.09661
1.08979
1.08155
1.07228
1.06239
1.05192
1.04132
1.03085
1.0207
1.01086
1.00137
0.992184
0.983261
0.974577
0.966097
0.957787
0.949634
0.941685
0.934032
0.926601
0.91932
0.912343
0.905699
0.899313
0.893186
0.887313
0.88171
0.876415
0.871423
0.866723
0.862351
0.85838
0.854875
0.851935
0.849782
0.848481
0.849021
0.850667
0.853995
0.860717
0.871616
0.887508
0.908847
0.93625
0.969382
1.00857
1.05318
1.1013
1.15263
1.20641
1.26001
1.30924
1.35257
1.38738
1.4163
1.43685
1.45327
1.46163
1.46689
1.46831
1.46704
1.46361
1.4589
1.44986
1.44097
1.42341
1.40974
1.38183
1.3932
5.96407
5.50042
5.06102
4.63964
4.24001
3.86828
3.52793
3.22018
2.94441
2.69906
2.48183
2.29011
2.12133
1.97287
1.84245
1.72788
1.62728
1.53904
1.46172
1.39421
1.33549
1.28484
1.24161
1.20522
1.17537
1.15126
1.1325
1.11836
1.10781
1.0998
1.09326
1.08751
1.08163
1.07547
1.06846
1.06049
1.05161
1.04203
1.03206
1.02191
1.01187
1.00206
0.992551
0.983367
0.97452
0.965977
0.957699
0.949702
0.941962
0.934463
0.927157
0.919998
0.912992
0.906214
0.899705
0.893415
0.887333
0.88162
0.876251
0.871236
0.866638
0.862462
0.859147
0.856729
0.856211
0.857397
0.860872
0.868135
0.88095
0.901241
0.93071
0.96948
1.01857
1.07819
1.14748
1.22806
1.31258
1.39069
1.4565
1.50717
1.54134
1.56117
1.5718
1.57654
1.57621
1.57395
1.57077
1.56578
1.56041
1.55462
1.54915
1.54371
1.53755
1.5324
1.52564
1.52055
1.51252
1.50781
1.49979
1.50462
6.06225
5.59301
5.16479
4.76117
4.37859
4.0195
3.68706
3.38295
3.10721
2.85904
2.63688
2.43878
2.26265
2.10627
1.96761
1.84468
1.73569
1.63904
1.55336
1.47745
1.41032
1.35113
1.29921
1.25405
1.21522
1.1822
1.15479
1.13242
1.11468
1.10088
1.09027
1.08202
1.07528
1.06932
1.06355
1.05728
1.05024
1.04239
1.03383
1.02474
1.01531
1.00574
0.996198
0.986835
0.977748
0.968991
0.960576
0.95246
0.944607
0.93703
0.929626
0.922355
0.915232
0.908301
0.901635
0.895314
0.889253
0.883579
0.878547
0.874019
0.870439
0.868191
0.869083
0.872211
0.878746
0.89224
0.915244
0.951378
1.00051
1.06624
1.14605
1.24712
1.36029
1.46046
1.54117
1.59204
1.61813
1.63002
1.63339
1.63146
1.62794
1.6223
1.61548
1.60876
1.60106
1.59401
1.58649
1.57926
1.57195
1.56554
1.55854
1.55308
1.54656
1.54118
1.53484
1.52982
1.52312
1.51877
1.51124
1.51224
6.17603
5.68999
5.26189
4.87109
4.50355
4.15705
3.83306
3.53368
3.25951
3.01031
2.78506
2.58233
2.40046
2.23763
2.09203
1.96195
1.84568
1.74176
1.64881
1.56566
1.49127
1.42479
1.36549
1.3128
1.26624
1.22545
1.1901
1.15988
1.13446
1.11355
1.09676
1.08342
1.07284
1.06435
1.05723
1.05101
1.045
1.03868
1.03176
1.02413
1.01587
1.00711
0.998031
0.988815
0.979626
0.970588
0.961786
0.953276
0.945061
0.937122
0.92948
0.922202
0.915161
0.90852
0.902201
0.896284
0.890716
0.886004
0.882385
0.880952
0.882771
0.888307
0.899755
0.921492
0.959878
1.0154
1.09231
1.19058
1.32069
1.45576
1.56564
1.63612
1.67013
1.68391
1.68667
1.68371
1.6775
1.66903
1.65943
1.64935
1.63915
1.62956
1.62001
1.61122
1.60235
1.59419
1.58576
1.57831
1.57029
1.56411
1.55641
1.55129
1.54423
1.53954
1.53312
1.5289
1.52216
1.51847
1.51104
1.51223
6.30008
5.80712
5.36866
4.97962
4.61965
4.28334
3.96826
3.67427
3.40266
3.15365
2.92666
2.72067
2.53436
2.36631
2.21493
2.07873
1.95619
1.8459
1.74658
1.65706
1.57632
1.5035
1.43783
1.37871
1.32564
1.2782
1.23607
1.19897
1.16664
1.13886
1.11532
1.09577
1.07985
1.06703
1.05667
1.0482
1.04105
1.03461
1.02834
1.02187
1.01495
1.00749
0.99957
0.991262
0.982695
0.974008
0.965332
0.956787
0.948458
0.940407
0.932689
0.925311
0.918453
0.91199
0.906059
0.901092
0.897609
0.89809
0.901665
0.909575
0.927767
0.963083
1.02016
1.10188
1.21147
1.36175
1.51833
1.64064
1.70557
1.73333
1.74346
1.74102
1.73454
1.72365
1.71044
1.69697
1.68393
1.67163
1.65975
1.64825
1.63672
1.62568
1.61453
1.60423
1.59381
1.58442
1.57475
1.56653
1.55779
1.55108
1.54311
1.5377
1.53089
1.52637
1.5204
1.51679
1.51076
1.50777
1.50179
1.50218
6.30688
5.95361
5.49218
5.09022
4.73349
4.40336
4.09414
3.80539
3.53722
3.28949
3.06189
2.85382
2.66426
2.49205
2.33591
2.19448
2.06648
1.95059
1.84561
1.75044
1.66408
1.58564
1.51439
1.44965
1.39094
1.33778
1.28984
1.2468
1.20843
1.17452
1.14482
1.11918
1.0973
1.07893
1.06375
1.05134
1.04113
1.03256
1.02515
1.01842
1.01195
1.00541
0.998586
0.991361
0.98377
0.975858
0.967717
0.959468
0.951231
0.943128
0.935303
0.927914
0.921336
0.915959
0.912575
0.914174
0.91983
0.932077
0.95826
1.00883
1.08791
1.19895
1.36002
1.54012
1.68934
1.76242
1.79459
1.80538
1.80107
1.7902
1.77546
1.7583
1.74121
1.72526
1.70991
1.69472
1.67928
1.66416
1.64894
1.63435
1.61987
1.60627
1.59291
1.58072
1.56871
1.55808
1.54745
1.53849
1.5293
1.522
1.51421
1.50837
1.50196
1.49755
1.4922
1.48899
1.484
1.48168
1.47763
1.47701
6.2606
6.05054
5.62555
5.20866
4.84527
4.51771
4.21402
3.93034
3.66578
3.41954
3.19184
2.98248
2.7906
2.61515
2.45506
2.30916
2.17634
2.05545
1.94539
1.84513
1.7537
1.67022
1.59395
1.52424
1.46052
1.40236
1.34935
1.3012
1.25762
1.21839
1.18334
1.15223
1.12486
1.10109
1.08064
1.06326
1.04868
1.03659
1.02647
1.01787
1.0103
1.0034
0.996802
0.990271
0.983562
0.976608
0.9694
0.961977
0.954477
0.947165
0.940338
0.935139
0.932306
0.93455
0.941757
0.95966
0.993739
1.06116
1.16512
1.31686
1.52059
1.70973
1.81143
1.85467
1.87159
1.86715
1.85537
1.83707
1.81553
1.79529
1.77589
1.75674
1.737
1.71725
1.69726
1.67762
1.65815
1.63954
1.62138
1.60434
1.58784
1.57268
1.55801
1.54483
1.53205
1.52084
1.50987
1.50053
1.49133
1.48374
1.47617
1.47017
1.46411
1.45964
1.45482
1.45157
1.44775
1.44491
1.44371
1.44093
6.12867
6.02785
5.77061
5.34455
4.96537
4.63355
4.33215
4.05155
3.78905
3.54476
3.31782
3.10769
2.91393
2.73576
2.5723
2.42253
2.28549
2.16017
2.04556
1.9407
1.84465
1.75659
1.67575
1.60151
1.53329
1.47063
1.41314
1.36048
1.31235
1.26852
1.22876
1.19287
1.16071
1.132
1.10662
1.0844
1.0651
1.0485
1.03435
1.02243
1.01232
1.00364
0.995951
0.988947
0.982352
0.975939
0.969598
0.963395
0.957816
0.953029
0.95272
0.95542
0.964326
0.986348
1.02975
1.11368
1.23891
1.44585
1.67221
1.84572
1.90886
1.93994
1.94085
1.93108
1.90965
1.88487
1.86044
1.83696
1.81338
1.78921
1.76433
1.73933
1.71446
1.69028
1.66668
1.6442
1.62255
1.6023
1.58291
1.56507
1.54799
1.5325
1.51765
1.5044
1.49166
1.48047
1.46971
1.46038
1.45147
1.44383
1.43658
1.43051
1.4248
1.42004
1.41583
1.412
1.4093
1.40593
1.40477
1.40214
5.94299
5.92916
5.80009
5.50658
5.11117
4.76191
4.45318
4.17198
3.90962
3.66566
3.43933
3.22895
3.03387
2.85365
2.68745
2.53441
2.39371
2.26447
2.14578
2.03676
1.93652
1.84426
1.75926
1.68086
1.60853
1.54179
1.48023
1.42351
1.37132
1.32341
1.27953
1.23947
1.20301
1.17004
1.1403
1.1136
1.08986
1.06888
1.0505
1.03449
1.02068
1.00889
0.998834
0.99017
0.982626
0.975981
0.970938
0.96746
0.968695
0.973126
0.985114
1.00981
1.06252
1.16432
1.31061
1.56346
1.8141
1.95046
2.00355
2.0218
2.0129
1.99311
1.96804
1.93868
1.91077
1.88307
1.85413
1.82428
1.794
1.76395
1.73439
1.70586
1.67836
1.65234
1.62752
1.60438
1.5824
1.56215
1.5429
1.52534
1.50862
1.49351
1.47908
1.46618
1.45384
1.44294
1.43252
1.4234
1.41475
1.40723
1.40022
1.39411
1.38861
1.38371
1.37963
1.37573
1.37294
1.36971
1.36839
1.36554
5.48016
5.80429
5.76062
5.60343
5.27516
4.90509
4.5808
4.2929
4.03052
3.7869
3.55979
3.34886
3.15209
2.96945
2.80067
2.64479
2.50091
2.36821
2.24587
2.13307
2.029
1.93289
1.84405
1.76184
1.68572
1.61522
1.54992
1.4895
1.43362
1.38201
1.33444
1.29066
1.25046
1.21364
1.18005
1.14947
1.12174
1.0967
1.07427
1.0543
1.03666
1.0212
1.00782
0.996502
0.987576
0.98143
0.982739
0.98779
1.00029
1.0277
1.08629
1.20118
1.36608
1.64991
1.92708
2.04033
2.09429
2.0985
2.0862
2.05974
2.02934
1.99778
1.96589
1.93278
1.89814
1.8627
1.82723
1.79247
1.7587
1.72633
1.69541
1.66627
1.63868
1.61295
1.58862
1.56614
1.54483
1.52528
1.50667
1.48973
1.47354
1.45891
1.4449
1.43233
1.42032
1.4096
1.39943
1.39041
1.38192
1.37445
1.36752
1.36142
1.35594
1.35103
1.3469
1.34296
1.34016
1.33681
1.33543
1.33247
4.39842
5.50914
5.65774
5.58718
5.40583
5.05211
4.71465
4.41603
4.14863
3.90352
3.67596
3.46417
3.26734
3.08418
2.91294
2.75394
2.60699
2.4712
2.3456
2.22941
2.12184
2.0222
1.92981
1.84407
1.76444
1.69047
1.62172
1.55786
1.49858
1.44358
1.39263
1.34547
1.3019
1.26169
1.22463
1.1906
1.15936
1.13079
1.10473
1.0811
1.05989
1.04105
1.02464
1.01187
1.0065
1.00942
1.02067
1.04803
1.10739
1.22303
1.40088
1.70217
2.00495
2.12064
2.17971
2.17587
2.15794
2.12822
2.09335
2.05881
2.02203
1.98302
1.94289
1.90259
1.86288
1.82433
1.78728
1.75199
1.71848
1.68687
1.65702
1.62907
1.60265
1.57807
1.55474
1.53315
1.51255
1.49362
1.47549
1.45891
1.443
1.42853
1.41467
1.40212
1.39017
1.3794
1.36922
1.36012
1.35159
1.34402
1.33705
1.33086
1.32535
1.32037
1.31623
1.31224
1.30943
1.30607
1.30466
1.30162
2.71541
4.78184
5.45478
5.49566
5.40799
5.19949
4.86023
4.54661
4.27009
4.02101
3.7921
3.57918
3.38092
3.19575
3.02346
2.86321
2.71297
2.57363
2.4448
2.32547
2.21476
2.11193
2.01629
1.9273
1.84442
1.76721
1.69525
1.62821
1.56575
1.50761
1.45352
1.40325
1.35658
1.31327
1.27314
1.23596
1.20162
1.16993
1.14079
1.11411
1.09017
1.06941
1.05262
1.0529
1.0606
1.08152
1.13736
1.24776
1.43013
1.74164
2.06908
2.19853
2.26703
2.25958
2.23602
2.20014
2.15935
2.11886
2.0756
2.03055
1.98543
1.94125
1.89853
1.85756
1.8185
1.78143
1.74631
1.71311
1.68166
1.65196
1.62381
1.5973
1.57208
1.54844
1.52583
1.50475
1.4845
1.46576
1.44772
1.4311
1.41513
1.40048
1.38647
1.37368
1.36152
1.35049
1.3401
1.33074
1.32204
1.31424
1.30713
1.30077
1.29516
1.29008
1.2859
1.28188
1.27906
1.27575
1.27433
1.27121
1.90883
3.18746
4.93974
5.36021
5.35071
5.2534
5.03074
4.70315
4.40638
4.14585
3.91121
3.69583
3.49498
3.30767
3.13349
2.97034
2.81889
2.67758
2.54507
2.42214
2.3081
2.20217
2.10348
2.01144
1.92551
1.84527
1.7703
1.70026
1.63483
1.57374
1.51671
1.46353
1.41396
1.3678
1.32483
1.28489
1.24776
1.21351
1.18209
1.15341
1.13058
1.11584
1.12043
1.13987
1.18594
1.28668
1.46921
1.78923
2.1491
2.2998
2.37327
2.36439
2.33494
2.28593
2.23488
2.1847
2.13311
2.08134
2.03096
1.98277
1.93708
1.89397
1.85324
1.81473
1.77824
1.74371
1.71091
1.67974
1.65003
1.62177
1.59478
1.56915
1.5446
1.5214
1.49909
1.47814
1.45795
1.4391
1.42096
1.4041
1.38792
1.37297
1.35869
1.34557
1.33313
1.32175
1.3111
1.30141
1.29248
1.28438
1.2771
1.27052
1.26478
1.25958
1.25531
1.25127
1.24842
1.24518
1.24371
1.24047
1.46292
2.1547
3.72731
4.99512
5.24112
5.21539
5.10556
4.86911
4.56036
4.282
4.03644
3.81488
3.61175
3.42225
3.24455
3.0789
2.92449
2.77995
2.64573
2.52029
2.40284
2.2934
2.19157
2.09653
2.00769
1.92456
1.84673
1.77387
1.70562
1.64175
1.58195
1.52603
1.47375
1.42493
1.37939
1.33708
1.29775
1.26213
1.23116
1.20498
1.20557
1.21881
1.25408
1.34537
1.52135
1.84899
2.25172
2.44187
2.52045
2.50738
2.47082
2.40695
2.33794
2.27497
2.21174
2.15038
2.0923
2.03794
1.98718
1.9397
1.89573
1.85481
1.81609
1.77929
1.74444
1.71141
1.67986
1.64974
1.62087
1.5933
1.56684
1.54161
1.51736
1.49433
1.47214
1.45118
1.431
1.41201
1.39379
1.37671
1.36038
1.34517
1.33068
1.31725
1.30458
1.29289
1.282
1.27201
1.26287
1.2545
1.24704
1.24025
1.23437
1.22904
1.22469
1.2206
1.21771
1.21451
1.21296
1.20958
1.22678
1.56854
2.3586
4.09654
4.96624
5.11967
5.08129
4.96256
4.71593
4.42854
4.16862
3.93792
3.7291
3.5367
3.35746
3.18937
3.03179
2.88436
2.74673
2.61797
2.49822
2.38598
2.28083
2.18266
2.0909
2.00497
1.92441
1.84887
1.77797
1.71148
1.64909
1.59062
1.53587
1.48472
1.43708
1.39363
1.35378
1.32207
1.30721
1.31524
1.3488
1.42821
1.59078
1.91139
2.36833
2.62641
2.71298
2.69682
2.65057
2.57241
2.48971
2.40989
2.3329
2.26061
2.19322
2.13004
2.07076
2.01532
1.96334
1.91472
1.86911
1.82635
1.78663
1.74943
1.7149
1.68228
1.65105
1.62126
1.59265
1.56533
1.53904
1.51394
1.48978
1.46677
1.44463
1.42362
1.40344
1.38434
1.36607
1.34883
1.33241
1.31699
1.30237
1.28873
1.27589
1.26398
1.25291
1.24269
1.23338
1.2248
1.2172
1.21025
1.20426
1.19883
1.19442
1.19031
1.18737
1.18424
1.18263
1.17911
1.10934
1.26687
1.64824
2.50205
4.25907
4.89912
4.99764
4.95023
4.82594
4.57444
4.30769
4.06614
3.84916
3.65183
3.46935
3.29889
3.13917
2.98946
2.84904
2.71749
2.59429
2.4791
2.3715
2.2702
2.17529
2.08648
2.00324
1.92513
1.85175
1.78283
1.71811
1.65741
1.60076
1.54829
1.50014
1.46111
1.42967
1.43479
1.46215
1.52679
1.67758
1.97367
2.48478
2.84509
2.95107
2.93437
2.87662
2.78213
2.68312
2.58854
2.49606
2.40909
2.33003
2.25571
2.1865
2.12222
2.06204
2.00581
1.9529
1.90345
1.85651
1.81234
1.77035
1.73106
1.69381
1.65943
1.62704
1.59643
1.56712
1.53926
1.51252
1.48706
1.46262
1.43936
1.41705
1.39583
1.37552
1.35624
1.33785
1.32045
1.3039
1.28832
1.27359
1.25978
1.24683
1.23477
1.22357
1.21322
1.20379
1.19508
1.1874
1.18035
1.17431
1.16884
1.16443
1.16035
1.15742
1.15443
1.15281
1.14923
1.0521
1.12311
1.30706
1.73058