/*--------------------------------*- C++ -*----------------------------------*\
  =========                 |
  \\      /  F ield         | OpenFOAM: The Open Source CFD Toolbox
   \\    /   O peration     | Website:  https://openfoam.org
    \\  /    A nd           | Version:  10
     \\/     M anipulation  |
\*---------------------------------------------------------------------------*/
FoamFile
{
    format      ascii;
    class       volVectorField;
    location    "1";
    object      U;
}
// * * * * * * * * * * * * * * * * * * * * * * * * * * * * * * * * * * * * * //

dimensions      [0 1 -1 0 0 0 0];

internalField   nonuniform List<vector> 
5250
(
(3 3.12947e-09 0)
(3 1.12899e-08 0)
(2.99999 7.61612e-08 0)
(2.99997 1.063e-07 0)
(2.99994 5.56008e-07 0)
(2.99984 8.89227e-07 0)
(2.9996 3.13627e-06 0)
(2.999 7.0706e-06 0)
(2.99754 1.74101e-05 0)
(2.99381 5.04744e-05 0)
(2.98458 0.000111241 0)
(2.96047 0.000321817 0)
(2.89498 0.000830382 0)
(2.70396 0.00242727 0)
(2.11884 0.00737226 0)
(0.948435 0.0228755 0)
(0.296341 0.0229421 0)
(0.508629 0.0241836 0)
(0.553858 0.0274399 0)
(0.481802 0.030889 0)
(0.378125 0.0346146 0)
(0.288694 0.0381956 0)
(0.212584 0.0413468 0)
(0.13642 0.044512 0)
(0.0647573 0.0487356 0)
(3 8.62786e-09 0)
(3 3.99589e-08 0)
(2.99999 1.93236e-07 0)
(2.99997 3.85039e-07 0)
(2.99994 1.41389e-06 0)
(2.99984 2.8565e-06 0)
(2.99961 8.49266e-06 0)
(2.99901 2.02655e-05 0)
(2.99757 5.20641e-05 0)
(2.99389 0.000137511 0)
(2.9848 0.000339907 0)
(2.96108 0.000915965 0)
(2.89673 0.00245975 0)
(2.70963 0.00709667 0)
(2.13698 0.0218437 0)
(0.964393 0.0674055 0)
(0.305059 0.0675191 0)
(0.512201 0.0687979 0)
(0.555684 0.0744974 0)
(0.482432 0.0803151 0)
(0.37853 0.0871034 0)
(0.288731 0.0930676 0)
(0.211701 0.0971833 0)
(0.134427 0.099896 0)
(0.0632198 0.104 0)
(3 1.27097e-08 0)
(3 7.56103e-08 0)
(2.99999 2.73511e-07 0)
(2.99997 7.41678e-07 0)
(2.99994 2.04309e-06 0)
(2.99984 5.02588e-06 0)
(2.99962 1.30461e-05 0)
(2.99903 3.21608e-05 0)
(2.99764 8.27238e-05 0)
(2.99405 0.00020629 0)
(2.98523 0.000533392 0)
(2.96225 0.00137334 0)
(2.90018 0.00372118 0)
(2.72073 0.0105895 0)
(2.17438 0.0326347 0)
(0.999833 0.101664 0)
(0.325974 0.113654 0)
(0.519947 0.119044 0)
(0.560745 0.127721 0)
(0.487127 0.136953 0)
(0.383928 0.149102 0)
(0.293611 0.159664 0)
(0.215262 0.167003 0)
(0.136265 0.17197 0)
(0.064064 0.178885 0)
(3 1.66611e-08 0)
(3 1.07432e-07 0)
(2.99999 3.60931e-07 0)
(2.99998 1.05607e-06 0)
(2.99994 2.71831e-06 0)
(2.99985 6.9875e-06 0)
(2.99963 1.75236e-05 0)
(2.99907 4.32125e-05 0)
(2.99772 0.000108958 0)
(2.99427 0.000269363 0)
(2.98578 0.00068282 0)
(2.96375 0.00172981 0)
(2.90451 0.00457758 0)
(2.73445 0.0127261 0)
(2.22085 0.038023 0)
(1.0494 0.116756 0)
(0.355438 0.161561 0)
(0.528857 0.173527 0)
(0.566763 0.182938 0)
(0.495028 0.194336 0)
(0.394204 0.211745 0)
(0.303243 0.227242 0)
(0.223102 0.238517 0)
(0.141492 0.246781 0)
(0.0667948 0.257691 0)
(3 2.07426e-08 0)
(3 1.34168e-07 0)
(2.99999 4.48057e-07 0)
(2.99998 1.30945e-06 0)
(2.99994 3.37088e-06 0)
(2.99986 8.64649e-06 0)
(2.99965 2.15374e-05 0)
(2.99911 5.32133e-05 0)
(2.99782 0.000133502 0)
(2.99453 0.000328804 0)
(2.98645 0.000826747 0)
(2.9655 0.00207477 0)
(2.90941 0.00539482 0)
(2.74904 0.014701 0)
(2.26643 0.0425077 0)
(1.11559 0.127557 0)
(0.395742 0.211325 0)
(0.536956 0.231179 0)
(0.571342 0.238613 0)
(0.504807 0.250931 0)
(0.408711 0.273759 0)
(0.317388 0.294464 0)
(0.235271 0.310366 0)
(0.150474 0.322975 0)
(0.0718304 0.338945 0)
(3 2.48119e-08 0)
(3 1.57877e-07 0)
(2.99999 5.34548e-07 0)
(2.99998 1.5388e-06 0)
(2.99995 4.00284e-06 0)
(2.99986 1.01656e-05 0)
(2.99967 2.53098e-05 0)
(2.99916 6.25187e-05 0)
(2.99795 0.000156388 0)
(2.99485 0.000384195 0)
(2.98724 0.000960863 0)
(2.96755 0.00240307 0)
(2.91506 0.00618362 0)
(2.76552 0.0167076 0)
(2.3172 0.0476606 0)
(1.19937 0.142867 0)
(0.451642 0.260224 0)
(0.54642 0.290169 0)
(0.574155 0.293061 0)
(0.517177 0.306197 0)
(0.428269 0.335882 0)
(0.336612 0.362837 0)
(0.252537 0.385085 0)
(0.163827 0.40432 0)
(0.0794855 0.428214 0)
(3 2.89927e-08 0)
(3 1.80394e-07 0)
(2.99999 6.24823e-07 0)
(2.99998 1.76477e-06 0)
(2.99995 4.63865e-06 0)
(2.99987 1.17002e-05 0)
(2.99969 2.92547e-05 0)
(2.99922 7.223e-05 0)
(2.99809 0.000179913 0)
(2.9952 0.000442497 0)
(2.98813 0.00110141 0)
(2.96985 0.00274702 0)
(2.92134 0.0070365 0)
(2.78363 0.0188453 0)
(2.37285 0.0533133 0)
(1.2993 0.158624 0)
(0.524394 0.314292 0)
(0.557727 0.343216 0)
(0.574614 0.344865 0)
(0.533369 0.362677 0)
(0.454037 0.398001 0)
(0.362557 0.432574 0)
(0.27736 0.463871 0)
(0.184846 0.493354 0)
(0.0922479 0.530614 0)
(3 3.20553e-08 0)
(3 2.02708e-07 0)
(2.99999 6.89751e-07 0)
(2.99998 1.98987e-06 0)
(2.99995 5.12467e-06 0)
(2.99988 1.31733e-05 0)
(2.99972 3.28415e-05 0)
(2.99929 8.0684e-05 0)
(2.99826 0.000204058 0)
(2.99561 0.000489915 0)
(2.98916 0.00125042 0)
(2.97249 0.00304844 0)
(2.92848 0.00788556 0)
(2.80403 0.0208771 0)
(2.43448 0.0589006 0)
(1.42594 0.172821 0)
(0.612978 0.373099 0)
(0.566317 0.389659 0)
(0.580515 0.394642 0)
(0.554393 0.421071 0)
(0.485367 0.459482 0)
(0.397574 0.503437 0)
(0.312963 0.547589 0)
(0.217707 0.592766 0)
(0.113578 0.655104 0)
(3 3.86878e-08 0)
(3 2.06642e-07 0)
(2.99999 7.98054e-07 0)
(2.99998 2.01987e-06 0)
(2.99996 5.91342e-06 0)
(2.9999 1.34303e-05 0)
(2.99975 3.79103e-05 0)
(2.99936 8.29048e-05 0)
(2.99843 0.000233914 0)
(2.99607 0.000509487 0)
(2.99026 0.00141282 0)
(2.97537 0.00323679 0)
(2.93621 0.00866054 0)
(2.82606 0.0224128 0)
(2.50033 0.0633901 0)
(1.5752 0.184818 0)
(0.715182 0.433135 0)
(0.572542 0.437222 0)
(0.594057 0.443311 0)
(0.581638 0.477358 0)
(0.523289 0.519865 0)
(0.445201 0.574776 0)
(0.364585 0.634115 0)
(0.272514 0.705286 0)
(0.152963 0.816048 0)
(3 3.78478e-08 0)
(3 2.29695e-07 0)
(2.99999 8.20099e-07 0)
(2.99999 2.24383e-06 0)
(2.99996 6.10094e-06 0)
(2.99991 1.50435e-05 0)
(2.99977 3.84852e-05 0)
(2.99945 9.45389e-05 0)
(2.99861 0.000234666 0)
(2.9966 0.000585137 0)
(2.99143 0.00143416 0)
(2.97853 0.00361186 0)
(2.94443 0.00907854 0)
(2.84959 0.0240292 0)
(2.56999 0.0669519 0)
(1.75027 0.195043 0)
(0.8361 0.491509 0)
(0.58188 0.486375 0)
(0.615953 0.489782 0)
(0.619136 0.52694 0)
(0.572627 0.576235 0)
(0.507755 0.641881 0)
(0.439972 0.72308 0)
(0.367046 0.841893 0)
(0.226112 1.07773 0)
(3 3.66462e-08 0)
(3 2.38289e-07 0)
(3 8.03008e-07 0)
(2.99999 2.33894e-06 0)
(2.99997 6.03764e-06 0)
(2.99992 1.56289e-05 0)
(2.99981 3.85997e-05 0)
(2.99953 9.78171e-05 0)
(2.99884 0.000239694 0)
(2.99707 0.000603705 0)
(2.99278 0.0014885 0)
(2.98174 0.00374202 0)
(2.95319 0.00946748 0)
(2.87429 0.0248942 0)
(2.64282 0.0693859 0)
(1.9494 0.202248 0)
(0.982532 0.544249 0)
(0.609586 0.540274 0)
(0.653134 0.540584 0)
(0.6719 0.572028 0)
(0.637818 0.626021 0)
(0.592061 0.699525 0)
(0.556622 0.800493 0)
(0.562699 0.952082 0)
(0.62731 1.2235 0)
(3 3.43009e-08 0)
(3 2.12653e-07 0)
(3 7.40959e-07 0)
(2.99999 2.09373e-06 0)
(2.99997 5.57021e-06 0)
(2.99994 1.4059e-05 0)
(2.99984 3.59172e-05 0)
(2.99962 8.82242e-05 0)
(2.99904 0.000225619 0)
(2.99764 0.000549233 0)
(2.99404 0.00140939 0)
(2.98518 0.00347486 0)
(2.96206 0.00893286 0)
(2.89955 0.0233571 0)
(2.71848 0.0649889 0)
(2.17229 0.191027 0)
(1.1749 0.551703 0)
(0.684141 0.585103 0)
(0.71448 0.598037 0)
(0.739958 0.616103 0)
(0.718647 0.669022 0)
(0.692041 0.745577 0)
(0.689999 0.851891 0)
(0.751706 0.999691 0)
(0.922121 1.20402 0)
(3 2.86096e-08 0)
(3 1.79937e-07 0)
(3 6.3176e-07 0)
(2.99999 1.77292e-06 0)
(2.99998 4.70651e-06 0)
(2.99995 1.20503e-05 0)
(2.99987 2.98181e-05 0)
(2.99968 7.60822e-05 0)
(2.99923 0.000184335 0)
(2.99806 0.000474998 0)
(2.99522 0.00114293 0)
(2.98802 0.00295674 0)
(2.96978 0.00727636 0)
(2.92111 0.0191698 0)
(2.78349 0.051803 0)
(2.37606 0.151426 0)
(1.39327 0.46207 0)
(0.782709 0.614097 0)
(0.774118 0.652075 0)
(0.798239 0.665829 0)
(0.799427 0.710423 0)
(0.792981 0.782372 0)
(0.815493 0.879287 0)
(0.899698 1.00113 0)
(1.08427 1.12898 0)
(3 2.58338e-08 0)
(3 1.55649e-07 0)
(3 5.53077e-07 0)
(2.99999 1.5244e-06 0)
(2.99998 4.13549e-06 0)
(2.99996 1.01709e-05 0)
(2.9999 2.64017e-05 0)
(2.99975 6.29516e-05 0)
(2.99937 0.000163195 0)
(2.99844 0.000385711 0)
(2.99611 0.00100016 0)
(2.99029 0.00238453 0)
(2.97556 0.00613208 0)
(2.93669 0.0153354 0)
(2.82785 0.0409598 0)
(2.50821 0.115101 0)
(1.62634 0.347334 0)
(0.89804 0.658933 0)
(0.813527 0.700464 0)
(0.837015 0.717195 0)
(0.862046 0.748294 0)
(0.878849 0.809657 0)
(0.919815 0.890199 0)
(1.0108 0.982856 0)
(1.18088 1.06316 0)
(3 2.1442e-08 0)
(3 1.43388e-07 0)
(3 4.7329e-07 0)
(2.99999 1.40348e-06 0)
(2.99999 3.55318e-06 0)
(2.99997 9.35477e-06 0)
(2.99992 2.26678e-05 0)
(2.9998 5.82604e-05 0)
(2.9995 0.000139889 0)
(2.99876 0.000358025 0)
(2.99689 0.000862447 0)
(2.99229 0.00219574 0)
(2.98057 0.00538625 0)
(2.95005 0.0138013 0)
(2.86579 0.0361178 0)
(2.61909 0.100821 0)
(1.8965 0.296664 0)
(1.06657 0.705496 0)
(0.850154 0.738959 0)
(0.868965 0.756832 0)
(0.909508 0.775735 0)
(0.948428 0.825318 0)
(1.00195 0.890615 0)
(1.09342 0.959608 0)
(1.24406 1.01339 0)
(3 1.93969e-08 0)
(3 1.17736e-07 0)
(3 4.18062e-07 0)
(3 1.15647e-06 0)
(2.99999 3.13141e-06 0)
(2.99997 7.77998e-06 0)
(2.99994 2.00231e-05 0)
(2.99984 4.90079e-05 0)
(2.99962 0.000123948 0)
(2.99904 0.000305881 0)
(2.99764 0.00076513 0)
(2.99406 0.00190685 0)
(2.98523 0.00478545 0)
(2.96226 0.0121003 0)
(2.90017 0.0317956 0)
(2.72118 0.0877891 0)
(2.18183 0.257797 0)
(1.29614 0.703211 0)
(0.925874 0.766798 0)
(0.919958 0.788053 0)
(0.959344 0.800624 0)
(1.01141 0.834324 0)
(1.07019 0.885759 0)
(1.15733 0.937977 0)
(1.28904 0.976379 0)
(3 1.4893e-08 0)
(3 9.77979e-08 0)
(3 3.24034e-07 0)
(3 9.59256e-07 0)
(2.99999 2.44e-06 0)
(2.99998 6.36708e-06 0)
(2.99995 1.5733e-05 0)
(2.99988 3.94743e-05 0)
(2.99971 9.87358e-05 0)
(2.99929 0.000241268 0)
(2.99822 0.000616708 0)
(2.99564 0.00148727 0)
(2.98906 0.00382814 0)
(2.97257 0.00943429 0)
(2.92884 0.0246637 0)
(2.80671 0.0664458 0)
(2.44766 0.193168 0)
(1.5817 0.579081 0)
(1.04915 0.773663 0)
(0.988915 0.812822 0)
(1.01172 0.830759 0)
(1.06726 0.847859 0)
(1.13019 0.883659 0)
(1.21113 0.92216 0)
(1.3252 0.949683 0)
(3 1.18883e-08 0)
(3 7.62503e-08 0)
(3 2.62465e-07 0)
(3 7.47125e-07 0)
(2.99999 1.9574e-06 0)
(2.99999 5.0291e-06 0)
(2.99997 1.23371e-05 0)
(2.99991 3.16212e-05 0)
(2.99979 7.53494e-05 0)
(2.99947 0.000195166 0)
(2.99868 0.000460056 0)
(2.99674 0.00119634 0)
(2.99186 0.00283571 0)
(2.97961 0.00731728 0)
(2.94759 0.0181028 0)
(2.85941 0.0481124 0)
(2.60342 0.133528 0)
(1.87849 0.403909 0)
(1.19379 0.788668 0)
(1.04632 0.839247 0)
(1.05565 0.863757 0)
(1.10909 0.869766 0)
(1.1778 0.887045 0)
(1.25496 0.9123 0)
(1.35492 0.931069 0)
(3 9.86692e-09 0)
(3 5.7615e-08 0)
(3 2.11769e-07 0)
(3 5.66603e-07 0)
(3 1.58237e-06 0)
(2.99999 3.83509e-06 0)
(2.99997 1.00489e-05 0)
(2.99994 2.41842e-05 0)
(2.99985 6.17674e-05 0)
(2.99961 0.000150674 0)
(2.99906 0.000377922 0)
(2.99762 0.000936726 0)
(2.99416 0.00232357 0)
(2.98529 0.00583447 0)
(2.96268 0.0146771 0)
(2.90146 0.0383901 0)
(2.7259 0.10543 0)
(2.19969 0.31177 0)
(1.41936 0.782045 0)
(1.12492 0.865293 0)
(1.10811 0.889544 0)
(1.14662 0.893551 0)
(1.21642 0.894799 0)
(1.29321 0.907461 0)
(1.3826 0.918949 0)
(3 7.1095e-09 0)
(3 4.4882e-08 0)
(3 1.54263e-07 0)
(3 4.40963e-07 0)
(3 1.15889e-06 0)
(2.99999 2.95177e-06 0)
(2.99998 7.42235e-06 0)
(2.99996 1.84107e-05 0)
(2.99989 4.61792e-05 0)
(2.99973 0.000113318 0)
(2.99934 0.000285307 0)
(2.99836 0.000697998 0)
(2.99594 0.00176266 0)
(2.98991 0.00434828 0)
(2.97468 0.0110042 0)
(2.93478 0.0282341 0)
(2.82444 0.0761566 0)
(2.50032 0.220357 0)
(1.72886 0.639175 0)
(1.25391 0.86352 0)
(1.17682 0.901161 0)
(1.19117 0.914884 0)
(1.2514 0.909251 0)
(1.32747 0.909932 0)
(1.40928 0.913971 0)
(3 5.1333e-09 0)
(3 3.37147e-08 0)
(3 1.11929e-07 0)
(3 3.30397e-07 0)
(3 8.39861e-07 0)
(3 2.20064e-06 0)
(2.99999 5.3892e-06 0)
(2.99997 1.36697e-05 0)
(2.99993 3.35275e-05 0)
(2.99981 8.38287e-05 0)
(2.99954 0.00020677 0)
(2.99885 0.000512988 0)
(2.9972 0.00127593 0)
(2.99298 0.0031464 0)
(2.98258 0.00789966 0)
(2.95546 0.0198168 0)
(2.88204 0.0519659 0)
(2.67094 0.143428 0)
(2.06329 0.430203 0)
(1.42083 0.859981 0)
(1.24105 0.922237 0)
(1.23561 0.939978 0)
(1.28183 0.933237 0)
(1.35645 0.921001 0)
(1.43456 0.917007 0)
(3 3.80297e-09 0)
(3 2.39803e-08 0)
(3 8.2305e-08 0)
(3 2.34961e-07 0)
(3 6.15612e-07 0)
(3 1.56985e-06 0)
(2.99999 3.94251e-06 0)
(2.99998 9.75998e-06 0)
(2.99995 2.44637e-05 0)
(2.99988 5.98771e-05 0)
(2.99969 0.000150542 0)
(2.99925 0.000367016 0)
(2.99813 0.000923994 0)
(2.99543 0.00225826 0)
(2.98856 0.0056774 0)
(2.97133 0.0141501 0)
(2.92559 0.0365897 0)
(2.79827 0.0988798 0)
(2.41573 0.290989 0)
(1.69993 0.755104 0)
(1.3485 0.918146 0)
(1.29722 0.95047 0)
(1.31816 0.955518 0)
(1.38266 0.939056 0)
(1.45894 0.926171 0)
(3 2.60383e-09 0)
(3 1.6764e-08 0)
(3 5.71052e-08 0)
(3 1.64018e-07 0)
(3 4.26631e-07 0)
(3 1.0987e-06 0)
(2.99999 2.70306e-06 0)
(2.99999 6.84938e-06 0)
(2.99997 1.66032e-05 0)
(2.99992 4.18815e-05 0)
(2.9998 0.000101443 0)
(2.9995 0.000254333 0)
(2.99878 0.000619172 0)
(2.99694 0.00154507 0)
(2.99248 0.00379844 0)
(2.98116 0.0094908 0)
(2.95201 0.0239732 0)
(2.87286 0.0630612 0)
(2.64426 0.177314 0)
(2.02989 0.523931 0)
(1.49625 0.892681 0)
(1.3639 0.956046 0)
(1.36093 0.97456 0)
(1.40777 0.962673 0)
(1.47961 0.938225 0)
(3 1.82876e-09 0)
(3 1.13766e-08 0)
(3 3.94663e-08 0)
(3 1.11455e-07 0)
(3 2.94959e-07 0)
(3 7.42797e-07 0)
(3 1.87884e-06 0)
(2.99999 4.60271e-06 0)
(2.99998 1.1578e-05 0)
(2.99995 2.8089e-05 0)
(2.99987 7.07402e-05 0)
(2.99968 0.000171023 0)
(2.99921 0.000431002 0)
(2.99807 0.00104377 0)
(2.99517 0.00262995 0)
(2.98811 0.00643604 0)
(2.96994 0.0162755 0)
(2.92209 0.0417604 0)
(2.78827 0.11317 0)
(2.38814 0.33465 0)
(1.74745 0.796982 0)
(1.45972 0.947517 0)
(1.41608 0.980796 0)
(1.43565 0.982362 0)
(1.49588 0.956764 0)
(3 1.19692e-09 0)
(3 7.52695e-09 0)
(3 2.6062e-08 0)
(3 7.37475e-08 0)
(3 1.94322e-07 0)
(3 4.9328e-07 0)
(3 1.23006e-06 0)
(2.99999 3.06675e-06 0)
(2.99999 7.5285e-06 0)
(2.99997 1.87844e-05 0)
(2.99992 4.57626e-05 0)
(2.9998 0.000114614 0)
(2.9995 0.000278347 0)
(2.99878 0.000698966 0)
(2.99697 0.00170184 0)
(2.99252 0.00427106 0)
(2.98134 0.01056 0)
(2.95249 0.0268847 0)
(2.87481 0.0707114 0)
(2.64913 0.200351 0)
(2.07212 0.573345 0)
(1.60371 0.916784 0)
(1.48298 0.980652 0)
(1.47513 0.995743 0)
(1.51414 0.980973 0)
(3 7.86974e-10 0)
(3 4.83924e-09 0)
(3 1.6966e-08 0)
(3 4.73512e-08 0)
(3 1.26769e-07 0)
(3 3.16183e-07 0)
(3 8.04928e-07 0)
(3 1.96298e-06 0)
(2.99999 4.93407e-06 0)
(2.99998 1.2025e-05 0)
(2.99995 3.00022e-05 0)
(2.99988 7.33779e-05 0)
(2.99969 0.000182069 0)
(2.99926 0.00044819 0)
(2.99815 0.00110537 0)
(2.99549 0.00274117 0)
(2.98874 0.00677613 0)
(2.97187 0.0169858 0)
(2.92739 0.0436518 0)
(2.80401 0.117745 0)
(2.43746 0.347224 0)
(1.85156 0.79849 0)
(1.57569 0.960118 0)
(1.52791 0.994783 0)
(1.54097 0.99854 0)
(3 4.95343e-10 0)
(3 3.06117e-09 0)
(3 1.07793e-08 0)
(3 2.99889e-08 0)
(3 8.01667e-08 0)
(3 2.01052e-07 0)
(3 5.04603e-07 0)
(3 1.25226e-06 0)
(3 3.07066e-06 0)
(2.99999 7.68108e-06 0)
(2.99997 1.85396e-05 0)
(2.99992 4.68528e-05 0)
(2.99982 0.000111964 0)
(2.99955 0.000284782 0)
(2.99888 0.000678745 0)
(2.99725 0.00172905 0)
(2.9932 0.00415723 0)
(2.9831 0.0105528 0)
(2.95714 0.0262816 0)
(2.88782 0.0692881 0)
(2.68808 0.194351 0)
(2.17353 0.550513 0)
(1.72272 0.916004 0)
(1.59495 0.989041 0)
(1.58092 1.00699 0)
(3 3.09968e-10 0)
(3 1.8919e-09 0)
(3 6.67658e-09 0)
(3 1.85172e-08 0)
(3 4.97824e-08 0)
(3 1.23683e-07 0)
(3 3.16009e-07 0)
(3 7.67592e-07 0)
(3 1.93533e-06 0)
(2.99999 4.69251e-06 0)
(2.99998 1.17384e-05 0)
(2.99996 2.85991e-05 0)
(2.99989 7.10105e-05 0)
(2.99973 0.000173915 0)
(2.99935 0.000429563 0)
(2.99839 0.00105884 0)
(2.99609 0.00260529 0)
(2.99027 0.00647816 0)
(2.97593 0.0160723 0)
(2.93856 0.0412397 0)
(2.83726 0.109962 0)
(2.53872 0.320316 0)
(1.98701 0.758575 0)
(1.69356 0.954657 0)
(1.63581 0.999534 0)
(3 1.83811e-10 0)
(3 1.15943e-09 0)
(3 3.96849e-09 0)
(3 1.13464e-08 0)
(3 2.96618e-08 0)
(3 7.54031e-08 0)
(3 1.89038e-07 0)
(3 4.65021e-07 0)
(3 1.16221e-06 0)
(3 2.82143e-06 0)
(2.99999 7.08309e-06 0)
(2.99997 1.70331e-05 0)
(2.99994 4.29053e-05 0)
(2.99984 0.00010278 0)
(2.99962 0.000258619 0)
(2.99906 0.000620199 0)
(2.99771 0.0015546 0)
(2.99432 0.00375977 0)
(2.98598 0.0093912 0)
(2.96465 0.0232893 0)
(2.90849 0.0600902 0)
(2.7495 0.164755 0)
(2.31876 0.465178 0)
(1.86046 0.8715 0)
(1.70569 0.980633 0)
(3 1.09582e-10 0)
(3 6.86278e-10 0)
(3 2.35836e-09 0)
(3 6.70927e-09 0)
(3 1.75871e-08 0)
(3 4.458e-08 0)
(3 1.12025e-07 0)
(3 2.74971e-07 0)
(3 6.91414e-07 0)
(3 1.66827e-06 0)
(2.99999 4.22454e-06 0)
(2.99999 1.01109e-05 0)
(2.99996 2.56852e-05 0)
(2.99991 6.13213e-05 0)
(2.99979 0.000155443 0)
(2.99947 0.000372755 0)
(2.99871 0.000938693 0)
(2.9968 0.00226895 0)
(2.99216 0.00568827 0)
(2.98049 0.0139698 0)
(2.95073 0.035585 0)
(2.87123 0.0933452 0)
(2.6398 0.265587 0)
(2.14411 0.675894 0)
(1.82023 0.941011 0)
(3 6.19333e-11 0)
(3 4.00349e-10 0)
(3 1.35359e-09 0)
(3 3.91422e-09 0)
(3 1.01099e-08 0)
(3 2.60643e-08 0)
(3 6.40438e-08 0)
(3 1.6128e-07 0)
(3 3.92546e-07 0)
(3 9.8185e-07 0)
(3 2.39138e-06 0)
(2.99999 5.94996e-06 0)
(2.99998 1.4524e-05 0)
(2.99995 3.59566e-05 0)
(2.99988 8.82029e-05 0)
(2.99971 0.000216731 0)
(2.99929 0.000534014 0)
(2.99827 0.00130644 0)
(2.99573 0.00323236 0)
(2.98949 0.00792861 0)
(2.97372 0.0197753 0)
(2.93289 0.0502969 0)
(2.81981 0.134922 0)
(2.49738 0.384082 0)
(2.03507 0.803322 0)
(3 3.56566e-11 0)
(3 2.2449e-10 0)
(3 7.75628e-10 0)
(3 2.19602e-09 0)
(3 5.7671e-09 0)
(3 1.4637e-08 0)
(3 3.63282e-08 0)
(3 9.05356e-08 0)
(3 2.21121e-07 0)
(3 5.51586e-07 0)
(3 1.33449e-06 0)
(3 3.33728e-06 0)
(2.99999 8.05049e-06 0)
(2.99997 2.01089e-05 0)
(2.99994 4.85353e-05 0)
(2.99984 0.000120702 0)
(2.99961 0.000292702 0)
(2.99905 0.00072419 0)
(2.99768 0.00176696 0)
(2.99424 0.00436275 0)
(2.98582 0.0107811 0)
(2.96423 0.0269864 0)
(2.90768 0.0699601 0)
(2.74615 0.194271 0)
(2.34405 0.527139 0)
(3 1.93274e-11 0)
(3 1.27211e-10 0)
(3 4.25392e-10 0)
(3 1.24015e-09 0)
(3 3.16906e-09 0)
(3 8.23398e-09 0)
(3 1.99765e-08 0)
(3 5.08356e-08 0)
(3 1.21823e-07 0)
(3 3.07954e-07 0)
(3 7.38635e-07 0)
(3 1.85527e-06 0)
(2.99999 4.47359e-06 0)
(2.99999 1.11578e-05 0)
(2.99997 2.71152e-05 0)
(2.99992 6.69672e-05 0)
(2.99979 0.000164465 0)
(2.9995 0.00040231 0)
(2.99876 0.000998254 0)
(2.99699 0.00242574 0)
(2.99253 0.00607689 0)
(2.98163 0.0148877 0)
(2.95365 0.038039 0)
(2.87936 0.0993668 0)
(2.66593 0.281749 0)
(3 1.09469e-11 0)
(3 6.74163e-11 0)
(3 2.37305e-10 0)
(3 6.56612e-10 0)
(3 1.76408e-09 0)
(3 4.36585e-09 0)
(3 1.10961e-08 0)
(3 2.70378e-08 0)
(3 6.72684e-08 0)
(3 1.64709e-07 0)
(3 4.04741e-07 0)
(3 9.99861e-07 0)
(3 2.42983e-06 0)
(2.99999 6.06182e-06 0)
(2.99998 1.45836e-05 0)
(2.99996 3.66477e-05 0)
(2.99989 8.76729e-05 0)
(2.99974 0.00022085 0)
(2.99936 0.000527222 0)
(2.99847 0.00132817 0)
(2.9962 0.00318539 0)
(2.99076 0.00799442 0)
(2.97693 0.019545 0)
(2.94177 0.0499398 0)
(2.84533 0.132499 0)
(3 5.91418e-12 0)
(3 3.57743e-11 0)
(3 1.26567e-10 0)
(3 3.4889e-10 0)
(3 9.4025e-10 0)
(3 2.31802e-09 0)
(3 5.92723e-09 0)
(3 1.42687e-08 0)
(3 3.60115e-08 0)
(3 8.65452e-08 0)
(3 2.16558e-07 0)
(3 5.22897e-07 0)
(3 1.2975e-06 0)
(3 3.15736e-06 0)
(2.99999 7.74692e-06 0)
(2.99998 1.90213e-05 0)
(2.99995 4.61647e-05 0)
(2.99987 0.000114282 0)
(2.99968 0.000274457 0)
(2.99921 0.000684583 0)
(2.99808 0.00163479 0)
(2.99524 0.00409375 0)
(2.98836 0.00987061 0)
(2.9708 0.0248568 0)
(2.92553 0.0629717 0)
(3 2.96411e-12 0)
(3 1.92006e-11 0)
(3 6.41533e-11 0)
(3 1.87361e-10 0)
(3 4.78121e-10 0)
(3 1.23949e-09 0)
(3 3.01964e-09 0)
(3 7.59649e-09 0)
(3 1.83836e-08 0)
(3 4.56848e-08 0)
(3 1.11054e-07 0)
(3 2.73204e-07 0)
(3 6.68372e-07 0)
(3 1.62916e-06 0)
(3 4.02186e-06 0)
(2.99999 9.70509e-06 0)
(2.99997 2.41317e-05 0)
(2.99993 5.78576e-05 0)
(2.99984 0.000144605 0)
(2.9996 0.000345558 0)
(2.99904 0.000865191 0)
(2.99762 0.00207468 0)
(2.99419 0.00519964 0)
(2.98559 0.0126423 0)
(2.96402 0.0320326 0)
(3 1.51352e-12 0)
(3 9.87889e-12 0)
(3 3.30216e-11 0)
(3 9.62513e-11 0)
(3 2.45909e-10 0)
(3 6.35867e-10 0)
(3 1.55075e-09 0)
(3 3.8924e-09 0)
(3 9.42774e-09 0)
(3 2.33646e-08 0)
(3 5.68597e-08 0)
(3 1.39454e-07 0)
(3 3.42053e-07 0)
(3 8.30271e-07 0)
(3 2.05544e-06 0)
(2.99999 4.9452e-06 0)
(2.99999 1.23216e-05 0)
(2.99997 2.95241e-05 0)
(2.99992 7.36881e-05 0)
(2.99981 0.000176764 0)
(2.99952 0.000440365 0)
(2.99885 0.0010606 0)
(2.99715 0.00264169 0)
(2.9931 0.00641374 0)
(2.9829 0.016051 0)
(3 7.9292e-13 0)
(3 4.83288e-12 0)
(3 1.70017e-11 0)
(3 4.71101e-11 0)
(3 1.25728e-10 0)
(3 3.1208e-10 0)
(3 7.90041e-10 0)
(3 1.91106e-09 0)
(3 4.79317e-09 0)
(3 1.14883e-08 0)
(3 2.87912e-08 0)
(3 6.87861e-08 0)
(3 1.72166e-07 0)
(3 4.1233e-07 0)
(3 1.02685e-06 0)
(3 2.47084e-06 0)
(2.99999 6.11895e-06 0)
(2.99998 1.48307e-05 0)
(2.99996 3.63867e-05 0)
(2.99991 8.90015e-05 0)
(2.99977 0.000216351 0)
(2.99945 0.000534079 0)
(2.99865 0.00128671 0)
(2.99675 0.00320246 0)
(2.99198 0.00772549 0)
(3 3.76884e-13 0)
(3 2.38794e-12 0)
(3 8.28831e-12 0)
(3 2.32734e-11 0)
(3 6.14677e-11 0)
(3 1.53702e-10 0)
(3 3.86822e-10 0)
(3 9.40237e-10 0)
(3 2.34607e-09 0)
(3 5.65002e-09 0)
(3 1.40743e-08 0)
(3 3.38284e-08 0)
(3 8.4094e-08 0)
(3 2.0241e-07 0)
(3 5.01449e-07 0)
(3 1.21086e-06 0)
(3 2.98377e-06 0)
(2.99999 7.24168e-06 0)
(2.99998 1.77272e-05 0)
(2.99996 4.32553e-05 0)
(2.99989 0.000105042 0)
(2.99974 0.000258093 0)
(2.99938 0.000621102 0)
(2.99847 0.0015344 0)
(2.99632 0.00368226 0)
(3 1.6828e-13 0)
(3 1.14066e-12 0)
(3 3.90229e-12 0)
(3 1.12316e-11 0)
(3 2.90193e-11 0)
(3 7.47504e-11 0)
(3 1.82444e-10 0)
(3 4.58645e-10 0)
(3 1.10463e-09 0)
(3 2.75871e-09 0)
(3 6.62374e-09 0)
(3 1.64818e-08 0)
(3 3.96348e-08 0)
(3 9.81827e-08 0)
(3 2.37127e-07 0)
(3 5.83673e-07 0)
(3 1.41493e-06 0)
(3 3.46373e-06 0)
(2.99999 8.44053e-06 0)
(2.99998 2.04827e-05 0)
(2.99995 5.01705e-05 0)
(2.99988 0.000120786 0)
(2.99971 0.000297512 0)
(2.9993 0.000711008 0)
(2.99829 0.00175826 0)
(3 7.83215e-14 0)
(3 5.037e-13 0)
(3 1.81543e-12 0)
(3 5.13414e-12 0)
(3 1.37922e-11 0)
(3 3.43155e-11 0)
(3 8.69119e-11 0)
(3 2.11331e-10 0)
(3 5.25304e-10 0)
(3 1.27371e-09 0)
(3 3.14058e-09 0)
(3 7.64331e-09 0)
(3 1.86772e-08 0)
(3 4.57157e-08 0)
(3 1.10952e-07 0)
(3 2.73005e-07 0)
(3 6.57364e-07 0)
(3 1.62511e-06 0)
(3 3.8932e-06 0)
(2.99999 9.63088e-06 0)
(2.99998 2.30395e-05 0)
(2.99995 5.67833e-05 0)
(2.99987 0.000136369 0)
(2.99968 0.000334148 0)
(2.99923 0.000806215 0)
(3 4.92484e-14 0)
(3 2.26847e-13 0)
(3 7.79963e-13 0)
(3 2.35291e-12 0)
(3 6.25547e-12 0)
(3 1.57193e-11 0)
(3 3.99203e-11 0)
(3 9.71151e-11 0)
(3 2.41254e-10 0)
(3 5.8749e-10 0)
(3 1.43913e-09 0)
(3 3.52655e-09 0)
(3 8.55084e-09 0)
(3 2.11132e-08 0)
(3 5.06757e-08 0)
(3 1.25869e-07 0)
(3 3.0026e-07 0)
(3 7.4734e-07 0)
(3 1.77813e-06 0)
(3 4.41272e-06 0)
(2.99999 1.0533e-05 0)
(2.99998 2.59753e-05 0)
(2.99994 6.22936e-05 0)
(2.99986 0.000152597 0)
(2.99966 0.000368897 0)
(3 1.72981e-14 0)
(3 9.43039e-14 0)
(3 3.85304e-13 0)
(3 1.039e-12 0)
(3 2.88653e-12 0)
(3 7.12691e-12 0)
(3 1.80574e-11 0)
(3 4.35406e-11 0)
(3 1.09278e-10 0)
(3 2.61133e-10 0)
(3 6.5396e-10 0)
(3 1.56307e-09 0)
(3 3.8895e-09 0)
(3 9.3398e-09 0)
(3 2.30377e-08 0)
(3 5.57338e-08 0)
(3 1.36033e-07 0)
(3 3.31647e-07 0)
(3 8.00985e-07 0)
(3 1.9702e-06 0)
(3 4.70807e-06 0)
(2.99999 1.16563e-05 0)
(2.99997 2.7705e-05 0)
(2.99994 6.87859e-05 0)
(2.99985 0.000163369 0)
(3 3.01223e-14 0)
(3 1.31916e-13 0)
(3 3.12996e-13 0)
(3 6.41353e-13 0)
(3 1.47197e-12 0)
(3 3.38672e-12 0)
(3 8.05107e-12 0)
(3 1.966e-11 0)
(3 4.76369e-11 0)
(3 1.16757e-10 0)
(3 2.85286e-10 0)
(3 6.93482e-10 0)
(3 1.70792e-09 0)
(3 4.10933e-09 0)
(3 1.01787e-08 0)
(3 2.43354e-08 0)
(3 6.04238e-08 0)
(3 1.43899e-07 0)
(3 3.56864e-07 0)
(3 8.51241e-07 0)
(3 2.10008e-06 0)
(3 5.03222e-06 0)
(2.99999 1.23294e-05 0)
(2.99997 2.9754e-05 0)
(2.99994 7.23511e-05 0)
(3 7.75924e-15 0)
(3 4.22267e-14 0)
(3 1.02496e-13 0)
(3 2.38954e-13 0)
(3 5.51164e-13 0)
(3 1.43415e-12 0)
(3 3.38091e-12 0)
(3 8.45803e-12 0)
(3 2.02989e-11 0)
(3 5.06059e-11 0)
(3 1.21532e-10 0)
(3 3.02501e-10 0)
(3 7.25489e-10 0)
(3 1.79855e-09 0)
(3 4.31897e-09 0)
(3 1.06496e-08 0)
(3 2.56503e-08 0)
(3 6.27842e-08 0)
(3 1.52102e-07 0)
(3 3.68831e-07 0)
(3 9.00329e-07 0)
(3 2.16324e-06 0)
(3 5.31481e-06 0)
(2.99999 1.2698e-05 0)
(2.99997 3.13416e-05 0)
(3 -7.93122e-15 0)
(3 -1.67964e-14 0)
(3 -9.26548e-15 0)
(3 4.28162e-14 0)
(3 1.65837e-13 0)
(3 5.22571e-13 0)
(3 1.36391e-12 0)
(3 3.41977e-12 0)
(3 8.60222e-12 0)
(3 2.08137e-11 0)
(3 5.19856e-11 0)
(3 1.25299e-10 0)
(3 3.09449e-10 0)
(3 7.49714e-10 0)
(3 1.83168e-09 0)
(3 4.46698e-09 0)
(3 1.08073e-08 0)
(3 2.65219e-08 0)
(3 6.36521e-08 0)
(3 1.56647e-07 0)
(3 3.74497e-07 0)
(3 9.22065e-07 0)
(3 2.20146e-06 0)
(3 5.41636e-06 0)
(2.99999 1.2953e-05 0)
(3 2.5924e-14 0)
(3 5.00263e-14 0)
(3 7.73509e-14 0)
(3 1.25302e-13 0)
(3 1.89653e-13 0)
(3 3.2737e-13 0)
(3 6.58995e-13 0)
(3 1.53146e-12 0)
(3 3.54522e-12 0)
(3 8.78585e-12 0)
(3 2.11669e-11 0)
(3 5.20067e-11 0)
(3 1.26608e-10 0)
(3 3.08661e-10 0)
(3 7.56293e-10 0)
(3 1.8252e-09 0)
(3 4.49871e-09 0)
(3 1.07745e-08 0)
(3 2.66147e-08 0)
(3 6.35818e-08 0)
(3 1.56533e-07 0)
(3 3.74657e-07 0)
(3 9.1805e-07 0)
(3 2.20384e-06 0)
(3 5.37286e-06 0)
(3 -2.07774e-14 0)
(3 -3.08484e-14 0)
(3 -3.53618e-14 0)
(3 -3.3642e-14 0)
(3 -2.10686e-14 0)
(3 3.11498e-14 0)
(3 1.71703e-13 0)
(3 5.19327e-13 0)
(3 1.34543e-12 0)
(3 3.47185e-12 0)
(3 8.35743e-12 0)
(3 2.07962e-11 0)
(3 5.02991e-11 0)
(3 1.23973e-10 0)
(3 2.9896e-10 0)
(3 7.38591e-10 0)
(3 1.7713e-09 0)
(3 4.37763e-09 0)
(3 1.04747e-08 0)
(3 2.58034e-08 0)
(3 6.18572e-08 0)
(3 1.51527e-07 0)
(3 3.64243e-07 0)
(3 8.87103e-07 0)
(3 2.14092e-06 0)
(3 7.31857e-15 0)
(3 3.60155e-14 0)
(3 6.54093e-14 0)
(3 9.03177e-14 0)
(3 1.2644e-13 0)
(3 1.74158e-13 0)
(3 2.55251e-13 0)
(3 4.02343e-13 0)
(3 7.63845e-13 0)
(3 1.52022e-12 0)
(3 3.48429e-12 0)
(3 7.94133e-12 0)
(3 1.92572e-11 0)
(3 4.5942e-11 0)
(3 1.13708e-10 0)
(3 2.7233e-10 0)
(3 6.76133e-10 0)
(3 1.61239e-09 0)
(3 4.00131e-09 0)
(3 9.53557e-09 0)
(3 2.35632e-08 0)
(3 5.62115e-08 0)
(3 1.38225e-07 0)
(3 3.31009e-07 0)
(3 8.07415e-07 0)
(3 3.0633e-14 0)
(3 7.90568e-14 0)
(3 1.20682e-13 0)
(3 1.74258e-13 0)
(3 2.20501e-13 0)
(3 2.62478e-13 0)
(3 3.06611e-13 0)
(3 3.52193e-13 0)
(3 4.40587e-13 0)
(3 6.73208e-13 0)
(3 1.11658e-12 0)
(3 2.26995e-12 0)
(3 4.94183e-12 0)
(3 1.1986e-11 0)
(3 2.82209e-11 0)
(3 7.04205e-11 0)
(3 1.67336e-10 0)
(3 4.16692e-10 0)
(3 9.95903e-10 0)
(3 2.44318e-09 0)
(3 5.92621e-09 0)
(3 1.42711e-08 0)
(3 3.51094e-08 0)
(3 8.31878e-08 0)
(3 2.07226e-07 0)
(1.33154 1.12188 0)
(1.7645 0.912285 0)
(1.96678 0.640556 0)
(2.01135 0.366377 0)
(1.97628 0.142498 0)
(1.90516 -0.00685644 0)
(1.82774 -0.0482794 0)
(1.79005 -0.0270552 0)
(1.78965 0.00881992 0)
(1.79996 0.0344186 0)
(1.81491 0.0418376 0)
(1.83158 0.0360436 0)
(1.84264 0.0248071 0)
(1.85116 0.0138864 0)
(1.85976 0.0074661 0)
(1.86987 0.00526803 0)
(1.88198 0.00552601 0)
(1.8959 0.00631149 0)
(1.91096 0.00660615 0)
(1.92669 0.00611592 0)
(1.94274 0.00505531 0)
(1.95892 0.00382093 0)
(1.9752 0.00271574 0)
(1.9916 0.00186682 0)
(2.00812 0.00128356 0)
(2.02479 0.000907111 0)
(2.04156 0.00066005 0)
(2.05841 0.000477791 0)
(2.0753 0.000321015 0)
(2.09216 0.000170605 0)
(2.10898 1.78802e-05 0)
(2.12571 -0.000132533 0)
(2.14233 -0.000270765 0)
(2.15879 -0.000388425 0)
(2.17507 -0.000465987 0)
(2.19115 -0.000501647 0)
(2.20703 -0.000500905 0)
(2.22268 -0.000449563 0)
(2.23807 -0.000345994 0)
(2.25319 -0.000236882 0)
(2.26804 -0.000100549 0)
(2.2826 6.4045e-05 0)
(2.2968 0.000262247 0)
(2.31062 0.000466903 0)
(2.32401 0.000672579 0)
(2.33697 0.00088008 0)
(2.34944 0.00109173 0)
(2.36141 0.00130393 0)
(2.37287 0.00152008 0)
(2.38379 0.00174667 0)
(2.39415 0.00198313 0)
(2.40394 0.00222649 0)
(2.41314 0.002476 0)
(2.42177 0.00273784 0)
(2.42981 0.00301136 0)
(2.43728 0.00326976 0)
(2.44418 0.00355759 0)
(2.45052 0.00383051 0)
(2.45631 0.00412318 0)
(2.46154 0.00442455 0)
(2.46624 0.0047314 0)
(2.4704 0.0050463 0)
(2.47403 0.00533568 0)
(2.47717 0.0055643 0)
(2.47982 0.00570044 0)
(2.48202 0.00575187 0)
(2.48378 0.00574793 0)
(2.48514 0.0056884 0)
(2.4861 0.00563147 0)
(2.48667 0.0055246 0)
(2.48692 0.00541783 0)
(2.48689 0.00533721 0)
(2.48661 0.00529808 0)
(2.48616 0.00525371 0)
(2.48567 0.00519346 0)
(2.48515 0.00512434 0)
(2.48441 0.00505664 0)
(2.48334 0.00498884 0)
(2.48201 0.00491259 0)
(2.48068 0.00479769 0)
(2.47947 0.00465623 0)
(2.47838 0.00447656 0)
(2.47748 0.00426496 0)
(2.47685 0.00396308 0)
(2.47657 0.00355812 0)
(2.47661 0.00303115 0)
(2.47699 0.00244197 0)
(2.47782 0.00178133 0)
(2.47914 0.00109415 0)
(2.48124 0.000392536 0)
(2.48374 -0.000484092 0)
(2.48702 -0.00109779 0)
(2.49094 -0.0019624 0)
(2.49574 -0.00242788 0)
(2.50124 -0.00306399 0)
(2.50751 -0.0034759 0)
(2.51427 -0.00390345 0)
(2.52129 -0.00416225 0)
(2.52753 -0.00411851 0)
(2.53494 -0.00353262 0)
(1.41531 1.02366 0)
(1.74884 0.732467 0)
(1.93841 0.41268 0)
(2.03711 0.136731 0)
(2.09982 -0.0598648 0)
(2.14452 -0.166139 0)
(2.16615 -0.181029 0)
(2.1718 -0.142866 0)
(2.17074 -0.0956957 0)
(2.162 -0.0557958 0)
(2.15447 -0.0289863 0)
(2.15587 -0.0197321 0)
(2.16231 -0.0216959 0)
(2.17138 -0.0250224 0)
(2.18244 -0.0281564 0)
(2.1933 -0.0302661 0)
(2.20337 -0.0302585 0)
(2.21301 -0.0289888 0)
(2.22269 -0.0274524 0)
(2.23278 -0.0261697 0)
(2.24344 -0.0252189 0)
(2.25462 -0.0244988 0)
(2.26618 -0.0238815 0)
(2.27799 -0.023282 0)
(2.29 -0.0226601 0)
(2.30216 -0.022006 0)
(2.31447 -0.0213308 0)
(2.32691 -0.0206576 0)
(2.33947 -0.0200094 0)
(2.35212 -0.0194016 0)
(2.36484 -0.0188541 0)
(2.3776 -0.0183795 0)
(2.39039 -0.0179449 0)
(2.40316 -0.0175275 0)
(2.41589 -0.0171355 0)
(2.42856 -0.0167583 0)
(2.44116 -0.0163662 0)
(2.45369 -0.0159417 0)
(2.46607 -0.0154764 0)
(2.47832 -0.0149932 0)
(2.49047 -0.0145107 0)
(2.50249 -0.0140292 0)
(2.51431 -0.0135349 0)
(2.5259 -0.0130435 0)
(2.53725 -0.0125696 0)
(2.54832 -0.0121124 0)
(2.55909 -0.0116698 0)
(2.56952 -0.0112431 0)
(2.57961 -0.0108209 0)
(2.58932 -0.0104069 0)