/*--------------------------------*- C++ -*----------------------------------*\
  =========                 |
  \\      /  F ield         | OpenFOAM: The Open Source CFD Toolbox
   \\    /   O peration     | Website:  https://openfoam.org
    \\  /    A nd           | Version:  10
     \\/     M anipulation  |
\*---------------------------------------------------------------------------*/
FoamFile
{
    format      ascii;
    class       surfaceScalarField;
    location    "10";
    object      phi;
}
// * * * * * * * * * * * * * * * * * * * * * * * * * * * * * * * * * * * * * //

dimensions      [1 0 -1 0 0 0 0];

internalField   nonuniform List<scalar> 
10325
(
0.00840003
1.79441e-10
0.00840001
4.17903e-10
0.0084001
2.71051e-09
0.00839986
3.71174e-09
0.00840036
2.01445e-08
0.00839921
1.74887e-08
0.00840123
1.52688e-07
0.00839669
6.82705e-08
0.00840399
9.60242e-07
0.0083883
6.79701e-07
0.0084064
4.52325e-06
0.0083732
7.91115e-06
0.00835419
3.12199e-05
0.00822071
0.000126691
0.00762073
0.000588748
0.00701376
0.000607201
0.00640746
0.000606505
0.00577948
0.000628009
0.00511794
0.000661296
0.00440817
0.000709357
0.00364076
0.000766941
0.00281572
0.000824477
0.00193707
0.000878122
0.00100195
0.000934572
0.00100133
0.00840003
1.05663e-10
0.00840001
1.24579e-09
0.00840004
2.58689e-09
0.00839995
1.28941e-08
0.00840021
1.68232e-08
0.00839914
9.60047e-08
0.00840194
9.92162e-08
0.0083943
6.34103e-07
0.00840962
6.22053e-07
0.00838182
3.54274e-06
0.00841177
4.99022e-06
0.00837122
2.07528e-05
0.00835768
6.07867e-05
0.00821675
0.00025515
0.00761756
0.0011784
0.00700793
0.00121725
0.00641132
0.00120354
0.00578629
0.0012529
0.00512662
0.00132066
0.00441015
0.00142544
0.00363434
0.00154225
0.00279998
0.00165825
0.00190876
0.00176881
0.000967818
0.00187495
0.00196852
0.00840003
1.69321e-10
0.00840001
1.80767e-09
0.00840008
3.92577e-09
0.0083999
1.72795e-08
0.00840018
3.21354e-08
0.0083997
1.0061e-07
0.00839977
2.38416e-07
0.00839966
5.61177e-07
0.0083982
1.55809e-06
0.00839712
3.50241e-06
0.00839726
1.01034e-05
0.00837885
2.79016e-05
0.00835286
9.29458e-05
0.00822554
0.000374183
0.00763834
0.00175657
0.00702597
0.00183026
0.00643601
0.0017938
0.00581976
0.00186881
0.00516479
0.00197522
0.00445046
0.00213935
0.00367242
0.00231965
0.00283284
0.00249721
0.00193005
0.00267112
0.00097563
0.00282872
0.00294344
0.00840003
5.08167e-10
0.00840005
1.23299e-09
0.00839997
9.13198e-09
0.00840015
1.20879e-08
0.0083996
6.62081e-08
0.00840107
8.40093e-08
0.00839711
4.16261e-07
0.00840655
5.43926e-07
0.00838578
2.4569e-06
0.00842046
4.00848e-06
0.00836753
1.43089e-05
0.00840885
3.56914e-05
0.00833838
0.000123112
0.0082445
0.000482875
0.00767286
0.00231233
0.00706366
0.00243965
0.00648544
0.0023724
0.00588062
0.00247335
0.00523546
0.00261996
0.00453004
0.00284435
0.00375655
0.00309253
0.00291299
0.0033402
0.00199838
0.00358505
0.00101677
0.00380967
0.00395955
0.00840003
3.51016e-10
0.00840002
2.6253e-09
0.00840002
7.99267e-09
0.00840001
2.52215e-08
0.00840005
5.73118e-08
0.00839966
1.74788e-07
0.00840062
3.36427e-07
0.00839705
1.13431e-06
0.00840352
2.03638e-06
0.00839062
6.94337e-06
0.00840074
1.491e-05
0.00838107
4.74979e-05
0.0083614
0.000148008
0.00825371
0.000582266
0.00772274
0.00282996
0.00712011
0.003043
0.00655522
0.00293801
0.00596584
0.00306245
0.00533626
0.00324917
0.00464605
0.00353411
0.00388334
0.00385458
0.0030394
0.00418347
0.00210666
0.00451736
0.00108458
0.00483111
0.00504342
0.00840003
4.41591e-10
0.0084
3.03251e-09
0.00840011
9.41622e-09
0.00839985
2.95008e-08
0.00840041
7.30304e-08
0.00839913
1.85593e-07
0.00840186
4.93653e-07
0.00839557
1.08269e-06
0.00840693
3.18624e-06
0.0083851
6.72273e-06
0.00841132
2.01322e-05
0.0083676
5.32499e-05
0.00836844
0.000175831
0.00826674
0.000664682
0.00780385
0.00328197
0.00720798
0.0036408
0.00665235
0.00349453
0.00608087
0.00363364
0.00547207
0.00385758
0.00480346
0.00420226
0.00405721
0.00460037
0.00321829
0.00502173
0.00226715
0.00546785
0.00118941
0.0059081
0.00623202
0.00840003
5.4894e-10
0.00840005
3.08037e-09
0.00839997
1.18233e-08
0.00840017
3.01197e-08
0.00839972
8.76275e-08
0.0084007
2.06286e-07
0.00839854
5.35603e-07
0.00840224
1.34769e-06
0.00839416
3.17897e-06
0.00840637
8.72339e-06
0.00838169
2.12289e-05
0.00840203
6.24015e-05
0.00835599
0.000195458
0.0082978
0.000730781
0.00795236
0.00360914
0.0073504
0.00424435
0.006794
0.00405209
0.00623919
0.00418822
0.00565501
0.00444144
0.00501519
0.00484147
0.00429167
0.00532322
0.00346336
0.00584925
0.00249899
0.00643142
0.0013541
0.00705228
0.0075852
0.00840003
4.88085e-10
0.0084
3.93484e-09
0.00840011
1.10627e-08
0.00839985
3.83346e-08
0.00840048
8.38698e-08
0.00839901
2.45727e-07
0.00840242
5.54782e-07
0.0083948
1.47559e-06
0.00841044
3.5969e-06
0.0083806
9.07469e-06
0.00842086
2.39596e-05
0.00836618
6.62927e-05
0.00839231
0.000209131
0.00833669
0.000761122
0.00822088
0.00371222
0.00758824
0.00488034
0.0070092
0.00463279
0.00646128
0.00473599
0.00590209
0.00500036
0.00529427
0.0054488
0.00460379
0.0060132
0.00379821
0.00665408
0.00283648
0.00739228
0.00162582
0.00826203
0.00921001
0.00840002
5.96727e-10
0.00840005
3.43208e-09
0.00839997
1.27984e-08
0.00840019
3.40743e-08
0.00839968
9.35408e-08
0.00840091
2.36525e-07
0.00839817
5.69628e-07
0.00840459
1.53547e-06
0.00839088
3.47382e-06
0.00841554
9.74076e-06
0.00837758
2.32962e-05
0.0084204
6.77419e-05
0.00838347
0.000205585
0.0084239
0.00073636
0.00867247
0.00344259
0.00800181
0.00555378
0.0073419
0.00529436
0.0067911
0.00528685
0.00623977
0.0055515
0.00566482
0.00602317
0.00501232
0.00666488
0.00427639
0.00738915
0.0033787
0.00828908
0.00210213
0.00953766
0.0113109
0.00840003
5.61048e-10
0.00840002
3.22061e-09
0.00840007
1.15951e-08
0.00839996
3.12318e-08
0.00840017
8.7279e-08
0.00839984
1.99419e-07
0.00840016
5.77236e-07
0.00840019
1.18435e-06
0.00839943
3.64218e-06
0.00840177
7.51225e-06
0.00840455
2.25315e-05
0.00840798
5.58126e-05
0.00844753
0.000174634
0.0085836
0.00059279
0.00942204
0.00258542
0.00870143
0.00627687
0.00783494
0.00616254
0.00728536
0.00583707
0.00670497
0.00613171
0.00616237
0.00656541
0.00558968
0.00723668
0.00496139
0.00801635
0.00413993
0.00910925
0.00293503
0.0107411
0.0142445
0.00840003
4.53116e-10
0.00840004
2.75043e-09
0.0084
1.00195e-08
0.0084001
2.68799e-08
0.00839992
7.35869e-08
0.00840025
1.83587e-07
0.00839993
4.42982e-07
0.00839986
1.17314e-06
0.00840132
2.6221e-06
0.00840018
7.28481e-06
0.00840534
1.68436e-05
0.00841905
4.72752e-05
0.00844976
0.000133829
0.008599
0.000445422
0.00932091
0.00185533
0.00902915
0.00656268
0.00841916
0.00676982
0.00778606
0.00647061
0.00726628
0.00665093
0.00676796
0.00706298
0.00632488
0.00767864
0.00584908
0.00849076
0.00542722
0.00952945
0.00538954
0.0107768
0.0113395
0.0082918
0.00840003
3.96896e-10
0.00840002
2.59586e-09
0.00840008
8.63025e-09
0.00839993
2.54253e-08
0.00840031
6.33057e-08
0.00839948
1.68791e-07
0.00840152
3.97425e-07
0.00839728
1.04027e-06
0.00840743
2.45205e-06
0.00838825
6.35151e-06
0.00842348
1.55657e-05
0.0083824
4.16898e-05
0.00844178
0.00011816
0.00847411
0.000385373
0.00880224
0.00152791
0.0089136
0.00643652
0.00863652
0.00704453
0.00811422
0.00699189
0.00769285
0.00707097
0.007296
0.00745853
0.00695042
0.00802268
0.00668259
0.00875673
0.00658493
0.00962474
0.00698079
0.0103782
0.0104272
0.00788943
0.00840003
3.84864e-10
0.00840002
2.47146e-09
0.00840007
8.12511e-09
0.00839995
2.42355e-08
0.00840023
6.10208e-08
0.00839964
1.57492e-07
0.00840105
3.97346e-07
0.00839806
9.39967e-07
0.0084048
2.50119e-06
0.00839165
5.68062e-06
0.00841565
1.5597e-05
0.00838286
3.83784e-05
0.00843015
0.000111568
0.00842805
0.000352543
0.00863547
0.00133218
0.00890938
0.00614348
0.00862588
0.00732614
0.00828146
0.0073349
0.00799858
0.00735303
0.00773409
0.00772115
0.00750694
0.00824761
0.00739622
0.00886481
0.00755588
0.00946243
0.00801424
0.0099159
0.00985502
0.00858019
0.00840003
3.29846e-10
0.00840004
2.42783e-09
0.00840001
7.55226e-09
0.00840009
2.34982e-08
0.00839992
5.66344e-08
0.00840033
1.54712e-07
0.00839951
3.58161e-07
0.00840107
9.6967e-07
0.00839818
2.20218e-06
0.00840332
5.98011e-06
0.00839456
1.41042e-05
0.00841111
3.82247e-05
0.00839509
0.000103948
0.00843796
0.000328403
0.00856705
0.00118943
0.00914983
0.00554672
0.00887024
0.00760517
0.00856923
0.00763511
0.0083104
0.00760965
0.00814025
0.00788978
0.00803494
0.00834986
0.00805925
0.00883677
0.00825996
0.00925711
0.00866061
0.00951092
0.0093852
0.00912426
0.00840003
3.67961e-10
0.00840004
1.94184e-09
0.00840001
7.74174e-09
0.00840008
1.90506e-08
0.0083999
5.70378e-08
0.00840042
1.30299e-07
0.00839924
3.55749e-07
0.0084023
8.25183e-07
0.00839591
2.1521e-06
0.00841102
5.25403e-06
0.00838396
1.33192e-05
0.00843132
3.46046e-05
0.00838519
9.43684e-05
0.00847312
0.000287867
0.00862054
0.00101173
0.00978317
0.00437277
0.00938189
0.00800444
0.00897515
0.00804047
0.00869428
0.0078889
0.00854099
0.00804025
0.00850169
0.00838525
0.00857924
0.0087555
0.00879105
0.00903979
0.00913772
0.00915787
0.00898457
0.00953084
0.00840003
2.68025e-10
0.00840002
1.76696e-09
0.00840005
5.7696e-09
0.00839999
1.7256e-08
0.00840016
4.32111e-08
0.0083998
1.11397e-07
0.0084008
2.77333e-07
0.00839891
6.66138e-07
0.00840424
1.72893e-06
0.0083948
3.98996e-06
0.00841848
1.06773e-05
0.00839281
2.52269e-05
0.0084625
6.95595e-05
0.00850865
0.000196865
0.00889143
0.000650694
0.0106176
0.00263153
0.010099
0.00851493
0.0097398
0.00839645
0.00921562
0.00841062
0.00899553
0.00825748
0.00894599
0.0084296
0.00902117
0.00867461
0.00921468
0.00883958
0.00951055
0.00885387
0.00864318
0.0098428
0.00840003
2.32604e-10
0.00840003
1.376e-09
0.00840002
5.03545e-09
0.00840006
1.34881e-08
0.00839999
3.70322e-08
0.00840015
9.03962e-08
0.00839997
2.27691e-07
0.0084002
5.63949e-07
0.00840076
1.3532e-06
0.0083995
3.45915e-06
0.00840554
8.20625e-06
0.00840298
2.15223e-05
0.00842356
5.43372e-05
0.00846224
0.000155615
0.00861845
0.000494463
0.00932444
0.00191705
0.0102383
0.00758102
0.00995947
0.00867034
0.00964639
0.00871896
0.00940198
0.00849757
0.00933972
0.00848648
0.00940494
0.00860258
0.00956842
0.00866729
0.00981859
0.00859315
0.00835531
0.0100945
0.00840003
1.90402e-10
0.00840003
1.23012e-09
0.00840004
4.13849e-09
0.00840002
1.19875e-08
0.00840007
3.0738e-08
0.00839993
7.88435e-08
0.0084004
1.94558e-07
0.00839926
4.83012e-07
0.0084026
1.1992e-06
0.00839564
2.92683e-06
0.00841349
7.36269e-06
0.00838453
1.82427e-05
0.00843826
4.75218e-05
0.00840933
0.000130924
0.00853728
0.00040768
0.00893943
0.00148596
0.0101436
0.00636182
0.0100779
0.00873185
0.00990135
0.0088911
0.00970966
0.0086845
0.00965881
0.00852919
0.00972289
0.00852974
0.00986608
0.00851358
0.0100955
0.0083507
0.00811779
0.0103185
0.00840003
1.5761e-10
0.00840003
1.01999e-09
0.00840003
3.46451e-09
0.00840003
9.96984e-09
0.00840005
2.5749e-08
0.0084
6.65849e-08
0.00840021
1.61572e-07
0.00839966
4.14583e-07
0.00840167
9.8666e-07
0.00839711
2.55001e-06
0.00841064
6.0738e-06
0.00838748
1.58863e-05
0.00843657
3.94916e-05
0.00840748
0.000109004
0.00853282
0.000324853
0.00885695
0.00113067
0.0106236
0.00457971
0.0104308
0.00891773
0.0103123
0.00900419
0.0100919
0.00889846
0.00997954
0.00863333
0.0100116
0.00848566
0.0101462
0.00836493
0.0103233
0.00815938
0.00790418
0.010521
0.00840003
1.10616e-10
0.00840003
8.35373e-10
0.00840004
2.51694e-09
0.00840002
8.14942e-09
0.00840007
1.88458e-08
0.00839996
5.33785e-08
0.00840034
1.18779e-07
0.00839959
3.24602e-07
0.00840196
7.25914e-07
0.00839779
1.93838e-06
0.00841065
4.45977e-06
0.00839186
1.164e-05
0.0084424
2.82278e-05
0.00842103
7.55085e-05
0.00858557
0.000211894
0.00899325
0.000686646
0.010922
0.00264955
0.0110856
0.00873615
0.0107833
0.00929785
0.01049
0.00918273
0.0103346
0.00877713
0.0103282
0.00847771
0.0104198
0.00825869
0.0105342
0.0080286
0.00770038
0.0107194
0.00840003
1.01486e-10
0.00840003
6.04706e-10
0.00840003
2.16198e-09
0.00840003
5.89772e-09
0.00840003
1.60473e-08
0.00840007
3.85944e-08
0.00839997
1.01455e-07
0.00840041
2.34272e-07
0.00839946
6.16065e-07
0.00840282
1.41101e-06
0.00839646
3.7274e-06
0.00841575
8.60271e-06
0.00838965
2.2875e-05
0.0084549
5.63574e-05
0.00845248
0.000159746
0.00868785
0.000493507
0.00946113
0.00184034
0.0110246
0.00715035
0.0110143
0.00929425
0.0108484
0.00933485
0.0106473
0.00896515
0.010618
0.00849144
0.0106638
0.00819648
0.0107636
0.00790817
0.00750297
0.0109403
0.00840003
8.2882e-11
0.00840003
4.66109e-10
0.00840003
1.7628e-09
0.00840004
4.56254e-09
0.00840001
1.2913e-08
0.0084001
3.06788e-08
0.00839995
7.96789e-08
0.00840037
1.91516e-07
0.00839973
4.76775e-07
0.0084014
1.18029e-06
0.00839947
2.84809e-06
0.00840507
7.32285e-06
0.00840182
1.75949e-05
0.00842537
4.67434e-05
0.00843696
0.000123601
0.00857555
0.000375885
0.00908068
0.00131316
0.0111189
0.00508326
0.0112018
0.00919302
0.0111617
0.00935692
0.0109822
0.00912739
0.0108714
0.00858651
0.010885
0.00816307
0.011008
0.0077637
0.00731082
0.0111805
0.00840003
5.1194e-11
0.00840003
3.80826e-10
0.00840003
1.1593e-09
0.00840003
3.70653e-09
0.00840005
8.67309e-09
0.0084
2.40785e-08
0.00840016
5.48765e-08
0.00839988
1.44954e-07
0.00840081
3.35461e-07
0.00839935
8.57086e-07
0.00840439
2.04908e-06
0.00839715
5.08536e-06
0.0084209
1.25666e-05
0.00840349
3.13291e-05
0.00848833
8.1885e-05
0.00858368
0.000232056
0.00917218
0.00074658
0.0114151
0.00281242
0.0117302
0.00884754
0.0114439
0.00962034
0.0113012
0.00924752
0.0111701
0.00869574
0.0111829
0.0081258
0.0112967
0.00762882
0.00713152
0.011462
0.00840003
4.32756e-11
0.00840003
2.62418e-10
0.00840003
9.29985e-10
0.00840003
2.57471e-09
0.00840003
6.86169e-09
0.00840006
1.69946e-08
0.00839999
4.26275e-08
0.00840025
1.03518e-07
0.00839975
2.5603e-07
0.00840149
6.21236e-07
0.00839841
1.52974e-06
0.00840836
3.7318e-06
0.00839308
9.22561e-06
0.00843587
2.29942e-05
0.00840409
5.89765e-05
0.00853414
0.000161994
0.00871734
0.000502525
0.00968788
0.00185611
0.0115664
0.00691006
0.0115529
0.00960783
0.0115595
0.00921829
0.0115004
0.00873251
0.0115019
0.00810267
0.0116064
0.00750862
0.00696463
0.011767
0.00840003
3.13925e-11
0.00840003
1.94171e-10
0.00840003
6.82406e-10
0.00840003
1.8862e-09
0.00840003
5.04845e-09
0.00840005
1.24433e-08
0.00840001
3.14085e-08
0.00840018
7.64699e-08
0.00839983
1.88592e-07
0.00840109
4.63454e-07
0.0083988
1.12702e-06
0.00840621
2.80302e-06
0.00839415
6.82593e-06
0.00842805
1.72472e-05
0.00839568
4.336e-05
0.00849717
0.000116834
0.00859226
0.000345936
0.00926517
0.00119988
0.0115957
0.00451044
0.0118161
0.00935068
0.0117498
0.00926045
0.0117455
0.00871438
0.0117983
0.00803437
0.0119336
0.00736544
0.00680208
0.0120974
0.00840003
2.20545e-11
0.00840003
1.36214e-10
0.00840003
4.76491e-10
0.00840003
1.33529e-09
0.00840003
3.51143e-09
0.00840004
8.75697e-09
0.00840003
2.19499e-08
0.00840011
5.29176e-08
0.00839994
1.31778e-07
0.00840074
3.14762e-07
0.00839925
7.83782e-07
0.00840484
1.87973e-06
0.00839599
4.66487e-06
0.00842546
1.13444e-05
0.00839593
2.87151e-05
0.00849628
7.38088e-05
0.00856783
0.000208765
0.00912618
0.00066833
0.0110681
0.00251876
0.0119865
0.00836874
0.0119788
0.00923561
0.0120531
0.00861898
0.0121601
0.00792029
0.0122801
0.00724866
0.00666918
0.0124263
0.00840003
1.59983e-11
0.00840003
9.41305e-11
0.00840003
3.44988e-10
0.00840003
9.1637e-10
0.00840003
2.54015e-09
0.00840004
6.05405e-09
0.00840002
1.56258e-08
0.00840011
3.72358e-08
0.00839993
9.29017e-08
0.00840059
2.2585e-07
0.00839933
5.48698e-07
0.00840346
1.35884e-06
0.00839648
3.27231e-06
0.00841724
8.27141e-06
0.00839144
2.00527e-05
0.00845984
5.25003e-05
0.00846292
0.000142411
0.00872476
0.00044368
0.0095389
0.00164449
0.0115854
0.00622186
0.0119862
0.00880256
0.0121866
0.00841853
0.0124029
0.00770617
0.0125812
0.00708116
0.00653542
0.012738
0.00840003
1.12462e-11
0.00840003
6.37044e-11
0.00840003
2.37343e-10
0.00840003
6.22171e-10
0.00840003
1.73823e-09
0.00840003
4.08844e-09
0.00840004
1.0872e-08
0.00840004
2.47154e-08
0.00840005
6.55486e-08
0.00840022
1.47514e-07
0.00839988
3.89102e-07
0.00840169
8.88882e-07
0.00839845
2.30432e-06
0.0084113
5.40127e-06
0.00839383
1.39184e-05
0.00844654
3.44655e-05
0.00844523
9.35529e-05
0.00864061
0.000275471
0.00927493
0.000955954
0.0115934
0.00377333
0.0119721
0.00837566
0.0123155
0.00809402
0.0125627
0.00747902
0.0127884
0.00688394
0.00638035
0.0129703
0.00840003
6.16281e-12
0.00840003
4.63084e-11
0.00840003
1.40523e-10
0.00840003
4.52368e-10
0.00840003
1.04287e-09
0.00840003
2.94699e-09
0.00840005
6.47022e-09
0.0084
1.7743e-08
0.00840016
3.89319e-08
0.0083999
1.04122e-07
0.00840072
2.34536e-07
0.00839949
6.05874e-07
0.00840328
1.41357e-06
0.00839843
3.53889e-06
0.00841471
8.61287e-06
0.00840519
2.15421e-05
0.00846789
5.61291e-05
0.00854279
0.000159591
0.00897952
0.000518604
0.0105994
0.00208526
0.0115993
0.00728373
0.0121713
0.00753656
0.0125636
0.00710953
0.0128687
0.00661491
0.00619982
0.0130782
0.00840003
4.80314e-12
0.00840003
3.12457e-11
0.00840003
1.03584e-10
0.00840003
3.03151e-10
0.00840003
7.74646e-10
0.00840003
1.93945e-09
0.00840003
4.92982e-09
0.00840004
1.14886e-08
0.00840001
3.01094e-08
0.00840016
6.72018e-08
0.00839977
1.81479e-07
0.00840115
3.95036e-07
0.00839805
1.08733e-06
0.00840728
2.34792e-06
0.00839064
6.53555e-06
0.00842868
1.47465e-05
0.00839305
4.0864e-05
0.0084834
0.000110299
0.00858675
0.000355809
0.00926149
0.00137978
0.0106495
0.00573518
0.0114519
0.00674615
0.0121526
0.00643035
0.0125998
0.00620274
0.00592706
0.0129005
0.00840003
3.85967e-12
0.00840003
2.08737e-11
0.00840003
8.14712e-11
0.00840003
2.05725e-10
0.00840003
5.96907e-10
0.00840004
1.40895e-09
0.00840002
3.64727e-09
0.00840006
8.94217e-09
0.00839998
2.12677e-08
0.00840019
5.5767e-08
0.00839978
1.24277e-07
0.00840082
3.39926e-07
0.00839886
7.34889e-07
0.00840316
2.07871e-06
0.00839585
4.45453e-06
0.00841168
1.26983e-05
0.0083938
2.98678e-05
0.00843956
8.74449e-05
0.00848143
0.000267759
0.0088275
0.00100021
0.00984203
0.00453586
0.0107074
0.00591815
0.01152
0.00565572
0.0120532
0.00570233
0.0055414
0.0124654
0.00840003
2.45488e-12
0.00840003
1.67121e-11
0.00840003
5.34017e-11
0.00840003
1.63789e-10
0.00840003
4.0453e-10
0.00840003
1.05489e-09
0.00840004
2.6677e-09
0.00840003
6.21802e-09
0.00840003
1.71572e-08
0.00840007
3.63045e-08
0.00839988
1.08138e-07
0.00840056
2.14036e-07
0.00839858
6.70675e-07
0.00840424
1.30425e-06
0.00839189
4.116e-06
0.00841786
8.46696e-06
0.00838284
2.55758e-05
0.00843621
6.49672e-05
0.00844244
0.000209316
0.00866796
0.000753618
0.00954325
0.00346272
0.0102715
0.0052454
0.0108813
0.00508794
0.0114152
0.005185
0.00506645
0.0119069
0.00840003
1.96799e-12
0.00840003
1.09021e-11
0.00840003
4.17319e-11
0.00840003
1.07726e-10
0.00840003
3.06597e-10
0.00840003
7.45125e-10
0.00840002
1.82724e-09
0.00840005
4.86442e-09
0.00840001
1.04995e-08
0.00840008
3.09507e-08
0.00839999
6.05498e-08
0.00840001
1.94457e-07
0.00840044
3.61388e-07
0.0083989
1.1983e-06
0.00840299
2.24626e-06
0.00839772
7.2975e-06
0.00840862
1.55554e-05
0.00841746
4.77654e-05
0.00846873
0.000137996
0.00868102
0.000497127
0.00967039
0.00227883
0.0101706
0.00478468
0.0104032
0.00488511
0.0109142
0.00469404
0.00459061
0.0114105
0.00840003
1.27413e-12
0.00840003
8.98723e-12
0.00840003
2.72559e-11
0.00840003
8.79149e-11
0.00840003
2.03698e-10
0.00840003
5.60852e-10
0.00840003
1.36044e-09
0.00840003
3.20209e-09
0.00840002
8.86229e-09
0.00840007
1.80817e-08
0.00839987
5.6041e-08
0.00840053
1.0355e-07
0.00839876
3.46591e-07
0.00840368
6.05171e-07
0.00839271
2.12094e-06
0.008418
3.88689e-06
0.00837996
1.2638e-05
0.00844134
2.91949e-05
0.00843265
9.21313e-05
0.0086173
0.000306222
0.00942877
0.00137046
0.00979055
0.00438297
0.00993115
0.0047247
0.0104146
0.00421662
0.0041224
0.01089
0.00840003
1.03187e-12
0.00840003
7.04259e-12
0.00840003
2.25517e-11
0.00840003
6.83404e-11
0.00840003
1.66531e-10
0.00840003
4.4505e-10
0.00840002
1.03434e-09
0.00840005
2.75983e-09
0.0084
6.18005e-09
0.0084001
1.6953e-08
0.0083999
3.69766e-08
0.00840019
1.02335e-07
0.00839987
2.21856e-07
0.00839965
6.24514e-07
0.00840037
1.34454e-06
0.00839935
3.71214e-06
0.00839922
8.72362e-06
0.00840785
2.40713e-05
0.00841044
6.89055e-05
0.00846917
0.000230405
0.00877462
0.000990378
0.0092239
0.00382308
0.00954896
0.00433874
0.00991356
0.00386762
0.0036883
0.0103588
0.00840003
1.01164e-12
0.00840003
5.35084e-12
0.00840003
2.08838e-11
0.00840003
5.15984e-11
0.00840003
1.54902e-10
0.00840003
3.34459e-10
0.00840002
9.91252e-10
0.00840005
2.03771e-09
0.00839999
6.06047e-09
0.00840013
1.22392e-08
0.00839983
3.66487e-08
0.00840052
7.44572e-08
0.00839901
2.19106e-07
0.00840226
4.57442e-07
0.00839504
1.29848e-06
0.00840875
2.92064e-06
0.00838428
7.91523e-06
0.00841737
2.02828e-05
0.00838405
5.95408e-05
0.0084173
0.000195415
0.00853789
0.000801813
0.00871706
0.00351507
0.00930457
0.00374415
0.00956776
0.00361751
0.00333598
0.00993228
0.00840003
8.42746e-13
0.00840003
5.10969e-12
0.00840003
1.815e-11
0.00840003
4.97823e-11
0.00840003
1.34523e-10
0.00840003
3.31586e-10
0.00840003
8.38131e-10
0.00840004
2.06436e-09
0.00840001
5.0425e-09
0.00840006
1.23912e-08
0.00839998
3.02375e-08
0.00839999
7.468e-08
0.00840012
1.80426e-07
0.00839897
4.49395e-07
0.00840141
1.08831e-06
0.00839527
2.74457e-06
0.00840276
6.87784e-06
0.00839381
1.81639e-05
0.00839449
5.25684e-05
0.00840829
0.000170888
0.00846278
0.000685993
0.00860332
0.00323066
0.00894974
0.00339741
0.00931123
0.00326146
0.00301692
0.00964461
0.00840003
6.93902e-13
0.00840003
5.14595e-12
0.00840003
1.58458e-11
0.00840003
5.07728e-11
0.00840003
1.16427e-10
0.00840003
3.391e-10
0.00840003
7.11029e-10
0.00840004
2.07966e-09
0.00840001
4.26136e-09
0.00840005
1.2671e-08
0.00839998
2.52505e-08
0.00839997
7.64687e-08
0.00840012
1.51897e-07
0.00839891
4.53462e-07
0.00840154
9.4617e-07
0.00839445
2.65956e-06
0.00840403
6.18584e-06
0.00839004
1.68482e-05
0.00839496
4.72267e-05
0.00838723
0.000154265
0.00841664
0.000605183
0.00852678
0.00296395
0.00880637
0.00312734
0.00916893
0.00291004
0.00273704
0.00946158
0.00840003
9.22811e-13
0.00840003
3.82337e-12
0.00840003
1.80086e-11
0.00840003
3.70376e-11
0.00840003
1.33607e-10
0.00840003
2.39256e-10
0.00840002
8.51812e-10
0.00840004
1.42268e-09
0.0084
5.13304e-09
0.00840011
8.68774e-09
0.00839986
2.99609e-08
0.0084004
5.52624e-08
0.0083992
1.72182e-07
0.00840149
3.56983e-07
0.00839635
9.89698e-07
0.00840469
2.32313e-06
0.00838782
5.92945e-06
0.00840844
1.56033e-05
0.00837386
4.37977e-05
0.00839165
0.000141596
0.00838564
0.000545005
0.00846615
0.00271384
0.00873968
0.00287493
0.00907167
0.00259718
0.00247632
0.00934413
0.00840003
5.23982e-13
0.00840003
4.87754e-12
0.00840003
1.27439e-11
0.00840003
4.75988e-11
0.00840003
9.3592e-11
0.00840003
3.27661e-10
0.00840003
5.42611e-10
0.00840003
2.09283e-09
0.00840004
3.1633e-09
0.00839999
1.27833e-08
0.00840012
1.92005e-08
0.00839968
7.54922e-08
0.00840082
1.19602e-07
0.00839757
4.40444e-07
0.00840513
7.66332e-07
0.00838782
2.518e-06
0.00841655
5.20453e-06
0.00837073
1.51669e-05
0.00840832
4.02616e-05
0.00836459
0.000131412
0.00837504
0.000495642
0.00842081
0.00247402
0.00869829
0.00263448
0.00900142
0.00232213
0.00222388
0.00926421
0.00840003
6.05712e-13
0.00840003
3.91268e-12
0.00840003
1.31323e-11
0.00840003
3.77843e-11
0.00840003
9.80105e-11
0.00840003
2.46769e-10
0.00840003
6.32895e-10
0.00840004
1.52109e-09
0.00840001
3.89313e-09
0.00840009
9.17678e-09
0.00839985
2.3643e-08
0.00840048
5.60203e-08
0.00839888
1.42114e-07
0.00840265
3.32012e-07
0.00839382
8.63122e-07
0.00841172
2.03407e-06
0.00837648
5.31407e-06
0.00842162
1.35294e-05
0.0083592
3.80784e-05
0.00839265
0.000120505
0.0083568
0.000451276
0.0083881
0.00223657
0.00867284
0.0024063
0.00894424
0.00208668
0.00196992
0.00921338
0.00840003
8.22919e-13
0.00840003
2.45661e-12
0.00840003
1.56949e-11
0.00840003
2.43159e-11
0.00840003
1.12825e-10
0.00840003
1.73764e-10
0.00840003
6.91684e-10
0.00840004
1.14084e-09
0.0084
4.06838e-09
0.00840009
7.53557e-09
0.00839985
2.30882e-08
0.00840044
4.92955e-08
0.008399
1.30822e-07
0.00840227
3.25893e-07
0.00839456
7.24992e-07
0.00840943
2.11677e-06
0.00837987
4.43489e-06
0.00841624
1.31568e-05
0.00836219
3.42024e-05
0.00838793
0.000110223
0.00835235
0.000406719
0.00836154
0.00199782
0.00866405
0.0021814
0.00894273
0.00185456
0.00173246
0.00920116
0.00840003
4.14918e-13
0.00840003
2.98116e-12
0.00840003
9.52416e-12
0.00840003
2.90511e-11
0.00840003
7.32259e-11
0.00840003
1.94264e-10
0.00840003
4.78638e-10
0.00840002
1.19829e-09
0.00840005
2.9204e-09
0.00839997
7.366e-09
0.00840014
1.81247e-08
0.00839976
4.48774e-08
0.00840043
1.09694e-07
0.00839897
2.79152e-07
0.00840065
6.77023e-07
0.00839621
1.7228e-06
0.00840089
4.32836e-06
0.008385
1.12317e-05
0.00839484
3.13786e-05
0.0083653
9.79246e-05
0.00835379
0.00036185
0.00834465
0.00175269
0.00867238
0.00194988
0.00895863
0.00162321
0.00149803
0.00921861
0.00840003
4.12676e-13
0.00840003
2.16277e-12
0.00840003
8.19477e-12
0.00840003
2.13616e-11
0.00840003
6.1111e-11
0.00840003
1.44342e-10
0.00840003
3.96056e-10
0.00840002
9.14489e-10
0.00840005
2.52637e-09
0.00839998
5.63783e-09
0.00840012
1.58353e-08
0.00839981
3.51998e-08
0.00840024
9.93072e-08
0.00839941
2.16261e-07
0.00839964
6.35093e-07
0.00839781
1.37656e-06
0.0083987
3.90141e-06
0.00838753
9.5077e-06
0.00839305
2.74905e-05
0.00836618
8.46131e-05
0.00835652
0.000313128
0.00833558
0.00149946
0.00868756
0.00170742
0.00898137
0.0013931
0.00126687
0.00924371
0.00840003
7.9022e-14
0.00840003
2.33997e-12
0.00840003
3.02331e-12
0.00840003
2.33569e-11
0.00840003
2.56351e-11
0.00840003
1.46797e-10
0.00840003
2.01204e-10
0.00840002
8.52911e-10
0.00840005
1.57192e-09
0.00839998
4.83465e-09
0.00840015
1.18057e-08
0.00839974
2.68408e-08
0.00840064
8.50062e-08
0.0083985
1.55493e-07
0.00840275
5.75296e-07
0.0083925
9.40747e-07
0.00840901
3.66993e-06
0.00837585
6.8816e-06
0.00840585
2.38207e-05
0.00836063
6.86703e-05
0.00836012
0.000260212
0.00832375
0.00124366
0.00869519
0.00145439
0.00899255
0.00116781
0.00104703
0.00924622
0.00840003
3.4532e-13
0.00840003
3.92664e-13
0.00840003
6.23514e-12
0.00840003
4.13737e-12
0.00840003
4.50197e-11
0.00840003
3.77193e-11
0.00840003
2.63718e-10
0.00840004
3.42191e-10
0.00840002
1.45994e-09
0.00840005
2.82083e-09
0.00839999
7.83187e-09
0.00840001
2.23468e-08
0.00840007
4.33988e-08
0.00839921
1.63278e-07
0.00840132
2.54978e-07
0.00839425
1.13901e-06
0.00840576
1.66947e-06
0.00838397
7.12654e-06
0.00839579
1.53837e-05
0.00837242
5.52666e-05
0.0083573
0.000200825
0.00833252
0.000977615
0.00871063
0.00118944
0.00899003
0.000953172
0.00084235
0.00922329
0.00840003
9.24431e-14
0.00840003
8.54721e-13
0.00840003
2.29526e-12
0.00840003
8.16012e-12
0.00840003
1.73841e-11
0.00840003
5.58536e-11
0.00840003
1.07137e-10
0.00840002
3.59209e-10
0.00840005
6.45049e-10
0.00839998
2.34642e-09
0.00840014
4.02984e-09
0.00839978
1.49002e-08
0.00840058
2.56477e-08
0.00839878
9.86418e-08
0.00840234
1.68199e-07
0.00839393
6.36703e-07
0.00840818
1.31592e-06
0.00837965
4.15317e-06
0.00840851
1.12358e-05
0.00836961
3.71041e-05
0.00836206
0.000141316
0.00838653
0.00068926
0.00873261
0.000918849
0.00897756
0.000751136
0.000646923
0.00919521
0.00840003
1.06466e-13
0.00840003
4.05098e-13
0.00840003
1.72905e-12
0.00840003
4.30895e-12
0.00840003
1.25995e-11
0.00840003
2.67356e-11
0.00840003
8.5867e-11
0.00840002
1.38396e-10
0.00840005
5.89601e-10
0.00839999
7.3073e-10
0.00840011
3.91214e-09
0.00839987
4.64882e-09
0.00840019
2.56115e-08
0.00839973
2.93739e-08
0.00839951
1.71438e-07
0.00839948
2.18926e-07
0.00839865
1.00271e-06
0.00839392
1.93894e-06
0.00839921
6.5624e-06
0.00838383
1.94977e-05
0.00838007
7.61736e-05
0.00844776
0.00037551
0.00872481
0.000649959
0.0089562
0.00054219
0.000447161
0.00917614
0.00840003
-1.03029e-13
0.00840003
8.56904e-13
0.00840003
-1.21139e-12
0.00840003
8.27696e-12
0.00840003
-7.25411e-12
0.00840003
4.63261e-11
0.00840003
-3.67473e-11
0.00840002
2.2104e-10
0.00840005
-1.69274e-11
0.00839998
9.37835e-10
0.00840014
1.43441e-09
0.00839979
2.36418e-09
0.00840056
1.7498e-08
0.00839886
2.48308e-09
0.00840221
1.44174e-07
0.00839459
-3.29264e-08
0.00840805
9.23564e-07
0.00838269
2.82441e-07
0.00841238
4.14779e-06
0.0083789
7.0616e-06
0.00840107
3.15355e-05
0.00848107
0.000144497
0.00869655
0.000350218
0.0089389
0.000291908
0.000230232
0.00916808
0.00840003
0.00840003
0.00840003
0.00840003
0.00840003
0.00840003
0.00840003
0.00840004
0.00840002
0.00840005
0.00839999
0.00840004
0.00840003
0.00839951
0.008401
0.00839594
0.00840501
0.00839017
0.0084006
0.00838822
0.0083952
0.00842433
0.00865933
0.00892875
0.00916529
0.00396129
0.00432676
0.00156212
0.00239048
-0.000688553
0.00224541
-0.00161156
0.000920109
-0.00222898
0.000615097
-0.00257229
0.000342097
-0.00267338
0.000100706
-0.0027097
3.58417e-05
-0.00277273
6.2319e-05
-0.00283208
5.84744e-05
-0.0028809
4.84133e-05
-0.0028988
1.76893e-05
-0.00289081
-8.35864e-06
-0.00286778
-2.34919e-05
-0.00283571
-3.24161e-05
-0.00279145
-4.41717e-05
-0.00272676
-6.41104e-05
-0.00264384
-8.21087e-05
-0.00254505
-9.75651e-05
-0.00243225
-0.000111639
-0.00230604
-0.000124845
-0.00216786
-0.000136927
-0.00201849
-0.000148498
-0.00185943
-0.000158402
-0.00168562
-0.000173624
-0.00150306
-0.000182658
-0.00131307
-0.000190156
-0.0011181
-0.000195287
-0.000919082
-0.000199453
-0.000715845
-0.00020394
-0.000507778
-0.000208777
-0.000295278
-0.000212811
-7.69226e-05
-0.000218449
0.000147149
-0.000224382
0.000365179
-0.000218331
0.000576101
-0.000210909
0.000782263
-0.000205808
0.000984195
-0.00020163
0.00118004
-0.000195425
0.00137046
-0.000189782
0.00155423
-0.000182859
0.00173406
-0.000178733
0.00191264
-0.000177556
0.00208825
-0.000174248
0.00225783
-0.000168124
0.00242071
-0.000161789
0.00257709
-0.000155186
0.0027282
-0.00014947
0.00287295
-0.000143612
0.0030121
-0.000137972
0.00314556
-0.000132396
0.00327312
-0.000126899
0.00339537
-0.000121425
0.00351199
-0.000116137
0.00362324
-0.000110793
0.00372937
-0.000105703
0.0038301
-0.000100574
0.00392569
-9.56764e-05
0.00401592
-9.07716e-05
0.00410167
-8.60788e-05
0.00418222
-8.14354e-05
0.00425849
-7.69234e-05
0.0043301
-7.25276e-05
0.00439742
-6.82092e-05
0.00446076
-6.40274e-05
0.00451999
-5.99233e-05
0.00457563
-5.5947e-05
0.00462753
-5.20763e-05
0.00467597
-4.83324e-05
0.00472109
-4.47191e-05
0.00476298