/*--------------------------------*- C++ -*----------------------------------*\
  =========                 |
  \\      /  F ield         | OpenFOAM: The Open Source CFD Toolbox
   \\    /   O peration     | Website:  https://openfoam.org
    \\  /    A nd           | Version:  10
     \\/     M anipulation  |
\*---------------------------------------------------------------------------*/
FoamFile
{
    format      ascii;
    class       volScalarField;
    location    "10";
    object      T;
}
// * * * * * * * * * * * * * * * * * * * * * * * * * * * * * * * * * * * * * //

dimensions      [0 0 0 1 0 0 0];

internalField   nonuniform List<scalar> 
5250
(
1.00001
1.00002
1.00005
1.00016
1.00032
1.00099
1.00202
1.00589
1.01294
1.0353
1.0864
1.23527
1.62575
2.40026
2.72749
2.73984
2.73573
2.73907
2.75091
2.76663
2.7787
2.78695
2.79366
2.79847
2.80136
1.00001
1.00002
1.00006
1.00014
1.00037
1.00088
1.0022
1.00548
1.01334
1.03415
1.08658
1.23119
1.62033
2.39149
2.72445
2.73911
2.73495
2.73817
2.74996
2.76559
2.7776
2.78581
2.79249
2.79722
2.79998
1.00001
1.00002
1.00005
1.00016
1.00032
1.00094
1.00201
1.00557
1.01275
1.03382
1.08385
1.22698
1.60386
2.37313
2.71734
2.7376
2.73317
2.73589
2.74736
2.76275
2.7745
2.78283
2.78889
2.79367
2.79668
1.00001
1.00002
1.00005
1.00014
1.00034
1.00083
1.00214
1.00493
1.01329
1.03101
1.08316
1.21627
1.58446
2.34194
2.70629
2.73559
2.73055
2.73229
2.7432
2.75818
2.76958
2.77746
2.78391
2.78789
2.79042
1.00001
1.00002
1.00006
1.00012
1.00035
1.00076
1.00206
1.00477
1.01235
1.03018
1.07838
1.20608
1.55568
2.29918
2.69053
2.73304
2.727
2.72729
2.7375
2.75172
2.76292
2.76996
2.77606
2.78018
2.78244
1.00001
1.00002
1.00005
1.00013
1.00028
1.00083
1.00168
1.00502
1.01065
1.02982
1.07134
1.195
1.5177
2.24296
2.66891
2.73004
2.72244
2.72072
2.73021
2.74338
2.75424
2.76065
2.76534
2.76875
2.77054
1.00001
1.00002
1.00005
1.0001
1.00031
1.00062
1.00189
1.00389
1.0112
1.02523
1.06866
1.17525
1.47792
2.1661
2.64059
2.72627
2.71659
2.71225
2.72088
2.73285
2.74239
2.74835
2.75199
2.75371
2.75395
1
1.00002
1.00004
1.00011
1.00024
1.00068
1.00144
1.00414
1.00889
1.02493
1.05866
1.16035
1.42485
2.07155
2.60319
2.72065
2.70861
2.70168
2.70935
2.72062
2.72844
2.73212
2.73356
2.73233
2.7283
1
1.00001
1.00004
1.00009
1.00024
1.00051
1.0015
1.00309
1.00907
1.01973
1.05458
1.13626
1.37246
1.95195
2.55565
2.71062
2.69635
2.68718
2.69412
2.70416
2.71092
2.71242
2.71001
2.70248
2.68669
1
1.00001
1.00003
1.00009
1.00018
1.00053
1.0011
1.0031
1.00692
1.01852
1.04441
1.11829
1.31118
1.81539
2.4953
2.69263
2.67767
2.66855
2.67498
2.68379
2.6887
2.68748
2.67816
2.65552
2.59833
1
1.00001
1.00003
1.00006
1.00019
1.00038
1.0011
1.00237
1.0065
1.01494
1.03944
1.09822
1.26483
1.69354
2.42865
2.67082
2.65783
2.6489
2.6525
2.65996
2.66317
2.65788
2.63796
2.59045
2.48516
1
1.00001
1.00002
1.00006
1.00014
1.00038
1.00082
1.00236
1.00498
1.01423
1.03203
1.08737
1.2252
1.60491
2.34317
2.63977
2.6432
2.63501
2.63236
2.63556
2.63499
2.62421
2.59459
2.5326
2.42194
1
1.00001
1.00002
1.00005
1.00012
1.00034
1.00069
1.00206
1.00423
1.01227
1.02737
1.07484
1.19099
1.5177
2.21982
2.59215
2.63365
2.62414
2.61684
2.61396
2.60812
2.59135
2.5565
2.49539
2.40253
1
1.00001
1.00002
1.00004
1.00012
1.00023
1.00071
1.00144
1.0042
1.00912
1.02497
1.05984
1.16173
1.42808
2.06735
2.52954
2.62317
2.61379
2.602
2.59426
2.58229
2.56253
2.52603
2.47183
2.39467
1
1.00001
1.00001
1.00003
1.00009
1.0002
1.00056
1.00121
1.00343
1.00735
1.0207
1.04774
1.13044
1.34137
1.88446
2.44732
2.60372
2.59782
2.58601
2.5732
2.56048
2.53855
2.5044
2.45451
2.39065
1
1
1.00001
1.00003
1.00007
1.00018
1.00039
1.00111
1.00231
1.00673
1.01438
1.03992
1.09631
1.2604
1.67494
2.34327
2.56764
2.57167
2.56309
2.5503
2.536
2.51698
2.48633
2.44287
2.38739
1
1
1.00001
1.00002
1.00006
1.00012
1.00037
1.00077
1.00214
1.00477
1.01267
1.03019
1.079
1.20463
1.54573
2.22985
2.52765
2.54982
2.5404
2.52935
2.51657
2.49644
2.47133
2.434
2.38731
1
1
1.00001
1.00002
1.00004
1.00011
1.00026
1.00067
1.00156
1.00415
1.00935
1.02532
1.06038
1.16277
1.42902
2.05231
2.45558
2.53112
2.52453
2.51204
2.49971
2.48203
2.45827
2.4285
2.3889
1
1
1.00001
1.00001
1.00004
1.00008
1.00021
1.00051
1.00124
1.00313
1.00735
1.01937
1.04623
1.12305
1.32329
1.83343
2.35809
2.50522
2.50879
2.49965
2.48548
2.46959
2.4494
2.42322
2.39292
1
1
1
1.00001
1.00003
1.00007
1.00015
1.0004
1.00088
1.00246
1.00524
1.01478
1.0331
1.08981
1.22796
1.6016
2.22918
2.46281
2.48706
2.48238
2.47123
2.45857
2.44172
2.42239
2.40016
1
1
1
1.00001
1.00002
1.00005
1.00012
1.00029
1.00072
1.00171
1.00441
1.01016
1.027
1.0649
1.1737
1.45479
2.07375
2.41107
2.47022
2.46729
2.4579
2.44766
2.43606
2.42409
2.40948
1
1
1
1.00001
1.00002
1.00003
1.0001
1.0002
1.00058
1.00119
1.00344
1.00741
1.02025
1.04775
1.12793
1.33299
1.85164
2.31821
2.44726
2.45599
2.45094
2.44224
2.43619
2.43113
2.42219
1
1
1
1
1.00001
1.00003
1.00006
1.00017
1.00036
1.00102
1.0021
1.00612
1.01294
1.03598
1.08547
1.22945
1.59156
2.18823
2.4084
2.44069
2.44479
2.44304
2.44125
2.43945
2.43405
1
1
1
1
1.00001
1.00002
1.00005
1.00011
1.00029
1.00066
1.0018
1.00387
1.01089
1.02408
1.06571
1.16359
1.4386
2.02674
2.36423
2.43425
2.44635
2.44939
2.4512
2.45043
2.44547
1
1
1
1
1.00001
1.00001
1.00003
1.00008
1.00021
1.00048
1.00132
1.00282
1.00798
1.01741
1.04783
1.11672
1.31484
1.79369
2.2824
2.42975
2.45442
2.46008
2.46202
2.46072
2.45372
1
1
1
1
1
1.00001
1.00002
1.00006
1.00015
1.00036
1.00092
1.00209
1.00566
1.01252
1.03408
1.08129
1.21766
1.56322
2.16333
2.41883
2.46667
2.47377
2.4781
2.47453
2.46355
1
1
1
1
1
1.00001
1.00002
1.00005
1.00011
1.00026
1.0007
1.00154
1.00428
1.0093
1.02569
1.06028
1.16295
1.42427
2.01446
2.3978
2.49085
2.49644
2.49402
2.48396
2.46616
1
1
1
1
1
1.00001
1.00001
1.00004
1.00008
1.00021
1.00049
1.00124
1.00304
1.00729
1.01883
1.04551
1.11968
1.31387
1.79606
2.34926
2.52479
2.53112
2.5207
2.50021
2.47388
1
1
1
1
1
1
1.00001
1.00003
1.00006
1.00017
1.00035
1.00105
1.00212
1.00626
1.01341
1.03707
1.0893
1.24121
1.62543
2.28439
2.55094
2.56524
2.54669
2.51476
2.48201
1
1
1
1
1
1
1.00001
1.00002
1.00005
1.00013
1.00032
1.00078
1.00197
1.00463
1.01225
1.02882
1.07655
1.19797
1.53076
2.208
2.57628
2.61205
2.58598
2.54505
2.50058
1
1
1
1
1
1
1.00001
1.00002
1.00005
1.0001
1.0003
1.00059
1.00179
1.0037
1.01063
1.02399
1.06514
1.16602
1.45188
2.08855
2.57675
2.65708
2.62469
2.57424
2.52393
1
1
1
1
1
1
1.00001
1.00002
1.00003
1.0001
1.00022
1.00057
1.0014
1.0034
1.00873
1.02101
1.05491
1.14166
1.38356
1.95997
2.56787
2.69519
2.65603
2.60016
2.552
1
1
1
1
1
1
1.00001
1.00001
1.00004
1.00007
1.00022
1.00046
1.00128
1.00286
1.00763
1.0181
1.04733
1.12064
1.32742
1.83162
2.54888
2.71984
2.67685
2.61964
2.57624
1
1
1
1
1
1
1
1.00001
1.00003
1.00007
1.00018
1.00044
1.00109
1.00262
1.0068
1.01601
1.04237
1.10631
1.28756
1.75158
2.50636
2.72761
2.68691
2.63663
2.60036
1
1
1
1
1
1
1
1.00001
1.00003
1.00006
1.00018
1.00037
1.00107
1.00231
1.00635
1.01466
1.03886
1.09722
1.26391
1.70103
2.46689
2.73269
2.70352
2.66045
2.62466
1
1
1
1
1
1
1
1.00001
1.00003
1.00006
1.00017
1.00034
1.00102
1.00205
1.00615
1.01316
1.0368
1.08941
1.24531
1.65556
2.41935
2.72469
2.7098
2.67848
2.64317
1
1
1
1
1
1
1
1.00001
1.00003
1.00005
1.00015
1.00032
1.00091
1.00204
1.00543
1.01291
1.03342
1.0844
1.22759
1.6098
2.36321
2.71383
2.71874
2.69136
2.6564
1
1
1
1
1
1
1
1.00001
1.00002
1.00005
1.00014
1.0003
1.00085
1.00192
1.00508
1.01213
1.03123
1.07904
1.21234
1.56893
2.31003
2.70334
2.72646
2.70013
2.66569
1
1
1
1
1
1
1
1.00001
1.00002
1.00005
1.00014
1.00028
1.00084
1.00169
1.00503
1.01084
1.03016
1.07291
1.19982
1.53255
2.25435
2.69347
2.73449
2.707
2.6711
1
1
1
1
1
1
1
1.00001
1.00002
1.00005
1.00012
1.00029
1.0007
1.0018
1.00422
1.01123
1.02653
1.07074
1.18433
1.50159
2.19647
2.68481
2.74301
2.71241
2.67452
1
1
1
1
1
1
1
1.00001
1.00002
1.00004
1.00011
1.00025
1.00071
1.00153
1.0044
1.00949
1.02679
1.06358
1.17529
1.46811
2.13992
2.67724
2.75225
2.71803
2.67657
1
1
1
1
1
1
1
1.00001
1.00002
1.00004
1.00011
1.00024
1.00067
1.00142
1.00415
1.00889
1.02512
1.05962
1.16393
1.43873
2.0823
2.67156
2.76153
2.72281
2.67756
1
1
1
1
1
1
1
1.00001
1.00001
1.00004
1.00009
1.00026
1.00052
1.00158
1.00332
1.00945
1.02167
1.05863
1.15034
1.41405
2.02531
2.66614
2.76998
2.72674
2.67853
1
1
1
1
1
1
1
1.00001
1.00001
1.00004
1.00008
1.00024
1.0005
1.00147
1.00317
1.00882
1.02048
1.05499
1.14104
1.38858
1.97132
2.66039
2.77819
2.73068
2.67889
1
1
1
1
1
1
1
1.00001
1.00001
1.00004
1.00008
1.00023
1.00047
1.00142
1.00288
1.00861
1.01886
1.05254
1.13202
1.36612
1.92117
2.65608
2.78469
2.73261
2.67848
1
1
1
1
1
1
1
1
1.00001
1.00003
1.00009
1.00019
1.00052
1.00118
1.00312
1.00749
1.0191
1.04818
1.12718
1.34382
1.88309
2.6479
2.78751
2.73339
2.67963
1
1
1
1
1
1
1
1.00001
1.00001
1.00003
1.00007
1.00021
1.00043
1.00131
1.00265
1.00789
1.0172
1.04791
1.11929
1.32984
1.85311
2.62958
2.78819
2.73546
2.68316
1
1
1
1
1
1
1
1.00001
1.00001
1.00003
1.00007
1.00021
1.00043
1.00124
1.0027
1.00742
1.0172
1.04583
1.11595
1.31712
1.83176
2.60504
2.78924
2.73837
2.68696
1
1
1
1
1
1
1
1.00001
1.00001
1.00003
1.00007
1.0002
1.00042
1.00126
1.00255
1.00756
1.0165
1.04569
1.11318
1.311
1.81789
2.58617
2.79142
2.7411
2.68999
1
1
1
1
1
1
1
1
1.00001
1.00003
1.00008
1.00017
1.00049
1.00108
1.0029
1.00684
1.01755
1.04362
1.11461
1.3059
1.81397
2.57958
2.79145
2.74204
2.69158
2.35736
2.49263
2.77613
3.04906
3.05556
3.01381
3.00127
2.99522
2.98749
2.977
2.96804
2.9649
2.96423
2.9639
2.96377
2.96549
2.96921
2.97452
2.9806
2.98783
2.99398
3.00118
3.00666
3.01207
3.01635
3.02016
3.02216
3.02346
3.02388
3.0227
3.01986
3.01774
3.01676
3.01511
3.01276
3.0087
3.00398
2.99689
2.99291
2.98511
2.9797
2.97063
2.96378
2.95422
2.94596
2.93592
2.92821
2.91739
2.90802
2.8978
2.8877
2.87716
2.86724
2.85586
2.84596
2.83413
2.82374
2.81189
2.80142
2.78984
2.77877
2.7677
2.75618
2.74537
2.73386
2.72293
2.71166
2.7006
2.68958
2.67866
2.66784
2.65723
2.64664
2.63633
2.626
2.61595
2.60591
2.59616
2.58643
2.5771
2.56768
2.55888
2.54984
2.54156
2.53317
2.5254
2.51785
2.51091
2.50424
2.49856
2.49321
2.48902
2.48586
2.48376
2.48326
2.48314
2.48338
2.48401
2.48666
2.48479
2.37332
2.46513
2.61717
2.81157
2.98938
3.03118
3.11604
3.19208
3.19214
3.18256
3.17603
3.17483
3.17323
3.17078
3.16709
3.16144
3.15452
3.1447
3.13248
3.12063
3.11078
3.10613
3.101
3.09394
3.08596
3.07706
3.06729
3.05552
3.04488
3.03298
3.02164
3.01081
2.99796
2.98668
2.9733
2.96156
2.94734
2.93591
2.92269
2.91002
2.8968
2.88489
2.871
2.85887
2.84482
2.83272
2.81944
2.80668
2.79423
2.78129
2.76892
2.75602
2.74382
2.73118
2.71903
2.70685
2.69452
2.68278
2.67039
2.65885
2.64669
2.63514
2.62339
2.61183
2.60044
2.58907
2.57798
2.56697
2.55616
2.54553
2.535
2.52474
2.51449
2.50461
2.49467
2.48519
2.47561
2.46658
2.45741
2.4488
2.44014
2.43185
2.42384
2.41591
2.40856
2.40133
2.39452
2.38837
2.38232
2.37734
2.37274
2.36907
2.36657
2.36496
2.36497
2.36514
2.36563
2.36651
2.36959
2.36794
2.3643
2.39107
2.47049
2.52657
2.62667
2.76594
2.85599
2.99632
3.08629
3.13524
3.16162
3.17672
3.18293
3.1897
3.2022
3.2007
3.19427
3.17796
3.15522
3.13182
3.10996
3.08914
3.06739
3.04498
3.02163
2.99731
2.97311
2.94989
2.92625
2.90376
2.88233
2.86106
2.84126
2.82193
2.80344
2.78638
2.76892
2.75353
2.73697
2.72253
2.70783
2.6943
2.68047
2.66663
2.6528
2.63995
2.62685
2.61472
2.60197
2.59042
2.5779
2.5671
2.55478
2.54468
2.53263
2.52299
2.51127
2.50185
2.49053
2.48122
2.47028
2.46114
2.45049
2.44152
2.43107
2.42222
2.41198
2.40321
2.39327
2.38459
2.37506
2.36648
2.35739
2.34894
2.34026
2.332
2.32373
2.31566
2.30793
2.30007
2.29281
2.28534
2.27838
2.27155
2.26485
2.25871
2.25259
2.24713
2.24197
2.23746
2.23361
2.23036
2.2283
2.22711
2.22718
2.22741
2.22787
2.22888
2.2321
2.23057
2.3451
2.33713
2.36534
2.40305
2.4499
2.51441
2.58513
2.6483
2.72032
2.78828
2.8377
2.88345
2.90798
2.92846
2.937
2.93605
2.93195
2.92158
2.90769
2.88812
2.86685
2.84346
2.82194
2.79825
2.77451
2.75057
2.72698
2.70478
2.68356
2.66483
2.64716
2.632
2.61714
2.60429
2.59196
2.58019
2.56923
2.55824
2.54807
2.5378
2.52839
2.51921
2.51029
2.50069
2.49109
2.48176
2.47253
2.4638
2.45463
2.44628
2.43709
2.42894
2.41977
2.41166
2.40256
2.39432
2.38528
2.37685
2.36787
2.35931
2.35043
2.34184
2.3331
2.32459
2.31597
2.30764
2.29914
2.29104
2.28267
2.2748
2.26663
2.25899
2.25108
2.24364
2.23607
2.2288
2.22163
2.2145
2.20769
2.20078
2.19415
2.18773
2.18127
2.17538
2.16944
2.1639
2.15888
2.15385
2.14976
2.14584
2.14266
2.14053
2.13877
2.13888
2.13926
2.14001
2.14098
2.14279
2.1476
2.14714
2.33617
2.30896
2.30937
2.32885
2.35558
2.39242
2.43147
2.47136
2.50112
2.53172
2.55064
2.57114
2.58214
2.59188
2.59465
2.59282
2.58971
2.5849
2.58097
2.57342
2.56473
2.55566
2.5454
2.53574
2.52655
2.5183
2.51054
2.50361
2.49714
2.4911
2.48572
2.47989
2.47545
2.47008
2.4655
2.46019
2.45559
2.44988
2.44479
2.43869
2.4336
2.42802
2.42283
2.4166
2.41025
2.40389
2.39752
2.39137
2.38475
2.37846
2.37146
2.36484
2.35749
2.35055
2.34291
2.33564
2.32773
2.32013
2.31194
2.3041
2.29571
2.28772
2.27924
2.27122
2.26273
2.25479
2.24639
2.23854
2.23036
2.22257
2.21471
2.20699
2.19944
2.19188
2.18449
2.1771
2.16971
2.16262
2.15537
2.14852
2.14176
2.13502
2.12886
2.1224
2.11672
2.11089
2.10568
2.10078
2.09624
2.09255
2.08906
2.08695
2.08521
2.08527
2.08556
2.08616
2.08724
2.08936
2.09454
2.09472
2.33629
2.30094
2.28785
2.29015
2.30486
2.32483
2.34855
2.36917
2.38547
2.39536
2.4023
2.40552
2.40839
2.40959
2.40951
2.40817
2.40696
2.4059
2.40723
2.40782
2.40781
2.40762
2.40761
2.40763
2.40774
2.40788
2.40786
2.40772
2.40726
2.40662
2.40518
2.40408
2.40178
2.39991
2.39704
2.39423
2.3907
2.38701
2.38268
2.37832
2.37358
2.36935
2.36412
2.35902
2.35223
2.34655
2.33952
2.33385
2.32673
2.3209
2.31378
2.30767
2.30057
2.29408
2.28701
2.28021
2.27313
2.26613
2.25894
2.25185
2.24451
2.23745
2.23005
2.22296
2.2156
2.20834
2.20105
2.19362
2.18632
2.1789
2.17152
2.16426
2.1567
2.14961
2.14212
2.13524
2.12817
2.12141
2.11484
2.10825
2.10214
2.09587
2.09021
2.0844
2.07923
2.07408
2.06945
2.06526
2.06138
2.0584
2.05578
2.05413
2.05369
2.05389
2.05451
2.05516
2.05714
2.05946
2.06446
2.06457
2.34152
2.30488
2.28423
2.27872
2.28207
2.29206
2.30289
2.31226
2.31694
2.31775
2.31508
2.31145
2.30714
2.3043
2.30223
2.3013
2.29931
2.29855
2.29939
2.30232
2.3049
2.30751
2.30954
2.31148
2.31314
2.31459
2.31586
2.31666
2.31738
2.31741
2.31717
2.31648
2.31524
2.3139
2.31187
2.30999
2.30726
2.30486
2.30136
2.2984
2.29473
2.29195
2.28814
2.28448
2.27936
2.27473
2.26917
2.26416
2.25836
2.25298
2.24696
2.24114
2.23483
2.22858
2.22205
2.21546
2.20885
2.20201
2.19538
2.18841
2.18174
2.17484
2.16806
2.16136
2.15443
2.14786
2.14081
2.13421
2.12718
2.12043
2.11344
2.10657
2.09984
2.093
2.0865
2.07988
2.07349
2.06728
2.06097
2.05522
2.04914
2.04377
2.03814
2.03314
2.02815
2.02357
2.01943
2.0155
2.01244
2.00951
2.0078
2.00647
2.00656
2.00694
2.00738
2.00835
2.01081
2.01371
2.01858
2.01897
2.34952
2.31755
2.29415
2.28282
2.28017
2.28085
2.28281
2.28252
2.27908
2.27227
2.26441
2.25508
2.2476
2.24062
2.23686
2.23408
2.23306
2.23108
2.2312
2.2327
2.23613
2.23968
2.24269
2.24571
2.24834
2.25115
2.25354
2.25597
2.258
2.25968
2.26115
2.26203
2.26272
2.2629
2.26262
2.26201
2.26097
2.25952
2.25738
2.25509
2.25239
2.24993
2.24679
2.24332
2.23894
2.23445
2.22952
2.22455
2.21939
2.21409
2.20873
2.20305
2.19744
2.19143
2.18554
2.1793
2.17305
2.16664
2.16
2.15347
2.1465
2.13974
2.13253
2.12538
2.11809
2.11063
2.10342
2.09587
2.08877
2.08147
2.07452
2.06762
2.06075
2.05424
2.04747
2.04126
2.0347
2.0287
2.02249
2.01666
2.01094
2.00533
2.00022
1.99499
1.9905
1.98595
1.98216
1.97867
1.97577
1.97373
1.97214
1.97197
1.9722
1.97278
1.97365
1.97589
1.97881
1.98326
1.98783
1.98967
2.36114
2.33335
2.31282
2.29785
2.28887
2.28294
2.27656
2.26917
2.25898
2.24777
2.23503
2.22334
2.21198
2.20333
2.19617
2.19238
2.18949
2.1885
2.18657
2.18665
2.18788
2.19109
2.19432
2.19762
2.20075
2.20378
2.20672
2.20943
2.21205
2.21428
2.21634
2.21786
2.21903
2.21973
2.21999
2.21986
2.21932
2.21833
2.21679
2.21501
2.213
2.21116
2.20882
2.20611
2.20274
2.19893
2.19489
2.19041
2.1859
2.18102
2.17611
2.17099
2.16571
2.16032
2.15472
2.14901
2.14323
2.13725
2.13137
2.12515
2.11908
2.11275
2.10645
2.10017
2.09365
2.08742
2.08074
2.07452
2.06784
2.06154
2.05496
2.04856
2.04218
2.03577
2.02962
2.02333
2.01741
2.01135
2.00566
1.99999
1.99457
1.98947
1.98438
1.97995
1.97546
1.97179
1.96826
1.96548
1.9633
1.96173
1.96128
1.96146
1.96205
1.96269
1.96416
1.96733
1.97078
1.97477
1.97917
1.98027
2.3767
2.35351
2.33441
2.3186
2.30474
2.29228
2.27962
2.26585
2.25143
2.23614
2.22142
2.2069
2.19456
2.18312
2.17503
2.16824
2.16463
2.16104
2.15986
2.15751
2.15746
2.15796
2.16037
2.16325
2.16645
2.1694
2.1725
2.17521
2.17817
2.18058
2.18301
2.185
2.18659
2.18794
2.1887
2.18919
2.18911
2.18861
2.18766
2.18625
2.18467
2.18316
2.18099
2.17862
2.1754
2.17196
2.16812
2.16382
2.15956
2.15472
2.15005
2.14493
2.13975
2.13447
2.12875
2.12333
2.11722
2.11154
2.10525
2.09921
2.0929
2.0865
2.0802
2.07351
2.06714
2.06034
2.05395
2.04714
2.04066
2.03393
2.02736
2.02084
2.01424
2.008
2.00151
1.99554
1.98931
1.98358
1.97775
1.97229
1.96705
1.96201
1.95747
1.95305
1.94939
1.94588
1.94324
1.94103
1.93956
1.93904
1.93921
1.93977
1.94034
1.94165
1.94442
1.94786
1.95176
1.95517
1.95938
1.96008
2.39287
2.37411
2.35548
2.33815
2.32067
2.30371
2.28655
2.26943
2.25209
2.23504
2.2187
2.20347
2.18947
2.17752
2.16702
2.15889
2.15234
2.1477
2.144
2.14153
2.13984
2.13851
2.13862
2.1397
2.14197
2.14473
2.14715
2.14996
2.15253
2.15491
2.15743
2.15924
2.16127
2.16244
2.1636
2.16407
2.16432
2.16405
2.16328
2.16211
2.16098
2.15945
2.15786
2.15548
2.15281
2.14962
2.14607
2.14227
2.13806
2.13373
2.12915
2.12433
2.11951
2.11427
2.10925
2.10368
2.09841
2.09264
2.08704
2.08115
2.07519
2.06921
2.0629
2.05683
2.05039
2.04428
2.03781
2.03161
2.02518
2.01886
2.01253
2.00611
1.99996
1.99359
1.98765
1.9815
1.9758
1.97002
1.9646
1.95935
1.95429
1.94972
1.94522
1.94151
1.93791
1.93525
1.9329
1.93146
1.93072
1.93085
1.93131
1.93183
1.93301
1.93543
1.93902
1.94205
1.9461
1.94852
1.95251
1.95259
2.40984
2.39379
2.37512
2.35545
2.33526
2.31474
2.29501
2.27502
2.25623
2.23864
2.22181
2.20643
2.19169
2.179
2.16709
2.15752
2.14887
2.14244
2.13648
2.13241
2.12843
2.12641
2.12455
2.12388
2.12407
2.12553
2.1274
2.12985
2.13205
2.13462
2.13668
2.13855
2.14025
2.1414
2.14246
2.14301
2.1432
2.14301
2.14227
2.14128
2.13997
2.13864
2.13698
2.13478
2.13236
2.12924
2.12605
2.12221
2.11819
2.11391
2.10921
2.10465
2.09952
2.09468
2.08932
2.08409
2.0786
2.07296
2.06736
2.06141
2.05568
2.04952
2.04369
2.03749
2.03154
2.02538
2.01931
2.01325
2.00704
2.0011
1.99483
1.98898
1.98278
1.97701
1.97108
1.96543
1.95991
1.95445
1.94944
1.94433
1.93988
1.93536
1.93162
1.92812
1.9253
1.92317
1.92163
1.92105
1.92121
1.92179
1.92238
1.92368
1.9267
1.92934
1.93336
1.93609
1.93969
1.94145
1.94466
1.94433
2.42328
2.40846
2.38958
2.36908
2.34751
2.32611
2.30502
2.28519
2.26564
2.24774
2.23024
2.21458
2.19936
2.18573
2.17285
2.16138
2.15101
2.14215
2.13442
2.12817
2.12291
2.11921
2.11581
2.11408
2.11247
2.11215
2.11236
2.11335
2.11482
2.11662
2.11835
2.1198
2.12118
2.12215
2.1231
2.1235
2.12372
2.12355
2.12297
2.1219
2.12074
2.1196
2.11802
2.1162
2.11375
2.111
2.10791
2.10427
2.10062
2.09633
2.0922
2.08755
2.08293
2.07809
2.07299
2.06798
2.06245
2.05723
2.05139
2.04593
2.03993
2.03429
2.02831
2.02249
2.01657
2.01056
2.00469
1.99855
1.99269
1.98652
1.98065
1.97461
1.96877
1.96302
1.95732
1.95198
1.94657
1.94172
1.93677
1.93246
1.92813
1.92449
1.92114
1.91841
1.91635
1.91489
1.91432
1.91447
1.91498
1.9156
1.91709
1.91934
1.92289
1.92573
1.9292
1.9314
1.93402
1.93512
1.93736
1.93661
2.43449
2.41853
2.39862
2.37693
2.35458
2.33289
2.31181
2.29251
2.27368
2.25641
2.2395
2.22378
2.20849
2.19421
2.18054
2.16804
2.15646
2.14617
2.13698
2.12896
2.12206
2.11592
2.11113
2.10711
2.1042
2.10204
2.10068
2.09964
2.09967
2.10013
2.10118
2.10203
2.10324
2.10403
2.10478
2.10516
2.10535
2.10514
2.10457
2.10343
2.10241
2.10107
2.0996
2.09768
2.09522
2.09267
2.08946
2.08623
2.08248
2.07859
2.07448
2.07001
2.06562
2.06071
2.05605
2.05086
2.04588
2.04049
2.03515
2.02962
2.02405
2.0185
2.01274
2.00717
2.00128
1.99568
1.98974
1.98406
1.9782
1.97242
1.96672
1.96092
1.95546
1.94978
1.94463
1.93927
1.93451
1.92972
1.92544
1.92138
1.91772
1.91469
1.91199
1.9102
1.9088
1.90849
1.90867
1.90918
1.90995
1.91151
1.91447
1.91731
1.9208
1.92343
1.92619
1.92781
1.92949
1.93015
1.9316
1.93045
2.44074
2.42277
2.4029
2.38158
2.36031
2.33954
2.31958
2.3008
2.28293
2.26598
2.24962
2.23391
2.21863
2.20384
2.18971
2.17605
2.16336
2.15134
2.14057
2.13049
2.12181
2.11379
2.10718
2.1012
2.09655
2.09254
2.08971
2.08748
2.08624
2.08505
2.08498
2.08513
2.08564
2.08619
2.08651
2.08681
2.08675
2.08645
2.08582
2.08484
2.08379
2.08247
2.08123
2.07926
2.07715
2.07453
2.07156
2.06841
2.06469
2.06107
2.05682
2.05274
2.04817
2.04369
2.03896
2.03413
2.02927
2.02409
2.01905
2.01366
2.0085
2.00296
1.99764
1.99203
1.98652
1.98093
1.97525
1.96974
1.96398
1.95856
1.95286
1.94756
1.94207
1.93695
1.93188
1.92707
1.92263
1.91829
1.91462
1.91095
1.90824
1.9056
1.90408
1.90273
1.90265
1.90287
1.90334
1.90428
1.90642
1.90905
1.91232
1.91537
1.91831
1.92054
1.92251
1.92347
1.92449
1.92469
1.92533
1.92381
2.44757
2.42725
2.40586
2.38436
2.36372
2.34413
2.32542
2.30786
2.2908
2.27457
2.25858
2.24289
2.22755
2.21229
2.19759
2.18319
2.16937
2.15634
2.14407
2.13283
2.12253
2.1132
2.10486
2.09752
2.09102
2.08566
2.08101
2.07748
2.0745
2.07246
2.07062
2.06934
2.0686
2.06824
2.06812
2.06798
2.06778
2.06743
2.06675
2.06596
2.06483
2.06378
2.06258
2.0608
2.05896
2.05634
2.05383
2.05057
2.04737
2.04366
2.03981
2.03578
2.03142
2.02716
2.02243
2.01793
2.01292
2.00814
2.00301
1.99798
1.99283
1.98756
1.98241
1.97698
1.9718
1.9663
1.9611
1.95565
1.95042
1.94514
1.93991
1.9349
1.92975
1.9251
1.92024
1.91608
1.91178
1.90829
1.90472
1.90217
1.89972
1.89832
1.89721
1.89725
1.89753
1.89805
1.8991
1.90124
1.90424
1.90745
1.91044
1.91353
1.9154
1.91752
1.91819
1.91899
1.91891
1.91891
1.91883
1.91741
2.44707
2.42627
2.40556
2.38521
2.36594
2.34778
2.33042
2.3139
2.29778
2.28186
2.26621
2.25043
2.23491
2.21945
2.20421
2.18947
2.1749
2.16118
2.14798
2.1356
2.1241
2.11332
2.10354
2.09455
2.08657
2.07945
2.07325
2.06793
2.06339
2.05983
2.05674
2.05439
2.05278
2.05145
2.05067
2.05008
2.04981
2.04932
2.04864
2.04785
2.0466
2.04573
2.04424
2.04277
2.04067
2.03844
2.03591
2.03297
2.03
2.02646
2.02305
2.01904
2.01518
2.01082
2.00652
2.0019
1.99718
1.9924
1.98741
1.98255
1.97738
1.97243
1.96722
1.96216
1.95703
1.95186
1.94689
1.94167
1.93688
1.93173
1.92711
1.92218
1.9178
1.91327
1.90927
1.90538
1.9019
1.89877
1.89618
1.89413
1.89276
1.89199
1.89209
1.89243
1.89314
1.89437
1.89688
1.89968
1.90325
1.90595
1.90904
1.91095
1.91266
1.91371
1.91402
1.91391
1.91361
1.91333
1.91281
1.91112
2.4488
2.42648
2.40581
2.38676
2.36856
2.35181
2.3355
2.31979
2.30409
2.28847
2.27278
2.25703
2.24133
2.22563
2.21015
2.19486
2.17989
2.16545
2.15147
2.13817
2.1255
2.11354
2.10245
2.09217
2.0827
2.0742
2.06654
2.05972
2.05382
2.04888
2.04465
2.04116
2.03837
2.03619
2.0347
2.03333
2.03252
2.03139
2.03077
2.0296
2.02866
2.02755
2.02619
2.02479
2.02281
2.02095
2.01842
2.01595
2.01293
2.00983
2.00643
2.00277
1.99903
1.99489
1.99081
1.98628
1.98189
1.9772
1.97258
1.96782
1.96297
1.95822
1.9532
1.94845
1.94337
1.93862
1.9336
1.92886
1.92402
1.91934
1.91482
1.91032
1.90625
1.90217
1.89871
1.89527
1.89251
1.88998
1.88831
1.88702
1.88665
1.88679
1.88724
1.88814
1.88967
1.89261
1.89544
1.89901
1.90182
1.90457
1.90676
1.90797
1.90938
1.90933
1.9092
1.90894
1.90833
1.90756
1.90653
1.90493
2.45357
2.42991
2.40921
2.39082
2.37355
2.35718
2.34132
2.32574
2.31011
2.29428
2.27843
2.26248
2.24665
2.23087
2.21521
2.19969
2.1844
2.1694
2.15481
2.1408
2.12727
2.11451
2.10234
2.09102
2.08039
2.07061
2.06156
2.05351
2.04632
2.04
2.03455
2.02992
2.02571
2.02267
2.01995
2.01807
2.01648
2.0151
2.01419
2.01297
2.01221
2.01094
2.01001
2.0086
2.00717
2.00542
2.00329
2.00109
1.99832
1.99563
1.99231
1.98908
1.98533
1.98157
1.97753
1.97329
1.96908
1.96451
1.96014
1.95539
1.95085
1.94609
1.94136
1.9367
1.9318
1.92726
1.9223
1.91789
1.91306
1.90884
1.90434
1.90047
1.89648
1.89323
1.88991
1.88739
1.88495
1.88356
1.88233
1.88226
1.8824
1.88292
1.88402
1.88577
1.88889
1.89183
1.89526
1.89818
1.90067
1.90302
1.90392
1.90531
1.90521
1.90506
1.90474
1.90419
1.90305
1.90167
1.90037
1.89881
2.46769
2.44281
2.42176
2.40266
2.38459
2.36742
2.35082
2.33456
2.31856
2.30253
2.28633
2.27008
2.25369
2.23738
2.22115
2.2052
2.18944
2.17404
2.15893
2.14434
2.13015
2.11659
2.10366
2.09133
2.07989
2.06895
2.05907
2.04971
2.04129
2.03359
2.02697
2.02109
2.01627
2.01205
2.0086
2.00605
2.0037
2.00214
2.00066
1.99966
1.99871
1.99778
1.997
1.99584
1.99484
1.99316
1.99161
1.98935
1.98712
1.98436
1.9814
1.97818
1.97457
1.97094
1.96683
1.96283
1.95845
1.95409
1.94963
1.94496
1.94055
1.93568
1.9313
1.92637
1.922
1.91717
1.91285
1.90822
1.90407
1.89976
1.89597
1.89215
1.88896
1.88584
1.88337
1.88112
1.87983
1.8788
1.87881
1.87904
1.87961
1.881
1.88301
1.88621
1.88929
1.89256
1.89555
1.89773
1.90016
1.90091
1.90226
1.90214
1.90199
1.90168
1.90099
1.89999
1.89822
1.8965
1.89492
1.89339
2.48726
2.4602
2.43816
2.41846
2.39997
2.3819
2.36433
2.34684
2.32956
2.31248
2.29555
2.27879
2.26225
2.2457
2.22938
2.2129
2.19673
2.18057
2.16498
2.14979
2.13521
2.12117
2.10766
2.09474
2.08237
2.07059
2.05958
2.04917
2.03975
2.03111
2.02342
2.0167
2.01069
2.00541
2.00108
1.99747
1.99465
1.99236
1.99073
1.9895
1.98839
1.9876
1.98649
1.98561
1.98416
1.98278
1.98089
1.97887
1.97656
1.9739
1.97118
1.968
1.96482
1.96124
1.95756
1.95372
1.94959
1.94558
1.94114
1.93699
1.93237
1.92809
1.9234
1.91905
1.91441
1.91007
1.90561
1.90141
1.8973
1.89341
1.88984
1.88659
1.88372
1.88129
1.8793
1.87805
1.87736
1.87741
1.87768
1.87843
1.88023
1.88262
1.88579
1.88903
1.89202
1.89518
1.89704
1.8995
1.90016
1.90136
1.9012
1.90103
1.90066
1.90002
1.89872
1.89718
1.89511
1.89318
1.89139
1.88977
2.5163
2.48797
2.46375
2.44156
2.42099
2.40077
2.38121
2.36205
2.34344
2.32539
2.30779
2.29051
2.27345
2.25653
2.23975
2.22313
2.20674
2.19056
2.17464
2.15906
2.14372
2.12884
2.11425
2.10035
2.08689
2.07428
2.06234
2.0513
2.04114
2.03191
2.02355
2.01619
2.00965
2.00389
1.99875
1.99436
1.99074
1.98782
1.9853
1.98324
1.98167
1.98024
1.97906
1.97778
1.97652
1.97512
1.97351
1.97183
1.96974
1.96764
1.96509
1.9624
1.95942
1.9561
1.95276
1.94898
1.9453
1.94118
1.93717
1.93283
1.92859
1.92411
1.91974
1.91525
1.91087
1.90648
1.90227
1.89815
1.8943
1.8907
1.88749
1.88469
1.88232
1.88045
1.87929
1.87871
1.87874
1.87896
1.87989
1.882
1.88466
1.88773
1.8911
1.89376
1.89702
1.89866
1.90103
1.90162
1.90264
1.90241
1.9022
1.90177
1.90108
1.89981
1.898
1.89613
1.89382
1.89171
1.88977
1.8881
2.54388
2.51725
2.49315
2.47031
2.44823
2.42679
2.40572
2.38518
2.36515
2.34559
2.32666
2.30817
2.29012
2.27239
2.25484
2.23752
2.22021
2.20319
2.18626
2.1699
2.154
2.13872
2.12411
2.11007
2.09678
2.08408
2.07208
2.0608
2.05022
2.0403
2.03118
2.02264
2.01486
2.0079
2.00148
1.99593
1.99116
1.98734
1.98421
1.98179
1.97981
1.97815
1.97679
1.97545
1.97428
1.97296
1.97164
1.97011
1.96841
1.96649
1.96426
1.96183
1.95901
1.95605
1.95274
1.94928
1.94559
1.9417
1.93769
1.93348
1.92923
1.92483
1.92044
1.916
1.91164
1.90734
1.90319
1.89926
1.89558
1.89231
1.88943
1.88708
1.88511
1.88404
1.88331
1.88332
1.88358
1.88483
1.88708
1.89001
1.89273
1.89624
1.8985
1.90166
1.90315
1.90526
1.90582
1.90664
1.90635
1.90597
1.90552
1.90469
1.90334
1.90163
1.89952
1.89742
1.89491
1.89268
1.89058
1.8889
2.57314
2.54921
2.52598
2.50312
2.48061
2.4584
2.43666
2.41518
2.39406
2.37337
2.35298
2.33319
2.31366
2.29464
2.27595
2.25767
2.23986
2.22247
2.20554
2.18917
2.17321
2.15781
2.14263
2.12805
2.11384
2.10025
2.08736
2.07501
2.06358
2.0526
2.0426
2.03308
2.02459
2.01675
2.00984
2.00366
1.99814
1.99358
1.9895
1.98623
1.9834
1.98114
1.97934
1.9778
1.97664
1.97545
1.97445
1.97321
1.97189
1.97026
1.96832
1.96612
1.96346
1.96067
1.9574
1.95406
1.95032
1.94647
1.94245
1.93821
1.93406
1.92957
1.92541
1.92083
1.91681
1.91237
1.90873
1.9047
1.90168
1.89847
1.89633
1.89411
1.89312
1.89211
1.89201
1.89244
1.89405
1.89599
1.89917
1.90148
1.90499
1.90704
1.90998
1.91138
1.91328
1.91374
1.91439
1.91398
1.91363
1.91295
1.91219
1.91072
1.90896
1.90696
1.90458
1.90232
1.89963
1.89727
1.89508
1.89332
2.59854
2.57661
2.5551
2.53319
2.51146
2.48969
2.46821
2.4467
2.42538
2.40426
2.38351
2.36322
2.34346
2.32413
2.3053
2.28669
2.2685
2.25046
2.23273
2.21522
2.19813
2.18156
2.16554
2.15014
2.1354
2.12134
2.10783
2.09499
2.08274
2.07102
2.0602
2.0498
2.04049
2.0316
2.02379
2.01643
2.00989
2.00418
1.99922
1.99531
1.99201
1.98964
1.98775
1.98633
1.98528
1.98416
1.98331
1.982
1.9809
1.97917
1.97754
1.9754
1.97305
1.97055
1.96744
1.96454
1.96075
1.95735
1.95303
1.94915
1.94449
1.94032
1.93552
1.93137
1.92668
1.92287
1.91862
1.91547
1.91207
1.9098
1.90759
1.90629
1.90506
1.90492
1.90556
1.9074
1.90897
1.91216
1.91421
1.91755
1.9195
1.92222
1.92356
1.92522
1.92575
1.92603
1.92571
1.92509
1.92457
1.92346
1.92233
1.92035
1.91841
1.91619
1.91373
1.91135
1.9086
1.90615
1.90392
1.9021
2.61801
2.59813
2.57885
2.55945
2.53912
2.51891
2.49819
2.47766
2.45691
2.43658
2.41631
2.39645
2.37661
2.357
2.33754
2.3182
2.29924
2.2805
2.26228
2.24431
2.22692
2.20998
2.19353
2.1775
2.162
2.14693
2.13249
2.11871
2.10557
2.09325
2.08161
2.07062
2.0604
2.05065
2.04187
2.03358
2.02636
2.01967
2.01408
2.00927
2.00513
2.00179
1.99879
1.99647
1.99435
1.99271
1.99122
1.98999
1.98884
1.98768
1.98652
1.98504
1.98353
1.98144
1.97928
1.97649
1.97354
1.97008
1.9664
1.96239
1.95817
1.95388
1.94942
1.94514
1.94092
1.93696
1.93341
1.93025
1.9277
1.92556
1.92396
1.92285
1.92287
1.92368
1.92552
1.92707
1.93003
1.93205
1.93512
1.937
1.93953
1.94082
1.94223
1.94283
1.94293
1.94249
1.94204
1.94122
1.94045
1.93879
1.93735
1.93506
1.93295
1.93044
1.92779
1.92514
1.92215
1.91946
1.91703
1.915
2.63194
2.61389
2.59715
2.58004
2.56229
2.54389
2.52544
2.5065
2.4874
2.46775
2.44794
2.42811
2.40818
2.38857
2.36915
2.34999
2.33112
2.31237
2.29381
2.2754
2.25713