/*--------------------------------*- C++ -*----------------------------------*\
  =========                 |
  \\      /  F ield         | OpenFOAM: The Open Source CFD Toolbox
   \\    /   O peration     | Website:  https://openfoam.org
    \\  /    A nd           | Version:  10
     \\/     M anipulation  |
\*---------------------------------------------------------------------------*/
FoamFile
{
    format      ascii;
    class       volVectorField;
    location    "10";
    object      U;
}
// * * * * * * * * * * * * * * * * * * * * * * * * * * * * * * * * * * * * * //

dimensions      [0 1 -1 0 0 0 0];

internalField   nonuniform List<vector> 
5250
(
(2.99999 3.79025e-08 0)
(2.99998 -6.89951e-09 0)
(2.99995 5.30325e-07 0)
(2.99988 -8.0849e-08 0)
(2.9997 3.6395e-06 0)
(2.99924 -9.82314e-07 0)
(2.99815 2.5622e-05 0)
(2.99538 -9.20341e-06 0)
(2.98863 0.000149676 0)
(2.97134 2.8232e-05 0)
(2.92586 0.0006186 0)
(2.79859 0.000968834 0)
(2.42285 0.00328233 0)
(1.41386 0.00941689 0)
(0.610622 0.0215377 0)
(0.556933 0.0226728 0)
(0.574527 0.0236832 0)
(0.559506 0.0252009 0)
(0.503611 0.0269859 0)
(0.417126 0.0291043 0)
(0.336961 0.0316647 0)
(0.268621 0.0345984 0)
(0.198675 0.0377011 0)
(0.11928 0.0413558 0)
(0.052446 0.0465794 0)
(2.99999 3.24326e-08 0)
(2.99998 2.09586e-07 0)
(2.99995 6.98717e-07 0)
(2.99988 2.08067e-06 0)
(2.9997 4.89746e-06 0)
(2.99926 1.43502e-05 0)
(2.99815 3.03765e-05 0)
(2.99549 8.92455e-05 0)
(2.98866 0.000196382 0)
(2.97173 0.000543961 0)
(2.92668 0.00129205 0)
(2.8007 0.00360618 0)
(2.43009 0.00984538 0)
(1.42813 0.0291831 0)
(0.62004 0.065028 0)
(0.55636 0.0653644 0)
(0.574223 0.065588 0)
(0.559659 0.0679622 0)
(0.503941 0.070959 0)
(0.417639 0.0748849 0)
(0.33733 0.0794234 0)
(0.268273 0.0842033 0)
(0.197242 0.088651 0)
(0.116477 0.0930168 0)
(0.0491196 0.0973761 0)
(2.99999 2.3639e-08 0)
(2.99998 4.67724e-07 0)
(2.99995 7.6924e-07 0)
(2.99988 4.64395e-06 0)
(2.99971 6.10429e-06 0)
(2.99927 3.00553e-05 0)
(2.99822 4.05329e-05 0)
(2.99552 0.00017956 0)
(2.98901 0.00027697 0)
(2.97225 0.00102073 0)
(2.92843 0.00206417 0)
(2.80571 0.00620821 0)
(2.44426 0.0166578 0)
(1.46097 0.0494314 0)
(0.641573 0.111774 0)
(0.55611 0.110515 0)
(0.575145 0.109884 0)
(0.562208 0.114371 0)
(0.507384 0.120023 0)
(0.422046 0.127631 0)
(0.341989 0.136016 0)
(0.272394 0.144679 0)
(0.200353 0.152959 0)
(0.118109 0.160576 0)
(0.0487888 0.166352 0)
(2.99999 1.04289e-07 0)
(2.99998 4.19736e-07 0)
(2.99996 1.96059e-06 0)
(2.99988 4.1285e-06 0)
(2.99972 1.46158e-05 0)
(2.99929 2.68472e-05 0)
(2.99827 9.70219e-05 0)
(2.99568 0.000161264 0)
(2.98937 0.00058872 0)
(2.9732 0.00108041 0)
(2.93103 0.00338546 0)
(2.8128 0.00811977 0)
(2.46642 0.0236 0)
(1.51056 0.0686066 0)
(0.674541 0.15913 0)
(0.555028 0.155103 0)
(0.577088 0.153144 0)
(0.567443 0.160016 0)
(0.514233 0.168576 0)
(0.430577 0.180151 0)
(0.35104 0.192748 0)
(0.281119 0.205866 0)
(0.20801 0.218737 0)
(0.123562 0.230391 0)
(0.0506854 0.238076 0)
(3 1.17447e-07 0)
(2.99998 5.6999e-07 0)
(2.99996 2.4828e-06 0)
(2.99989 5.49408e-06 0)
(2.99973 1.79666e-05 0)
(2.99933 3.84622e-05 0)
(2.99833 0.000108548 0)
(2.99593 0.000248745 0)
(2.98978 0.000649391 0)
(2.97458 0.00157838 0)
(2.93432 0.00407066 0)
(2.82244 0.0106528 0)
(2.49528 0.0299377 0)
(1.5783 0.0873336 0)
(0.718887 0.208062 0)
(0.552486 0.199378 0)
(0.579842 0.195432 0)
(0.575229 0.204748 0)
(0.524197 0.216218 0)
(0.442877 0.231758 0)
(0.364211 0.2488 0)
(0.294188 0.266877 0)
(0.219926 0.285105 0)
(0.132367 0.301824 0)
(0.0544049 0.312375 0)
(3 1.1514e-07 0)
(2.99998 8.349e-07 0)
(2.99996 2.56758e-06 0)
(2.9999 8.10797e-06 0)
(2.99974 1.92156e-05 0)
(2.99937 5.33585e-05 0)
(2.99845 0.000121991 0)
(2.99614 0.000325573 0)
(2.99047 0.000764988 0)
(2.97607 0.00197587 0)
(2.93853 0.00488937 0)
(2.83456 0.0130448 0)
(2.53028 0.0362183 0)
(1.66606 0.105394 0)
(0.775076 0.259312 0)
(0.548362 0.24366 0)
(0.584013 0.236941 0)
(0.586261 0.248787 0)
(0.537793 0.263248 0)
(0.459466 0.282988 0)
(0.38216 0.30506 0)
(0.312417 0.329089 0)
(0.237123 0.35416 0)
(0.145669 0.378126 0)
(0.0605977 0.393941 0)
(3 1.45934e-07 0)
(2.99999 9.00285e-07 0)
(2.99996 3.16081e-06 0)
(2.99991 8.77125e-06 0)
(2.99976 2.39495e-05 0)
(2.99942 5.78069e-05 0)
(2.99856 0.000153452 0)
(2.99647 0.00035748 0)
(2.99115 0.000939495 0)
(2.97801 0.002239 0)
(2.94357 0.00582117 0)
(2.84852 0.0151223 0)
(2.5728 0.0422398 0)
(1.77346 0.122388 0)
(0.845117 0.312201 0)
(0.544031 0.288688 0)
(0.591078 0.278353 0)
(0.601827 0.292348 0)
(0.556106 0.309597 0)
(0.481446 0.333689 0)
(0.406173 0.361487 0)
(0.337386 0.392799 0)
(0.261615 0.426876 0)
(0.165912 0.461672 0)
(0.0709877 0.487702 0)
(3 1.50373e-07 0)
(2.99999 1.04896e-06 0)
(2.99997 3.38899e-06 0)
(2.99991 1.02441e-05 0)
(2.99979 2.55276e-05 0)
(2.99947 6.76364e-05 0)
(2.9987 0.000162041 0)
(2.99679 0.00042086 0)
(2.99204 0.0010005 0)
(2.98014 0.00260252 0)
(2.94927 0.00640952 0)
(2.86495 0.0170375 0)
(2.62031 0.04707 0)
(1.90359 0.136442 0)
(0.93137 0.362094 0)
(0.544535 0.33353 0)
(0.603925 0.319924 0)
(0.623876 0.335144 0)
(0.580761 0.354796 0)
(0.510409 0.38344 0)
(0.438012 0.417766 0)
(0.37128 0.457892 0)
(0.296553 0.503692 0)
(0.197688 0.554784 0)
(0.0892914 0.601694 0)
(3 1.6329e-07 0)
(2.99999 1.1032e-06 0)
(2.99997 3.60004e-06 0)
(2.99992 1.08888e-05 0)
(2.99981 2.67816e-05 0)
(2.99953 7.26207e-05 0)
(2.99885 0.000169698 0)
(2.99717 0.000452605 0)
(2.99297 0.00105967 0)
(2.98251 0.00278692 0)
(2.9556 0.00678718 0)
(2.88248 0.0181531 0)
(2.67304 0.0496783 0)
(2.0515 0.144648 0)
(1.03761 0.401764 0)
(0.559902 0.380084 0)
(0.627517 0.366238 0)
(0.655194 0.378791 0)
(0.614397 0.399816 0)
(0.548806 0.432195 0)
(0.480101 0.473787 0)
(0.416884 0.523228 0)
(0.346544 0.583224 0)
(0.250178 0.660017 0)
(0.123823 0.75023 0)
(3 1.72438e-07 0)
(2.99999 9.97826e-07 0)
(2.99997 3.66538e-06 0)
(2.99993 9.81678e-06 0)
(2.99984 2.72058e-05 0)
(2.99959 6.55878e-05 0)
(2.99901 0.000172523 0)
(2.99753 0.000408771 0)
(2.99399 0.00106568 0)
(2.98491 0.00255569 0)
(2.9621 0.00663428 0)
(2.90078 0.0169151 0)
(2.72678 0.0467883 0)
(2.2147 0.134729 0)
(1.17616 0.392231 0)
(0.613324 0.417206 0)
(0.670644 0.41756 0)
(0.699297 0.422893 0)
(0.660675 0.445943 0)
(0.599754 0.480036 0)
(0.535036 0.528183 0)
(0.476943 0.586305 0)
(0.419036 0.665068 0)
(0.340643 0.784407 0)
(0.190958 0.991718 0)
(3 1.50978e-07 0)
(2.99999 8.82897e-07 0)
(2.99998 3.20801e-06 0)
(2.99994 8.59375e-06 0)
(2.99986 2.38538e-05 0)
(2.99965 5.66424e-05 0)
(2.99914 0.000151075 0)
(2.99791 0.000347532 0)
(2.99476 0.000921433 0)
(2.98716 0.00215513 0)
(2.96757 0.00561735 0)
(2.91603 0.014043 0)
(2.77167 0.0381446 0)
(2.34809 0.107866 0)
(1.32705 0.322057 0)
(0.676932 0.445827 0)
(0.707752 0.472239 0)
(0.737617 0.470988 0)
(0.710451 0.493119 0)
(0.657746 0.526915 0)
(0.601066 0.577545 0)
(0.554672 0.643298 0)
(0.526284 0.737686 0)
(0.526705 0.883919 0)
(0.563075 1.1263 0)
(3 1.23545e-07 0)
(2.99999 7.91914e-07 0)
(2.99998 2.74914e-06 0)
(2.99995 7.70522e-06 0)
(2.99988 2.02003e-05 0)
(2.9997 5.18171e-05 0)
(2.99926 0.000123671 0)
(2.99817 0.000324544 0)
(2.99549 0.000741613 0)
(2.98883 0.00197616 0)
(2.97199 0.00461549 0)
(2.92785 0.0121406 0)
(2.80439 0.031573 0)
(2.44468 0.0883265 0)
(1.48846 0.261242 0)
(0.756297 0.491178 0)
(0.724469 0.52179 0)
(0.75365 0.51974 0)
(0.748278 0.537475 0)
(0.711434 0.57071 0)
(0.670446 0.620461 0)
(0.64227 0.689901 0)
(0.644363 0.788645 0)
(0.698853 0.926734 0)
(0.825856 1.10407 0)
(3 1.16597e-07 0)
(2.99999 7.52323e-07 0)
(2.99998 2.48233e-06 0)
(2.99996 7.37775e-06 0)
(2.9999 1.83889e-05 0)
(2.99974 4.84596e-05 0)
(2.99936 0.00011759 0)
(2.99843 0.000293515 0)
(2.99614 0.000730202 0)
(2.99039 0.00176565 0)
(2.97603 0.00449018 0)
(2.93849 0.0111392 0)
(2.83446 0.0295613 0)
(2.5329 0.0817793 0)
(1.68471 0.238811 0)
(0.871849 0.539683 0)
(0.732618 0.55524 0)
(0.763186 0.557206 0)
(0.776697 0.571922 0)
(0.758575 0.606477 0)
(0.736185 0.655759 0)
(0.729094 0.723387 0)
(0.752965 0.813632 0)
(0.825867 0.924187 0)
(0.96589 1.03199 0)
(3 1.06596e-07 0)
(2.99999 7.29165e-07 0)
(2.99999 2.33383e-06 0)
(2.99996 7.11533e-06 0)
(2.99991 1.751e-05 0)
(2.99978 4.65483e-05 0)
(2.99946 0.000112403 0)
(2.99868 0.000284326 0)
(2.99672 0.000697325 0)
(2.99196 0.00172207 0)
(2.97982 0.00431662 0)
(2.94866 0.0108068 0)
(2.86334 0.0283617 0)
(2.61656 0.0784551 0)
(1.90117 0.227129 0)
(1.01662 0.574994 0)
(0.747166 0.581051 0)
(0.775942 0.583944 0)
(0.803093 0.596142 0)
(0.803047 0.632067 0)
(0.796681 0.681318 0)
(0.805637 0.743349 0)
(0.842612 0.81774 0)
(0.91887 0.900431 0)
(1.04945 0.969249 0)
(3 1.03647e-07 0)
(3 6.54371e-07 0)
(2.99999 2.29559e-06 0)
(2.99997 6.37568e-06 0)
(2.99993 1.71082e-05 0)
(2.99982 4.27357e-05 0)
(2.99956 0.000107486 0)
(2.99891 0.000269159 0)
(2.99734 0.000654897 0)
(2.9934 0.00167739 0)
(2.9836 0.00406471 0)
(2.95849 0.0104962 0)
(2.89098 0.0270217 0)
(2.69791 0.074811 0)
(2.12893 0.216429 0)
(1.19232 0.595076 0)
(0.787632 0.612719 0)
(0.803947 0.615693 0)
(0.836318 0.619835 0)
(0.84949 0.651424 0)
(0.853165 0.69762 0)
(0.870984 0.751952 0)
(0.914127 0.81156 0)
(0.988676 0.872353 0)
(1.10535 0.919123 0)
(3 9.47134e-08 0)
(3 5.52786e-07 0)
(2.99999 2.01459e-06 0)
(2.99998 5.418e-06 0)
(2.99994 1.49549e-05 0)
(2.99986 3.60837e-05 0)
(2.99965 9.44975e-05 0)
(2.99914 0.000222425 0)
(2.99789 0.000578339 0)
(2.9948 0.0013712 0)
(2.98716 0.0035323 0)
(2.96784 0.00861307 0)
(2.91689 0.0225516 0)
(2.77567 0.060388 0)
(2.36416 0.173726 0)
(1.42487 0.51015 0)
(0.885246 0.625008 0)
(0.859527 0.645666 0)
(0.88087 0.650738 0)
(0.901297 0.671494 0)
(0.90911 0.709207 0)
(0.929047 0.754231 0)
(0.972581 0.801179 0)
(1.04258 0.845494 0)
(1.14491 0.87747 0)
(3 7.41985e-08 0)
(3 4.64291e-07 0)
(2.99999 1.59416e-06 0)
(2.99998 4.53248e-06 0)
(2.99995 1.18128e-05 0)
(2.99989 2.96941e-05 0)
(2.99972 7.41581e-05 0)
(2.99932 0.000180413 0)
(2.99829 0.000450622 0)
(2.99586 0.00108432 0)
(2.98964 0.00272612 0)
(2.97435 0.00662902 0)
(2.93405 0.0169035 0)
(2.82309 0.0441712 0)
(2.5029 0.122611 0)
(1.64733 0.366088 0)
(0.977457 0.648103 0)
(0.898018 0.67829 0)
(0.915317 0.688833 0)
(0.94238 0.696028 0)
(0.958137 0.720988 0)
(0.979662 0.754907 0)
(1.02094 0.789943 0)
(1.08491 0.820363 0)
(1.17384 0.84089 0)
(3 6.25157e-08 0)
(3 3.86557e-07 0)
(2.99999 1.35935e-06 0)
(2.99999 3.77046e-06 0)
(2.99996 1.00401e-05 0)
(2.99991 2.50265e-05 0)
(2.99978 6.25237e-05 0)
(2.99945 0.000154731 0)
(2.99865 0.000377273 0)
(2.9967 0.000940482 0)
(2.99178 0.00228275 0)
(2.97964 0.00574007 0)
(2.94805 0.014284 0)
(2.86226 0.0373826 0)
(2.61537 0.102703 0)
(1.91009 0.300156 0)
(1.12557 0.68531 0)
(0.924361 0.710928 0)
(0.936193 0.719978 0)
(0.967804 0.717459 0)
(0.995266 0.730015 0)
(1.0208 0.753607 0)
(1.05947 0.778036 0)
(1.11748 0.797837 0)
(1.19493 0.808015 0)
(3 5.18737e-08 0)
(3 3.35315e-07 0)
(3 1.13318e-06 0)
(2.99999 3.27705e-06 0)
(2.99997 8.4212e-06 0)
(2.99993 2.17164e-05 0)
(2.99983 5.31322e-05 0)
(2.99958 0.000134093 0)
(2.99895 0.000326313 0)
(2.99745 0.00081729 0)
(2.99364 0.00199655 0)
(2.98435 0.00502137 0)
(2.96036 0.0124981 0)
(2.89648 0.0325779 0)
(2.71532 0.0888717 0)
(2.18284 0.257214 0)
(1.32659 0.681251 0)
(0.975471 0.735628 0)
(0.964945 0.738775 0)
(0.990801 0.733564 0)
(1.02574 0.735761 0)
(1.0552 0.749323 0)
(1.09157 0.764858 0)
(1.1429 0.776788 0)
(1.20871 0.777223 0)
(3 3.98447e-08 0)
(3 2.75527e-07 0)
(3 8.88621e-07 0)
(2.99999 2.68757e-06 0)
(2.99998 6.62634e-06 0)
(2.99995 1.78014e-05 0)
(2.99987 4.16551e-05 0)
(2.99968 0.000109718 0)
(2.99921 0.000254218 0)
(2.99809 0.00066505 0)
(2.99528 0.00155644 0)
(2.98839 0.0040329 0)
(2.97102 0.0097392 0)
(2.92583 0.0253814 0)
(2.80121 0.0674135 0)
(2.44145 0.192459 0)
(1.59559 0.560011 0)
(1.07719 0.735932 0)
(1.01264 0.748469 0)
(1.02431 0.748712 0)
(1.05603 0.743465 0)
(1.0864 0.746648 0)
(1.11991 0.75302 0)
(1.16299 0.75487 0)
(1.2166 0.745621 0)
(3 3.14454e-08 0)
(3 2.13018e-07 0)
(3 6.89567e-07 0)
(2.99999 2.07231e-06 0)
(2.99998 5.13107e-06 0)
(2.99996 1.35504e-05 0)
(2.9999 3.23417e-05 0)
(2.99976 8.21967e-05 0)
(2.99941 0.000196619 0)
(2.99854 0.00049067 0)
(2.99645 0.00119291 0)
(2.99116 0.00293023 0)
(2.97816 0.00727508 0)
(2.9443 0.0181155 0)
(2.85251 0.0473066 0)
(2.58959 0.129772 0)
(1.86685 0.38579 0)
(1.19155 0.736989 0)
(1.04356 0.763724 0)
(1.0491 0.765885 0)
(1.07808 0.754676 0)
(1.11061 0.747131 0)
(1.14102 0.742425 0)
(1.17575 0.731366 0)
(1.21893 0.712052 0)
(3 2.73699e-08 0)
(3 1.5897e-07 0)
(3 5.82698e-07 0)
(3 1.55087e-06 0)
(2.99999 4.29813e-06 0)
(2.99997 1.02736e-05 0)
(2.99993 2.69049e-05 0)
(2.99982 6.31392e-05 0)
(2.99956 0.00016244 0)
(2.99892 0.000384141 0)
(2.99732 0.000975988 0)
(2.99346 0.00234809 0)
(2.98367 0.00592208 0)
(2.95898 0.0146716 0)
(2.89267 0.0381187 0)
(2.70494 0.103605 0)
(2.15808 0.301602 0)
(1.37117 0.738739 0)
(1.07979 0.791347 0)
(1.06812 0.783402 0)
(1.09162 0.766123 0)
(1.12486 0.745663 0)
(1.15243 0.727064 0)
(1.18036 0.704281 0)
(1.21642 0.676539 0)
(3 1.98848e-08 0)
(3 1.25573e-07 0)
(3 4.33392e-07 0)
(3 1.22389e-06 0)
(2.99999 3.2013e-06 0)
(2.99998 8.10172e-06 0)
(2.99995 1.99479e-05 0)
(2.99987 4.9796e-05 0)
(2.99968 0.000120366 0)
(2.99921 0.000301425 0)
(2.99808 0.000724202 0)
(2.99528 0.00182805 0)
(2.98841 0.00441147 0)
(2.97114 0.0111949 0)
(2.92613 0.028235 0)
(2.80333 0.0759638 0)
(2.44685 0.216735 0)
(1.64305 0.611218 0)
(1.16859 0.784693 0)
(1.10104 0.786176 0)
(1.10916 0.767787 0)
(1.1339 0.736843 0)
(1.15789 0.704847 0)
(1.18146 0.673499 0)
(1.21262 0.640453 0)
(3 1.39948e-08 0)
(3 9.49889e-08 0)
(3 3.07259e-07 0)
(3 9.24342e-07 0)
(2.99999 2.27919e-06 0)
(2.99998 6.03561e-06 0)
(2.99996 1.42875e-05 0)
(2.9999 3.64566e-05 0)
(2.99976 8.6501e-05 0)
(2.99942 0.000216279 0)
(2.99859 0.000521589 0)
(2.99653 0.00128196 0)
(2.99147 0.00314248 0)
(2.9788 0.00771992 0)
(2.94638 0.0193173 0)
(2.8582 0.0501762 0)
(2.60796 0.137324 0)
(1.92324 0.40686 0)
(1.27435 0.766294 0)
(1.11487 0.786444 0)
(1.11222 0.758846 0)
(1.13163 0.722007 0)
(1.15577 0.681065 0)
(1.1797 0.64267 0)
(1.20938 0.606484 0)
(3 1.107e-08 0)
(3 6.76205e-08 0)
(3 2.38542e-07 0)
(3 6.58642e-07 0)
(3 1.76079e-06 0)
(2.99999 4.34623e-06 0)
(2.99997 1.095e-05 0)
(2.99993 2.65705e-05 0)
(2.99983 6.57905e-05 0)
(2.99958 0.000160128 0)
(2.99897 0.000393061 0)
(2.99747 0.00096278 0)
(2.99378 0.00236156 0)
(2.98459 0.00584995 0)
(2.96134 0.0145399 0)
(2.89921 0.0374664 0)
(2.72553 0.101234 0)
(2.21969 0.294815 0)
(1.45145 0.724102 0)
(1.13068 0.786114 0)
(1.10404 0.746292 0)
(1.12311 0.704205 0)
(1.14749 0.657309 0)
(1.1745 0.612542 0)
(1.20686 0.57534 0)
(3 7.92322e-09 0)
(3 4.88407e-08 0)
(3 1.71086e-07 0)
(3 4.74644e-07 0)
(3 1.26138e-06 0)
(2.99999 3.12216e-06 0)
(2.99998 7.85812e-06 0)
(2.99995 1.90534e-05 0)
(2.99988 4.71707e-05 0)
(2.99969 0.00011452 0)
(2.99926 0.000281123 0)
(2.99817 0.000687619 0)
(2.99554 0.00168233 0)
(2.98895 0.00415199 0)
(2.97264 0.0102707 0)
(2.92995 0.026056 0)
(2.81382 0.0691739 0)
(2.47896 0.19656 0)
(1.69911 0.559027 0)
(1.18057 0.753219 0)
(1.09398 0.726466 0)
(1.11036 0.679292 0)
(1.13437 0.629743 0)
(1.16689 0.58316 0)
(1.20629 0.547845 0)
(3 5.63204e-09 0)
(3 3.39684e-08 0)
(3 1.20867e-07 0)
(3 3.30566e-07 0)
(3 8.8837e-07 0)
(2.99999 2.17261e-06 0)
(2.99998 5.5137e-06 0)
(2.99996 1.32144e-05 0)
(2.99991 3.2927e-05 0)
(2.99977 7.91186e-05 0)
(2.99945 0.000194889 0)
(2.99863 0.00047285 0)
(2.99666 0.00115436 0)
(2.99174 0.00283463 0)
(2.97954 0.0069328 0)
(2.948 0.0173725 0)
(2.8628 0.0447805 0)
(2.61954 0.122696 0)
(1.94972 0.362575 0)
(1.24769 0.721665 0)
(1.05621 0.70694 0)
(1.07411 0.650205 0)
(1.10942 0.597892 0)
(1.15389 0.554578 0)
(1.20402 0.524108 0)
(3 4.02648e-09 0)
(3 2.32967e-08 0)
(3 8.58637e-08 0)
(3 2.26109e-07 0)
(3 6.29916e-07 0)
(3 1.49014e-06 0)
(2.99999 3.90073e-06 0)
(2.99997 9.10387e-06 0)
(2.99993 2.33431e-05 0)
(2.99983 5.4911e-05 0)
(2.99959 0.000138253 0)
(2.99897 0.000330613 0)
(2.99751 0.000820788 0)
(2.99377 0.00200241 0)
(2.98472 0.00492991 0)
(2.96134 0.0123214 0)
(2.89947 0.0315924 0)
(2.72553 0.0857505 0)
(2.22249 0.25023 0)
(1.38631 0.639831 0)
(1.02368 0.669476 0)
(1.02897 0.616259 0)
(1.07867 0.56622 0)
(1.1392 0.527609 0)
(1.20125 0.503081 0)
(3 2.55364e-09 0)
(3 1.61355e-08 0)
(3 5.51013e-08 0)
(3 1.56681e-07 0)
(3 4.04563e-07 0)
(3 1.02453e-06 0)
(2.99999 2.52211e-06 0)
(2.99998 6.1778e-06 0)
(2.99995 1.51937e-05 0)
(2.99987 3.65678e-05 0)
(2.99968 9.06135e-05 0)
(2.9992 0.000216711 0)
(2.99806 0.000538669 0)
(2.99517 0.00128784 0)
(2.98813 0.00322114 0)
(2.97019 0.0078451 0)
(2.92333 0.0200221 0)
(2.79396 0.0529671 0)
(2.42161 0.150294 0)
(1.55079 0.44056 0)
(1.00462 0.587827 0)
(0.972783 0.565374 0)
(1.03634 0.532 0)
(1.1149 0.502044 0)
(1.19139 0.484531 0)
(3 1.6012e-09 0)
(3 1.13382e-08 0)
(3 3.53846e-08 0)
(3 1.09752e-07 0)
(3 2.6286e-07 0)
(3 7.08691e-07 0)
(2.99999 1.64728e-06 0)
(2.99998 4.23247e-06 0)
(2.99996 9.96113e-06 0)
(2.99989 2.47596e-05 0)
(2.99974 5.9956e-05 0)
(2.99934 0.000144171 0)
(2.9984 0.000359227 0)
(2.996 0.000842291 0)
(2.99018 0.00215231 0)
(2.9753 0.00506325 0)
(2.93675 0.0130081 0)
(2.82973 0.0332502 0)
(2.52074 0.0912237 0)
(1.69203 0.26914 0)
(0.986464 0.52444 0)
(0.889413 0.51082 0)
(0.969789 0.489768 0)
(1.0696 0.47407 0)
(1.16408 0.465736 0)
(3 1.26387e-09 0)
(3 7.66776e-09 0)
(3 2.7121e-08 0)
(3 7.45344e-08 0)
(3 2.00845e-07 0)
(3 4.9019e-07 0)
(2.99999 1.25668e-06 0)
(2.99999 2.99241e-06 0)
(2.99996 7.53067e-06 0)
(2.99991 1.80175e-05 0)
(2.99978 4.48389e-05 0)
(2.99945 0.000107654 0)
(2.99864 0.000267029 0)
(2.99666 0.000646323 0)
(2.99164 0.00159859 0)
(2.97921 0.00393256 0)
(2.94671 0.00982029 0)
(2.85735 0.0255912 0)
(2.59925 0.070049 0)
(1.86193 0.203379 0)
(1.01007 0.490169 0)
(0.786524 0.452933 0)
(0.889203 0.433184 0)
(1.01276 0.438381 0)
(1.12147 0.441052 0)
(3 9.26369e-10 0)
(3 5.50692e-09 0)
(3 1.98076e-08 0)
(3 5.40305e-08 0)
(3 1.47106e-07 0)
(3 3.60935e-07 0)
(2.99999 9.29395e-07 0)
(2.99999 2.22547e-06 0)
(2.99997 5.66768e-06 0)
(2.99992 1.35567e-05 0)
(2.99981 3.4351e-05 0)
(2.99953 8.18372e-05 0)
(2.99885 0.000207884 0)
(2.99711 0.000499689 0)
(2.99292 0.00126138 0)
(2.98215 0.00307982 0)
(2.95473 0.00785205 0)
(2.87956 0.0202751 0)
(2.66295 0.0561274 0)
(2.02709 0.162771 0)
(1.06061 0.443547 0)
(0.693275 0.395865 0)
(0.823153 0.379041 0)
(0.967278 0.399826 0)
(1.07744 0.409707 0)
(3 6.37425e-10 0)
(3 4.03575e-09 0)
(3 1.38371e-08 0)
(3 3.96365e-08 0)
(3 1.03478e-07 0)
(3 2.62962e-07 0)
(3 6.53773e-07 0)
(2.99999 1.61866e-06 0)
(2.99997 4.02634e-06 0)
(2.99993 9.83558e-06 0)
(2.99983 2.46164e-05 0)
(2.9996 5.98437e-05 0)
(2.99899 0.000151179 0)
(2.99754 0.000366743 0)
(2.99379 0.000930349 0)
(2.9847 0.00228278 0)
(2.961 0.00582397 0)
(2.8975 0.0151302 0)
(2.7161 0.0417367 0)
(2.17918 0.122217 0)
(1.14057 0.362629 0)
(0.644079 0.348035 0)
(0.788222 0.347523 0)
(0.940124 0.366423 0)
(1.04048 0.374864 0)
(3 4.58738e-10 0)
(3 2.88104e-09 0)
(3 9.95099e-09 0)
(3 2.82174e-08 0)
(3 7.36289e-08 0)
(3 1.88443e-07 0)
(3 4.58903e-07 0)
(2.99999 1.1633e-06 0)
(2.99998 2.78073e-06 0)
(2.99994 7.05136e-06 0)
(2.99985 1.67294e-05 0)
(2.99963 4.28279e-05 0)
(2.99911 0.000101525 0)
(2.99776 0.000258211 0)
(2.99452 0.000622809 0)
(2.98623 0.00158387 0)
(2.96543 0.00391189 0)
(2.90946 0.0101928 0)
(2.75145 0.0275559 0)
(2.28636 0.079716 0)
(1.21652 0.244436 0)
(0.615103 0.299447 0)
(0.754681 0.329942 0)
(0.903498 0.337863 0)
(0.997767 0.339871 0)
(3 3.38994e-10 0)
(3 2.3153e-09 0)
(3 7.24915e-09 0)
(3 2.25938e-08 0)
(3 5.37408e-08 0)
(3 1.45369e-07 0)
(3 3.4785e-07 0)
(2.99999 8.60158e-07 0)
(2.99998 2.18488e-06 0)
(2.99995 5.0468e-06 0)
(2.99986 1.35141e-05 0)
(2.99967 2.96834e-05 0)
(2.99916 8.23513e-05 0)
(2.99797 0.000177043 0)
(2.9949 0.000498175 0)
(2.98744 0.00108169 0)
(2.96818 0.00298965 0)
(2.91719 0.00710701 0)
(2.7734 0.0195448 0)
(2.34827 0.0544501 0)
(1.28901 0.162815 0)
(0.612541 0.276527 0)
(0.722601 0.322125 0)
(0.854046 0.310536 0)
(0.948399 0.305166 0)
(3 2.94121e-10 0)
(3 1.83305e-09 0)
(3 6.38065e-09 0)
(3 1.76564e-08 0)
(3 4.7282e-08 0)
(3 1.14528e-07 0)
(3 2.9763e-07 0)
(2.99999 7.03998e-07 0)
(2.99998 1.79775e-06 0)
(2.99995 4.28863e-06 0)
(2.99987 1.08201e-05 0)
(2.99969 2.59445e-05 0)
(2.99923 6.48857e-05 0)
(2.99811 0.000158594 0)
(2.99527 0.000387305 0)
(2.9883 0.00096163 0)
(2.97045 0.00237038 0)
(2.92322 0.00604206 0)
(2.79054 0.0160114 0)
(2.39892 0.0449022 0)
(1.37583 0.132463 0)
(0.650577 0.269692 0)
(0.695558 0.299058 0)
(0.803758 0.281491 0)
(0.905748 0.27257 0)
(3 2.76003e-10 0)
(3 1.54032e-09 0)
(3 5.74804e-09 0)
(3 1.48939e-08 0)
(3 4.25275e-08 0)
(3 9.79301e-08 0)
(3 2.69313e-07 0)
(2.99999 6.03946e-07 0)
(2.99998 1.63869e-06 0)
(2.99995 3.6295e-06 0)
(2.99988 9.87712e-06 0)
(2.99971 2.19905e-05 0)
(2.99928 5.9021e-05 0)
(2.99824 0.000133376 0)
(2.99557 0.000351331 0)
(2.9891 0.000823797 0)
(2.9724 0.00212878 0)
(2.92857 0.00527714 0)
(2.80551 0.0141998 0)
(2.44327 0.0394308 0)
(1.46685 0.115315 0)
(0.699631 0.25978 0)
(0.675598 0.264544 0)
(0.773179 0.254973 0)
(0.875442 0.246115 0)
(3 2.25138e-10 0)
(3 1.53e-09 0)
(3 5.06177e-09 0)
(3 1.5003e-08 0)
(3 3.74558e-08 0)
(3 9.98665e-08 0)
(3 2.31162e-07 0)
(2.99999 6.16594e-07 0)
(2.99998 1.38638e-06 0)
(2.99996 3.73146e-06 0)
(2.99989 8.2602e-06 0)
(2.99973 2.2515e-05 0)
(2.99932 4.9338e-05 0)
(2.99835 0.0001344 0)
(2.99585 0.00030048 0)
(2.98979 0.000795049 0)
(2.97415 0.00187888 0)
(2.9333 0.00485155 0)
(2.81879 0.012716 0)
(2.48227 0.0354867 0)
(1.55375 0.103439 0)
(0.748985 0.249146 0)
(0.657876 0.239515 0)
(0.751893 0.228748 0)
(0.854984 0.222376 0)
(3 2.40554e-10 0)
(3 1.30621e-09 0)
(3 5.02876e-09 0)
(3 1.28096e-08 0)
(3 3.71084e-08 0)
(3 8.49454e-08 0)
(3 2.31347e-07 0)
(2.99999 5.1661e-07 0)
(2.99998 1.38587e-06 0)
(2.99996 3.15951e-06 0)
(2.9999 8.11815e-06 0)
(2.99975 1.9513e-05 0)
(2.99937 4.75353e-05 0)
(2.99845 0.000119816 0)
(2.99612 0.000283256 0)
(2.99041 0.000729842 0)
(2.97578 0.00174599 0)
(2.93757 0.00450066 0)
(2.83098 0.0117233 0)
(2.51771 0.0327331 0)
(1.63794 0.0949763 0)
(0.795632 0.239034 0)
(0.637108 0.218317 0)
(0.735479 0.203215 0)
(0.84316 0.200835 0)
(3 2.07781e-10 0)
(3 1.27763e-09 0)
(3 4.5329e-09 0)
(3 1.24467e-08 0)
(3 3.35425e-08 0)
(3 8.38237e-08 0)
(3 2.06319e-07 0)
(2.99999 5.21067e-07 0)
(2.99998 1.22874e-06 0)
(2.99996 3.18388e-06 0)
(2.9999 7.27369e-06 0)
(2.99976 1.93659e-05 0)
(2.99941 4.30615e-05 0)
(2.99855 0.000117705 0)
(2.99635 0.000258275 0)
(2.99101 0.000709034 0)
(2.97728 0.00161028 0)
(2.94162 0.00429436 0)
(2.8421 0.0109116 0)
(2.55091 0.0306346 0)
(1.71847 0.088286 0)
(0.838345 0.229053 0)
(0.611996 0.199011 0)
(0.72141 0.180514 0)
(0.837457 0.181013 0)
(3 1.57826e-10 0)
(3 1.32226e-09 0)
(3 3.8107e-09 0)
(3 1.28474e-08 0)
(3 2.83261e-08 0)
(3 8.60369e-08 0)
(3 1.74384e-07 0)
(2.99999 5.39829e-07 0)
(2.99999 1.05188e-06 0)
(2.99996 3.27337e-06 0)
(2.99991 6.40728e-06 0)
(2.99978 1.95765e-05 0)
(2.99945 3.91293e-05 0)
(2.99863 0.000114776 0)
(2.99661 0.00024235 0)
(2.99154 0.000670796 0)
(2.97876 0.00152469 0)
(2.9453 0.00404252 0)
(2.85281 0.010214 0)
(2.58133 0.0286935 0)
(1.79624 0.0822976 0)
(0.876551 0.218466 0)
(0.58317 0.180423 0)
(0.708799 0.160858 0)
(0.83533 0.161702 0)
(3 2.11891e-10 0)
(3 9.47129e-10 0)
(3 4.29068e-09 0)
(3 9.25612e-09 0)
(3 3.13007e-08 0)
(3 6.27616e-08 0)
(3 1.96472e-07 0)
(2.99999 3.96915e-07 0)
(2.99999 1.18332e-06 0)
(2.99997 2.49186e-06 0)
(2.99992 6.95359e-06 0)
(2.99979 1.5703e-05 0)
(2.99948 4.06108e-05 0)
(2.99872 9.79894e-05 0)
(2.99682 0.000235223 0)
(2.99207 0.00061214 0)
(2.98009 0.00142196 0)
(2.94881 0.00375334 0)
(2.86265 0.00952751 0)
(2.60991 0.0265768 0)
(1.87013 0.0763129 0)
(0.91015 0.206499 0)
(0.552174 0.162462 0)
(0.69708 0.143128 0)
(0.834652 0.142813 0)
(3 1.81073e-10 0)
(3 8.11149e-10 0)
(3 3.75324e-09 0)
(3 7.97081e-09 0)
(3 2.77899e-08 0)
(3 5.51779e-08 0)
(3 1.75136e-07 0)
(2.99999 3.50747e-07 0)
(2.99999 1.045e-06 0)
(2.99997 2.23154e-06 0)
(2.99992 6.15552e-06 0)
(2.9998 1.40872e-05 0)
(2.99952 3.58098e-05 0)
(2.99879 9.035e-05 0)
(2.99704 0.00020761 0)
(2.99253 0.000568756 0)
(2.98137 0.00127727 0)
(2.95208 0.00345397 0)
(2.87158 0.00868879 0)
(2.63669 0.0242804 0)
(1.93951 0.0698471 0)
(0.940071 0.19252 0)
(0.521264 0.14476 0)
(0.687519 0.125791 0)
(0.836079 0.124524 0)
(3 1.21911e-10 0)
(3 7.68201e-10 0)
(3 2.63811e-09 0)
(3 7.51822e-09 0)
(3 2.00468e-08 0)
(3 5.05075e-08 0)
(3 1.30547e-07 0)
(3 3.15485e-07 0)
(2.99999 8.13022e-07 0)
(2.99997 1.93985e-06 0)
(2.99993 5.06426e-06 0)
(2.99982 1.19388e-05 0)
(2.99955 3.11296e-05 0)
(2.99886 7.37095e-05 0)
(2.99722 0.000194864 0)
(2.99297 0.000458672 0)
(2.98249 0.00120039 0)
(2.95501 0.00295169 0)
(2.87982 0.0078404 0)
(2.66071 0.0215498 0)
(2.00485 0.0626054 0)
(0.967022 0.175717 0)
(0.491987 0.126626 0)
(0.679785 0.108408 0)
(0.838001 0.106261 0)
(3 7.54016e-11 0)
(3 6.52848e-10 0)
(3 1.6577e-09 0)
(3 6.5275e-09 0)
(3 1.28462e-08 0)
(3 4.25103e-08 0)
(3 8.90761e-08 0)
(3 2.56945e-07 0)
(2.99999 6.13733e-07 0)
(2.99997 1.5261e-06 0)
(2.99993 4.16358e-06 0)
(2.99983 9.01275e-06 0)
(2.99957 2.78458e-05 0)
(2.99893 5.41044e-05 0)
(2.99736 0.000181914 0)
(2.99337 0.000337728 0)
(2.98345 0.00111344 0)
(2.95761 0.00233034 0)
(2.88705 0.00688839 0)
(2.6821 0.0182681 0)
(2.06473 0.0542638 0)
(0.990731 0.155814 0)
(0.464847 0.107987 0)
(0.672507 0.0912145 0)
(0.837898 0.0885427 0)
(3 5.87396e-11 0)
(3 3.80731e-10 0)
(3 1.29484e-09 0)
(3 3.80753e-09 0)
(3 9.88686e-09 0)
(3 2.63187e-08 0)
(3 6.51049e-08 0)
(3 1.71341e-07 0)
(2.99999 4.21099e-07 0)
(2.99997 1.10368e-06 0)
(2.99993 2.74691e-06 0)
(2.99984 7.11013e-06 0)
(2.99959 1.79623e-05 0)
(2.99899 4.62839e-05 0)
(2.99745 0.000116531 0)
(2.99374 0.00030244 0)
(2.98415 0.00076182 0)
(2.95982 0.00199169 0)
(2.89321 0.0052709 0)
(2.70003 0.0148861 0)
(2.11897 0.0445051 0)
(1.012 0.132244 0)
(0.443132 0.089103 0)
(0.66616 0.0750666 0)
(0.835603 0.0723338 0)
(3 5.42385e-11 0)
(3 1.80239e-10 0)
(3 1.17139e-09 0)
(3 1.72948e-09 0)
(3 8.65447e-09 0)
(3 1.37658e-08 0)
(3 5.14759e-08 0)
(3 1.03323e-07 0)
(2.99999 2.85118e-07 0)
(2.99997 7.58949e-07 0)
(2.99993 1.57068e-06 0)
(2.99984 5.50709e-06 0)
(2.9996 8.88066e-06 0)
(2.99901 3.8361e-05 0)
(2.99757 5.45537e-05 0)
(2.9939 0.000257808 0)
(2.98486 0.000409739 0)
(2.96138 0.00159531 0)
(2.89788 0.00355674 0)
(2.71519 0.0111073 0)
(2.16427 0.0335574 0)
(1.03318 0.102808 0)
(0.428773 0.0697915 0)
(0.660877 0.060183 0)
(0.832062 0.0573037 0)
(3 2.5906e-11 0)
(3 1.6954e-10 0)
(3 5.70777e-10 0)
(3 1.67952e-09 0)
(3 4.31761e-09 0)
(3 1.13051e-08 0)
(3 2.80183e-08 0)
(3 7.11967e-08 0)
(2.99999 1.77438e-07 0)
(2.99997 4.47727e-07 0)
(2.99994 1.13245e-06 0)
(2.99984 2.85656e-06 0)
(2.99961 7.27004e-06 0)
(2.99903 1.86201e-05 0)
(2.99763 4.76894e-05 0)
(2.99404 0.000123322 0)
(2.98527 0.000323135 0)
(2.96246 0.00084859 0)
(2.9012 0.00234447 0)
(2.72587 0.00675407 0)
(2.19941 0.021306 0)
(1.05123 0.0662364 0)
(0.419805 0.0507303 0)
(0.656051 0.0459311 0)
(0.828043 0.0424279 0)
(3 -3.64107e-13 0)
(3 1.72313e-10 0)
(3 2.20081e-11 0)
(3 1.72057e-09 0)
(3 3.81052e-10 0)
(3 9.78826e-09 0)
(3 6.66357e-09 0)
(3 4.74305e-08 0)
(2.99999 8.47521e-08 0)
(2.99997 2.03968e-07 0)
(2.99994 7.98809e-07 0)
(2.99984 7.16837e-07 0)
(2.99962 6.47127e-06 0)
(2.99904 2.45312e-06 0)
(2.99766 4.68694e-05 0)
(2.99413 1.22091e-05 0)
(2.98546 0.000278444 0)
(2.96307 0.000233894 0)
(2.9029 0.00140134 0)
(2.73151 0.00309754 0)
(2.21838 0.0104424 0)
(1.06317 0.0319066 0)
(0.416248 0.0320856 0)
(0.652263 0.0298244 0)
(0.82444 0.0262448 0)
(3 -1.72569e-11 0)
(3 1.31086e-10 0)
(3 -2.50048e-10 0)
(3 1.27864e-09 0)
(3 -1.4786e-09 0)
(3 6.75159e-09 0)
(3 -5.0519e-09 0)
(3 2.82672e-08 0)
(2.99999 6.32748e-09 0)
(2.99997 9.38364e-08 0)
(2.99994 2.74085e-07 0)
(2.99985 3.97371e-09 0)
(2.99961 3.04876e-06 0)
(2.99906 -2.30868e-06 0)
(2.99764 2.38947e-05 0)
(2.99423 -2.20616e-05 0)
(2.98546 0.000142092 0)
(2.96339 -3.25443e-05 0)
(2.90368 0.000538752 0)
(2.73344 0.000804928 0)
(2.22601 0.00306962 0)
(1.06992 0.00893644 0)
(0.416357 0.0115561 0)
(0.650049 0.0107502 0)
(0.822157 0.00924942 0)
(1.11503 0.992258 0)
(0.996299 0.698869 0)
(0.110849 0.428711 0)
(-0.405137 0.0208273 0)
(-0.516267 -0.013208 0)
(-0.658493 -0.0247998 0)
(-0.702897 -0.020404 0)
(-0.723197 -0.000966773 0)
(-0.746337 0.0134124 0)
(-0.777429 0.0168823 0)
(-0.800164 0.015356 0)
(-0.806773 0.00998949 0)
(-0.80369 0.00358069 0)
(-0.79692 -0.00195284 0)
(-0.787544 -0.00365395 0)
(-0.772483 -0.00414473 0)
(-0.750309 -0.00485669 0)
(-0.721808 -0.00591474 0)
(-0.688135 -0.00690628 0)
(-0.650441 -0.00782141 0)
(-0.609623 -0.00870121 0)
(-0.566463 -0.00955159 0)
(-0.521533 -0.0104158 0)
(-0.475259 -0.0113878 0)
(-0.426772 -0.0132778 0)
(-0.377417 -0.0146311 0)
(-0.327909 -0.0159252 0)
(-0.278691 -0.017116 0)
(-0.229999 -0.0184452 0)
(-0.181744 -0.0196472 0)
(-0.133762 -0.0206892 0)
(-0.086325 -0.0216565 0)
(-0.0399598 -0.0231138 0)
(0.00876081 -0.0252538 0)
(0.0586236 -0.0239832 0)
(0.103144 -0.0223502 0)
(0.147305 -0.0215371 0)
(0.189778 -0.0209991 0)
(0.230741 -0.0202263 0)
(0.270501 -0.01958 0)
(0.307644 -0.0187819 0)
(0.344074 -0.0184394 0)
(0.382245 -0.0186969 0)
(0.420489 -0.0184604 0)
(0.457108 -0.0177814 0)
(0.492448 -0.0171298 0)
(0.526832 -0.0165195 0)
(0.560425 -0.0160161 0)
(0.593192 -0.015506 0)
(0.625253 -0.0150127 0)
(0.656604 -0.0145271 0)
(0.687272 -0.0140462 0)
(0.717291 -0.0135668 0)
(0.746666 -0.0130977 0)
(0.775415 -0.0126229 0)
(0.803561 -0.0121627 0)
(0.831105 -0.0116985 0)
(0.858078 -0.0112478 0)
(0.884485 -0.0107965 0)
(0.910354 -0.0103571 0)
(0.935685 -0.00991969 0)
(0.960505 -0.009489 0)
(0.98482 -0.00906377 0)
(1.00865 -0.00864204 0)
(1.032 -0.00822649 0)
(1.05487 -0.00781455 0)
(1.07729 -0.00740893 0)
(1.09925 -0.00700933 0)
(1.12076 -0.00661756 0)
(1.14183 -0.00623458 0)
(1.16245 -0.00586205 0)
(1.18264 -0.005501 0)
(1.20239 -0.00515347 0)
(1.22171 -0.00481981 0)
(1.24061 -0.00450103 0)
(1.25908 -0.00419706 0)
(1.27713 -0.00390852 0)
(1.29476 -0.00363465 0)
(1.31196 -0.00337625 0)
(1.32871 -0.00313321 0)
(1.345 -0.0029054 0)
(1.36081 -0.00269268 0)
(1.37611 -0.00249308 0)
(1.39086 -0.00231448 0)
(1.40502 -0.00215527 0)
(1.41853 -0.00201402 0)
(1.43134 -0.00188973 0)