/*--------------------------------*- C++ -*----------------------------------*\
  =========                 |
  \\      /  F ield         | OpenFOAM: The Open Source CFD Toolbox
   \\    /   O peration     | Website:  https://openfoam.org
    \\  /    A nd           | Version:  10
     \\/     M anipulation  |
\*---------------------------------------------------------------------------*/
FoamFile
{
    format      ascii;
    class       volScalarField;
    location    "3";
    object      T;
}
// * * * * * * * * * * * * * * * * * * * * * * * * * * * * * * * * * * * * * //

dimensions      [0 0 0 1 0 0 0];

internalField   nonuniform List<scalar> 
5250
(
1.00001
1.00002
1.00004
1.00011
1.00027
1.00064
1.00166
1.00383
1.01028
1.02387
1.06376
1.16341
1.44368
2.10833
2.64839
2.75887
2.74179
2.73808
2.74999
2.76816
2.78072
2.78912
2.79883
2.80063
2.79935
1
1.00001
1.00005
1.00009
1.00029
1.00058
1.00174
1.0036
1.01031
1.02325
1.06301
1.16021
1.43683
2.09367
2.64364
2.75862
2.74103
2.73698
2.74889
2.76699
2.77949
2.78785
2.79755
2.79935
2.79808
1
1.00002
1.00004
1.00011
1.00024
1.00065
1.00148
1.00387
1.00927
1.02353
1.05919
1.15627
1.41879
2.06302
2.63177
2.75725
2.73861
2.73364
2.74551
2.76341
2.77593
2.78407
2.79425
2.79628
2.79508
1
1.00001
1.00004
1.00009
1.00026
1.00053
1.0016
1.00328
1.00947
1.02117
1.05759
1.1453
1.39675
2.0111
2.61333
2.75456
2.7342
2.72805
2.73965
2.75815
2.77067
2.77945
2.78849
2.78961
2.78857
1
1.00001
1.00003
1.0001
1.0002
1.00061
1.00122
1.00362
1.00772
1.02147
1.05063
1.13726
1.36238
1.94412
2.58661
2.74929
2.7274
2.71928
2.7308
2.74875
2.76148
2.7698
2.78037
2.78265
2.78108
1
1.00001
1.00003
1.00008
1.00022
1.00046
1.00135
1.00277
1.00814
1.01766
1.04873
1.12066
1.32918
1.85643
2.5507
2.7393
2.71645
2.70725
2.71939
2.737
2.75115
2.75783
2.76738
2.77042
2.76935
1
1.00001
1.00003
1.00007
1.00018
1.00045
1.00115
1.00266
1.00708
1.01627
1.04344
1.10806
1.29224
1.76639
2.50754
2.72512
2.70172
2.69187
2.70383
2.72107
2.73631
2.74329
2.75233
2.75493
2.75266
1
1.00001
1.00003
1.00007
1.00016
1.00044
1.00095
1.00269
1.00571
1.01629
1.03682
1.10076
1.26123
1.69912
2.4606
2.71049
2.68935
2.68012
2.68839
2.70418
2.71682
2.72336
2.73127
2.73088
2.72584
1
1.00001
1.00002
1.00006
1.00014
1.00039
1.00089
1.0023
1.00556
1.01385
1.0347
1.08907
1.23604
1.63144
2.39117
2.68379
2.67924
2.67303
2.67502
2.68559
2.69696
2.69862
2.70311
2.69834
2.68077
1
1.00001
1.00002
1.00005
1.00014
1.00031
1.00089
1.00185
1.00541
1.01158
1.03225
1.07749
1.21149
1.55984
2.29994
2.64739
2.67224
2.66468
2.66157
2.66613
2.67261
2.67169
2.66483
2.64499
2.58117
1
1.00001
1.00002
1.00005
1.00012
1.00028
1.00077
1.00165
1.00472
1.01018
1.02839
1.0674
1.1842
1.48759
2.18395
2.59947
2.66355
2.65436
2.64782
2.64758
2.64682
2.63959
2.61884
2.56963
2.45469
1
1.00001
1.00002
1.00004
1.00011
1.00023
1.00068
1.00138
1.00408
1.0087
1.02417
1.05733
1.1556
1.41121
2.039
2.53711
2.65051
2.64129
2.63074
2.62695
2.6207
2.60485
2.57039
2.50025
2.36675
1
1.00001
1.00001
1.00004
1.00008
1.00022
1.00049
1.00136
1.00289
1.00826
1.01809
1.0498
1.12315
1.33538
1.86379
2.45674
2.62704
2.62036
2.61041
2.60254
2.59238
2.57114
2.52856
2.45537
2.33219
1
1
1.00001
1.00003
1.00007
1.00016
1.00045
1.00095
1.00272
1.00573
1.0162
1.03676
1.09961
1.25619
1.67655
2.35771
2.58949
2.59131
2.58391
2.57441
2.56125
2.53726
2.49283
2.42583
2.32113
1
1
1.00001
1.00003
1.00005
1.00015
1.00031
1.0009
1.00192
1.00527
1.01204
1.03169
1.07806
1.20913
1.55007
2.24768
2.54624
2.56686
2.55787
2.54734
2.53227
2.50798
2.46314
2.40288
2.31468
1
1
1.00001
1.00002
1.00005
1.0001
1.0003
1.00062
1.00175
1.00387
1.01034
1.02441
1.06397
1.16426
1.44171
2.07464
2.47504
2.54645
2.5381
2.52514
2.50509
2.4819
2.43923
2.38272
2.30782
1
1
1.00001
1.00002
1.00003
1.00009
1.0002
1.00056
1.00124
1.00327
1.00771
1.01961
1.04862
1.12707
1.33609
1.86533
2.37819
2.51892
2.51758
2.50558
2.48124
2.45704
2.4193
2.36678
2.30051
1
1
1
1.00001
1.00002
1.00007
1.00015
1.00043
1.00091
1.00251
1.00563
1.01481
1.03532
1.09232
1.23782
1.6253
2.25091
2.47257
2.48775
2.47823
2.45773
2.43144
2.39845
2.35213
2.29346
1
1
1
1.00001
1.00002
1.00006
1.00011
1.00032
1.0007
1.0019
1.0043
1.01122
1.02687
1.06944
1.1788
1.47488
2.10199
2.41738
2.46155
2.45312
2.43497
2.40837
2.37735
2.33766
2.28624
1
1
1
1.00001
1.00001
1.00004
1.00009
1.00025
1.0005
1.00149
1.00303
1.0088
1.01931
1.05256
1.13023
1.35141
1.88231
2.32008
2.43
2.42901
2.41423
2.38827
2.35751
2.32148
2.27757
1
1
1
1
1.00001
1.00003
1.00006
1.00018
1.00037
1.00107
1.00216
1.00633
1.01346
1.03712
1.08866
1.23735
1.61181
2.184
2.38124
2.39923
2.38943
2.36773
2.33819
2.30507
2.26624
1
1
1
1
1.00001
1.00002
1.00005
1.00012
1.00028
1.00074
1.00162
1.00447
1.00972
1.02678
1.06249
1.16842
1.4351
2.01619
2.31913
2.37085
2.36411
2.34549
2.31923
2.28915
2.25415
1
1
1
1
1.00001
1.00001
1.00003
1.00009
1.0002
1.00053
1.00115
1.0032
1.00684
1.01909
1.04348
1.11764
1.30149
1.77389
2.21018
2.33213
2.3376
2.32588
2.30223
2.27342
2.24144
1
1
1
1
1
1.00001
1.00002
1.00006
1.00013
1.00037
1.00078
1.00214
1.00477
1.0125
1.02948
1.07633
1.19327
1.50826
2.05092
2.2716
2.30657
2.30129
2.28385
2.25711
2.22794
1
1
1
1
1
1.00001
1.00002
1.00004
1.00009
1.00025
1.00052
1.00152
1.00309
1.00889
1.01942
1.0525
1.12855
1.34272
1.83297
2.18201
2.27124
2.27591
2.26544
2.24342
2.21409
1
1
1
1
1
1
1.00001
1.00003
1.00006
1.00016
1.00036
1.00096
1.0021
1.00575
1.0125
1.034
1.08
1.21195
1.54304
2.03813
2.22063
2.24729
2.24286
2.22533
2.20176
1
1
1
1
1
1
1.00001
1.00002
1.00004
1.0001
1.00027
1.00055
1.00162
1.00326
1.00946
1.02032
1.05555
1.13452
1.35893
1.84207
2.14604
2.21585
2.21947
2.20903
2.18804
1
1
1
1
1
1
1.00001
1.00001
1.00003
1.00006
1.00017
1.00038
1.00097
1.00232
1.00557
1.01395
1.03352
1.08541
1.21808
1.56075
2.0103
2.16959
2.19301
2.18869
2.17206
1
1
1
1
1
1
1
1.00001
1.00002
1.00004
1.00011
1.00025
1.00061
1.0015
1.00353
1.00906
1.02089
1.05463
1.13413
1.35354
1.81456
2.09291
2.15997
2.16543
2.15671
1
1
1
1
1
1
1
1
1.00001
1.00003
1.00006
1.00017
1.00035
1.00099
1.00213
1.00567
1.01287
1.03325
1.08026
1.20872
1.52974
1.95605
2.11298
2.13896
2.13687
1
1
1
1
1
1
1
1
1.00001
1.00002
1.00004
1.00011
1.00022
1.00063
1.00128
1.00368
1.00767
1.02111
1.04822
1.12765
1.32235
1.75649
2.03174
2.10579
2.11457
1
1
1
1
1
1
1
1
1
1.00001
1.00003
1.00006
1.00015
1.00034
1.00086
1.00203
1.00487
1.01207
1.0287
1.07252
1.18148
1.46468
1.88426
2.05512
2.08648
1
1
1
1
1
1
1
1
1
1.00001
1.00002
1.00004
1.00009
1.0002
1.00056
1.00113
1.00327
1.00673
1.01871
1.04204
1.1114
1.27831
1.67318
1.97053
2.05531
1
1
1
1
1
1
1
1
1
1
1.00001
1.00002
1.00005
1.00013
1.00029
1.00075
1.00176
1.00425
1.01045
1.02487
1.06252
1.15569
1.39992
1.80761
1.99584
1
1
1
1
1
1
1
1
1
1
1.00001
1.00001
1.00003
1.00008
1.00017
1.00047
1.00096
1.00275
1.0056
1.01575
1.03449
1.09201
1.22577
1.56235
1.88818
1
1
1
1
1
1
1
1
1
1
1
1.00001
1.00002
1.00004
1.00011
1.00023
1.00065
1.00137
1.00369
1.00818
1.0211
1.04969
1.12717
1.32203
1.70222
1
1
1
1
1
1
1
1
1
1
1
1
1.00001
1.00003
1.00006
1.00015
1.00032
1.00085
1.00193
1.00475
1.01136
1.02741
1.06739
1.16859
1.42073
1
1
1
1
1
1
1
1
1
1
1
1
1.00001
1.00002
1.00003
1.00009
1.00018
1.00049
1.00109
1.00274
1.00649
1.01557
1.03852
1.09403
1.23935
1
1
1
1
1
1
1
1
1
1
1
1
1
1.00001
1.00002
1.00004
1.00012
1.00025
1.00065
1.00148
1.00362
1.00868
1.02079
1.05121
1.12669
1
1
1
1
1
1
1
1
1
1
1
1
1
1
1.00001
1.00003
1.00006
1.00015
1.00032
1.00086
1.00188
1.00474
1.01104
1.02697
1.0652
1
1
1
1
1
1
1
1
1
1
1
1
1
1
1.00001
1.00001
1.00003
1.00008
1.00019
1.00047
1.00103
1.00273
1.00574
1.01576
1.03406
1
1
1
1
1
1
1
1
1
1
1
1
1
1
1
1.00001
1.00002
1.00004
1.0001
1.00026
1.00055
1.00148
1.00307
1.00849
1.01793
1
1
1
1
1
1
1
1
1
1
1
1
1
1
1
1
1.00001
1.00002
1.00006
1.00012
1.00033
1.00067
1.00189
1.00382
1.0105
1
1
1
1
1
1
1
1
1
1
1
1
1
1
1
1
1.00001
1.00001
1.00003
1.00007
1.00015
1.00042
1.00085
1.00237
1.00487
1
1
1
1
1
1
1
1
1
1
1
1
1
1
1
1
1
1.00001
1.00002
1.00003
1.00009
1.0002
1.0005
1.00115
1.00276
1
1
1
1
1
1
1
1
1
1
1
1
1
1
1
1
1
1
1.00001
1.00002
1.00004
1.00012
1.00024
1.00065
1.00141
1
1
1
1
1
1
1
1
1
1
1
1
1
1
1
1
1
1
1
1.00001
1.00003
1.00006
1.00016
1.00032
1.00091
1
1
1
1
1
1
1
1
1
1
1
1
1
1
1
1
1
1
1
1.00001
1.00002
1.00004
1.0001
1.00025
1.00058
1
1
1
1
1
1
1
1
1
1
1
1
1
1
1
1
1
1
1
1.00001
1.00001
1.00004
1.00008
1.00023
1.00046
1
1
1
1
1
1
1
1
1
1
1
1
1
1
1
1
1
1
1
1.00001
1.00001
1.00003
1.00008
1.0002
1.00049
2.23734
2.07128
2.01841
2.0471
2.10455
2.17395
2.23957
2.27163
2.27775
2.27629
2.27325
2.27286
2.27441
2.27764
2.28142
2.28493
2.28668
2.28794
2.28919
2.29047
2.29222
2.29508
2.29997
2.30951
2.32911
2.37016
2.45478
2.61966
2.83045
2.97912
2.98382
3.01812
3.09745
3.11864
3.10273
3.08694
3.08369
3.08327
3.09391
3.10677
3.11357
3.11937
3.12103
3.12211
3.11642
3.11406
3.10767
3.10386
3.09486
3.09004
3.07967
3.07313
3.05924
3.05193
3.0369
3.02912
3.01406
3.00625
2.99133
2.9828
2.96753
2.95795
2.94214
2.93187
2.91552
2.90478
2.88825
2.87733
2.86105
2.85004
2.83392
2.82275
2.80672
2.7954
2.77954
2.7682
2.75256
2.74135
2.72576
2.71477
2.6991
2.68842
2.67269
2.66243
2.64673
2.63707
2.62148
2.61249
2.59704
2.58865
2.57343
2.56539
2.55066
2.5426
2.52877
2.5207
2.50803
2.50124
2.49193
2.48972
2.23167
2.1325
2.07788
2.04003
2.00327
1.97402
1.96622
1.96976
1.98294
2.00131
2.01639
2.02203
2.02219
2.02119
2.02121
2.02156
2.02252
2.02431
2.02638
2.02804
2.02949
2.03156
2.03514
2.0427
2.0591
2.09502
2.17271
2.34782
2.5985
2.85654
2.92016
2.96111
3.02618
3.0846
3.11113
3.11493
3.10574
3.09191
3.07063
3.05559
3.02154
3.0067
2.97685
2.96141
2.93678
2.92562
2.90447
2.89497
2.87583
2.86635
2.8483
2.83732
2.81867
2.8077
2.79051
2.77958
2.7631
2.75182
2.73578
2.72407
2.70829
2.69621
2.68059
2.6683
2.65273
2.64016
2.62449
2.61166
2.59587
2.58306
2.56723
2.55479
2.53897
2.52713
2.51122
2.49999
2.48389
2.47319
2.4569
2.44668
2.43027
2.42053
2.40414
2.39477
2.37868
2.36945
2.35396
2.34466
2.32991
2.32055
2.30642
2.29714
2.28349
2.2743
2.2612
2.25235
2.24021
2.23269
2.22361
2.22066
2.23037
2.14261
2.06213
1.98652
1.91686
1.86287
1.83654
1.83419
1.83801
1.84933
1.86499
1.87761
1.88517
1.88778
1.88814
1.88803
1.88814
1.88842
1.8889
1.88998
1.89106
1.89278
1.89536
1.9006
1.91167
1.93578
1.98876
2.1096
2.30186
2.63834
2.73725
2.78861
2.84116
2.89414
2.95106
2.99046
2.99707
2.98913
2.95969
2.93027
2.90134
2.88004
2.8542
2.8386
2.81806
2.8058
2.78709
2.77528
2.7574
2.74642
2.72981
2.71832
2.69991
2.68725
2.66998
2.65817
2.64147
2.62955
2.61304
2.60112
2.58477
2.57301
2.55668
2.54512
2.52872
2.51738
2.50089
2.48983
2.47315
2.46226
2.4454
2.4347
2.41805
2.40762
2.39168
2.38142
2.36632
2.35595
2.34152
2.33095
2.31689
2.30627
2.29236
2.28188
2.26812
2.25801
2.24451
2.23477
2.22157
2.21219
2.19941
2.1902
2.17795
2.16871
2.15708
2.14787
2.13708
2.12871
2.1204
2.11619
2.2224
2.13562
2.05431
1.98047
1.91508
1.86165
1.82023
1.79069
1.77447
1.77056
1.77196
1.77795
1.78694
1.79612
1.80128
1.80356
1.80337
1.80303
1.80224
1.80229
1.80261
1.80333
1.80496
1.80835
1.81542
1.83083
1.86475
1.93837
2.12035
2.35869
2.50174
2.63291
2.69251
2.73298
2.78943
2.82984
2.84261
2.83409
2.8097
2.7801
2.75002
2.73177
2.7169
2.70449
2.68811
2.6785
2.66346
2.6535
2.63727
2.62726
2.61146
2.60133
2.58482
2.57374
2.55744
2.54688
2.53046
2.51933
2.50238
2.49115
2.47445
2.46365
2.44742
2.43676
2.42065
2.40953
2.39334
2.38174
2.36588
2.35431
2.33915
2.32785
2.31331
2.30226
2.28827
2.27745
2.26391
2.25327
2.23988
2.22938
2.21597
2.2058
2.1926
2.18301
2.17014
2.1611
2.14868
2.14007
2.12807
2.11965
2.1079
2.09961
2.08799
2.08
2.06845
2.06109
2.04998
2.04397
2.0352
2.03352
2.22234
2.1367
2.05817
1.98705
1.92284
1.86607
1.81689
1.77577
1.74426
1.72377
1.71597
1.71602
1.71781
1.72285
1.73057
1.73642
1.74113
1.7429
1.74394
1.74397
1.74417
1.74451
1.74534
1.74728
1.75164
1.76116
1.78232
1.82886
1.94737
2.09157
2.38571
2.50037
2.53675
2.60648
2.67482
2.71517
2.72313
2.71261
2.68419
2.65469
2.62238
2.60142
2.5923
2.58641
2.57687
2.56931
2.55911
2.55331
2.54197
2.53424
2.52047
2.51134
2.4963
2.48574
2.47036
2.45988
2.44488
2.43387
2.41859
2.40712
2.39166
2.37984
2.36419
2.35253
2.33732
2.32643
2.31188
2.30149
2.28712
2.27676
2.26235
2.25189
2.23755
2.22708
2.21314
2.20298
2.18975
2.18022
2.16765
2.15864
2.14631
2.13746
2.12494
2.11616
2.10361
2.0951
2.08268
2.07457
2.06247
2.05477
2.04313
2.03573
2.02455
2.01731
2.00653
1.99943
1.98919
1.9827
1.97444
1.97161
2.22453
2.14408
2.06892
1.9999
1.9372
1.88033
1.8301
1.78627
1.74982
1.72032
1.69797
1.68369
1.67815
1.67818
1.67957
1.68349
1.68982
1.69502
1.69954
1.70112
1.70198
1.70186
1.70202
1.70259
1.70434
1.70903
1.7205
1.74717
1.8068
1.94806
2.15405
2.33932
2.4534
2.53032
2.59247
2.64255
2.64683
2.63224
2.59891
2.55807
2.52472
2.50362
2.49161
2.48682
2.48243
2.47826
2.47111
2.46598
2.45587
2.44999
2.43889
2.43042
2.41618
2.40451
2.38931
2.37831
2.3646
2.35354
2.33922
2.32763
2.31369
2.3029
2.28965
2.27915
2.26566
2.255
2.24135
2.23111
2.21796
2.20849
2.19581
2.1867
2.17404
2.16496
2.1523
2.1435
2.13107
2.12283
2.11064
2.10273
2.09064
2.08299
2.07112
2.06364
2.05207
2.04468
2.03345
2.02603
2.01512
2.00762
1.99701
1.98952
1.97917
1.97189
1.96177
1.95492
1.94519
1.9392
1.93118
1.92885
2.22662
2.15256
2.08213
2.01611
1.9554
1.89955
1.8491
1.80362
1.76363
1.72856
1.6996
1.67624
1.65976
1.65
1.64701
1.6472
1.64865
1.65223
1.65695
1.66079
1.66362
1.66513
1.66603
1.6667
1.66806
1.67104
1.67777
1.69317
1.7281
1.8062
1.97136
2.21911
2.34848
2.47859
2.56909
2.60638
2.60445
2.58354
2.54198
2.49414
2.45592
2.43152
2.41816
2.41179
2.40195
2.39643
2.39202
2.38815
2.38036
2.37507
2.36565
2.35875
2.34729
2.33724
2.32342
2.31238
2.29958
2.29027
2.27866
2.26953
2.25736
2.24781
2.23537
2.22627
2.21434
2.20593
2.19416
2.18562
2.17331
2.16442
2.15205
2.14359
2.13192
2.12421
2.11305
2.10558
2.09422
2.0864
2.07463
2.06673
2.05492
2.04724
2.03579
2.02851
2.01753
2.01059
2.00004
1.99324
1.98304
1.97624
1.96632
1.95949
1.94979
1.943
1.9335
1.92687
1.91772
1.91165
1.90395
1.90123
2.22699
2.15902
2.09317
2.03073
1.97242
1.91829
1.86853
1.82306
1.78203
1.74536
1.71349
1.68594
1.66348
1.6456
1.63334
1.62613
1.62385
1.62406
1.62537
1.62851
1.6327
1.6364
1.63928
1.64082
1.64182
1.64351
1.64734
1.65622
1.67686
1.72393
1.83029
2.02921
2.27606
2.46198
2.57831
2.598
2.58951
2.55931
2.5093
2.45511
2.41282
2.38291
2.36485
2.3535
2.33937
2.32899
2.32296
2.31793
2.31145
2.30681
2.29889
2.29415
2.28569
2.27951
2.26885
2.26044
2.24829
2.23908
2.2273
2.2192
2.20867
2.20162
2.1914
2.18412
2.17304
2.16497
2.15324
2.14519
2.13379
2.12639
2.11554
2.10841
2.09747
2.09006
2.07876
2.07115
2.05984
2.05255
2.04157
2.03457
2.02392
2.01708
2.00675
2.00005
1.99003
1.98342
1.97363
1.96702
1.95743
1.95076
1.94138
1.9347
1.92551
1.91894
1.90993
1.90362
1.8949
1.88921
1.88175
1.87938
2.2275
2.16517
2.10367
2.04439
1.98868
1.93628
1.88786
1.84284
1.80187
1.76423
1.7307
1.70047
1.67446
1.65197
1.63386
1.61953
1.61019
1.60497
1.60355
1.6038
1.6049
1.60742
1.61045
1.61319
1.61565
1.61792
1.62114
1.6278
1.64212
1.67382
1.74375
1.88914
2.16487
2.46414
2.60838
2.61326
2.59689
2.55747
2.49804
2.43443
2.38432
2.34598
2.31757
2.29681
2.27947
2.26469
2.25452
2.2479
2.24479
2.24287
2.23913
2.2359
2.22943
2.22557
2.21848
2.21372
2.20491
2.1985
2.18811
2.18079
2.16982
2.16243
2.15165
2.14478
2.13451
2.12809
2.11806
2.11168
2.10148
2.09485
2.08441
2.07762
2.06716
2.06031
2.04994
2.04321
2.03304
2.02634
2.01628
2.00954
1.99953
1.99278
1.98294
1.97628
1.96669
1.96017
1.95079
1.94432
1.93506
1.92856
1.91942
1.91289
1.90392
1.89746
1.88872
1.8825
1.87406
1.86844
1.86113
1.85873
2.22566
2.16973
2.11286
2.0571
2.00377
1.95337
1.90624
1.86223
1.82159
1.78395
1.74967
1.71831
1.69031
1.66525
1.64371
1.62534
1.6107
1.5991
1.59164
1.58747
1.58644
1.58672
1.58781
1.59027
1.59359
1.59721
1.60104
1.60701
1.61929
1.64562
1.70297
1.82551
2.12209
2.41091
2.61864
2.63552
2.6114
2.55868
2.47736
2.40713
2.35151
2.30699
2.26752
2.23884
2.21734
2.20435
2.19464
2.18762
2.18421
2.1845
2.18566
2.18499
2.1831
2.18071
2.17584
2.17248
2.16557
2.16034
2.15103
2.14524
2.13626
2.13108
2.12228
2.11695
2.10766
2.10182
2.0921
2.0859
2.07604
2.06964
2.05976
2.05321
2.04327
2.03664
2.02673
2.02015
2.01033
2.0038
1.99409
1.98751
1.97789
1.97118
1.96163
1.95491
1.94543
1.93884
1.9295
1.92302
1.91388
1.90747
1.89855
1.89224
1.88353
1.87736
1.86885
1.86287
1.85462
1.84912
1.84191
1.83947
2.22148
2.17164
2.11997
2.06818
2.01792
1.96947
1.92398
1.88082
1.84087
1.8033
1.76885
1.73677
1.70768
1.68099
1.65722
1.63595
1.6177
1.60221
1.59
1.5804
1.57443
1.57129
1.57091
1.57138
1.57279
1.57581
1.58073
1.58789
1.60104
1.62773
1.68319
1.79399
2.03615
2.29668
2.55901
2.57082
2.54077
2.49048
2.42573
2.36301
2.30967
2.26837
2.23385
2.20383
2.18151
2.16453
2.15522
2.14549
2.14201
2.13867
2.13882
2.13969
2.14171
2.14113
2.13946
2.13753
2.13363
2.13032
2.12324
2.11842
2.10976
2.10439
2.09529
2.08982
2.08086
2.07552
2.06654
2.06093
2.05167
2.0457
2.03626
2.02996
2.02054
2.0141
2.00473
1.99822
1.98884
1.98227
1.97292
1.96634
1.95707
1.95052
1.94135
1.9348
1.92574
1.9192
1.91027
1.90382
1.895
1.88874
1.88003
1.87401
1.86546
1.8596
1.85125
1.84555
1.83743
1.83212
1.82497
1.82258
2.21439
2.17041
2.12412
2.07668
2.03008
1.9844
1.94077
1.89924
1.85994
1.82321
1.78856
1.75658
1.72655
1.69917
1.6737
1.65089
1.63006
1.61202
1.59607
1.5833
1.5727
1.56532
1.56049
1.55942
1.56003
1.562
1.56646
1.57567
1.59322
1.62895
1.6976
1.83236
2.01911
2.19488
2.38723
2.4705
2.46689
2.4469
2.41507
2.35946
2.30287
2.25967
2.2234
2.19169
2.16533
2.14449
2.12906
2.11772
2.10988
2.10438
2.10099
2.10065
2.10117
2.10279
2.1032
2.10242
2.10025
2.09815
2.09378
2.09
2.08221
2.07722
2.06874
2.06381
2.05542
2.05037
2.04185
2.03653
2.02782
2.0221
2.01315
2.0072
1.99822
1.99219
1.98323
1.97705
1.96803
1.9616
1.95254
1.94603
1.93706
1.93068
1.92175
1.91552
1.9066
1.90047
1.89173
1.88566
1.87722
1.87118
1.86298
1.85702
1.84884
1.84306
1.83477
1.82921
1.82101
1.81586
1.80864
1.8063
2.20561
2.16632
2.12495
2.08177
2.03862
1.99622
1.95467
1.91505
1.87693
1.84096
1.80693
1.77482
1.74493
1.71672
1.69087
1.66652
1.64474
1.62436
1.60676
1.59066
1.57749
1.56631
1.55806
1.55359
1.5537
1.55561
1.56084
1.57282
1.59832
1.65091
1.75697
1.90342
2.03382
2.11484
2.22152
2.33929
2.39444
2.39983
2.384
2.35941
2.30972
2.26621
2.22686
2.19087
2.15934
2.13471
2.11375
2.09728
2.08575
2.07659
2.06912
2.06675
2.06364
2.06372
2.06436
2.06606
2.06556
2.06431
2.06156
2.05931
2.05455
2.05069
2.04288
2.03817
2.02997
2.02518
2.0171
2.01218
2.00384
1.99839
1.98983
1.98414
1.97555
1.96976
1.96113
1.95523
1.94656
1.94052
1.93181
1.92567
1.91699
1.91089
1.90229
1.89631
1.88778
1.8819
1.87343
1.8676
1.85923
1.85341
1.8451
1.83932
1.83109
1.82539
1.81729
1.81177
1.80389
1.79889
1.7919
1.78984
2.19643
2.16152
2.12399
2.08543
2.04528
2.00582
1.96695
1.92889
1.89261
1.85737
1.82427
1.79239
1.76271
1.73422
1.70815
1.68297
1.66052
1.63869
1.6199
1.60168
1.58671
1.57271
1.56219
1.55502
1.55501
1.55745
1.5649
1.58278
1.62193
1.70398
1.84177
1.96935
2.03237
2.0734
2.11131
2.17677
2.25846
2.31534
2.33523
2.32553
2.30416
2.27068
2.23514
2.19661
2.16245
2.13205
2.10641
2.08505
2.06759
2.05404
2.04405
2.03688
2.03057
2.02852
2.0275
2.02782
2.02879
2.02941
2.02876
2.02742
2.02517
2.0227
2.01712
2.01298
2.00498
2.00024
1.99227
1.9874
1.97937
1.97421
1.96612
1.96081
1.95264
1.94719
1.93888
1.93333
1.92497
1.91938
1.91104
1.90536
1.89696
1.89121
1.8827
1.87693
1.86838
1.86256
1.85411
1.8483
1.84006
1.8344
1.82638
1.82094
1.81306
1.80785
1.8001
1.79504
1.78745
1.78259
1.77578
1.77338
2.18556
2.15488
2.12118
2.08541
2.04967
2.01207
1.97603
1.93994
1.90515
1.87141
1.83924
1.80797
1.77916
1.75038
1.72487
1.69896
1.67654
1.65375
1.63426
1.61494
1.59835
1.5833
1.57055
1.56394
1.56426
1.56855
1.58057
1.60966
1.67492
1.7935
1.92437
1.99931
2.02895
2.03723
2.0481
2.07273
2.11649
2.17379
2.2369
2.26706
2.26724
2.25709
2.23784
2.20333
2.17077
2.13659
2.10661
2.07958
2.05777
2.03956
2.02453
2.01404
2.0044
1.99852
1.99538
1.99251
1.99253
1.99304
1.99456
1.99417
1.993
1.99173
1.98919
1.98643
1.98035
1.97607
1.96821
1.96355
1.95605
1.95147
1.94387
1.93889
1.9309
1.92568
1.91755
1.91229
1.90414
1.89877
1.8906
1.8851
1.87687
1.87133
1.86306
1.85754
1.84933
1.84381
1.83573
1.83026
1.82232
1.81697
1.80919
1.80394
1.79622
1.79099
1.7833
1.77808
1.77058
1.76567
1.75902
1.75668
2.17411
2.14623
2.11647
2.08395
2.05021
2.01693
1.98173
1.94851
1.91522
1.88247
1.85207
1.82091
1.79321
1.76479
1.73936
1.71403
1.69075
1.66872
1.64762
1.62887
1.61053
1.59563
1.58229
1.57822
1.58069
1.58871
1.60984
1.65911
1.76078
1.89228
1.97827
2.00784
2.01454
2.01197
2.00834
2.00984
2.02172
2.04877
2.09396
2.14895
2.19066
2.21409
2.20644
2.19343
2.17428
2.14261
2.11296
2.0823
2.05562
2.03249
2.01352
1.99779
1.98469
1.97549
1.9675
1.96142
1.95987
1.95858
1.95879
1.95937
1.96065
1.96018
1.95907
1.95779
1.95493
1.95173
1.94504
1.94072
1.93342
1.92886
1.92147
1.91681
1.90923
1.90437
1.89657
1.89147
1.88359
1.87829
1.87042
1.8651
1.85729
1.85207
1.84432
1.83913
1.83138
1.82618
1.81845
1.81319
1.8055
1.80017
1.79257
1.78729
1.77981
1.7747
1.76728
1.76223
1.75488
1.75005
1.74342
1.74105
2.16287
2.13515
2.10837
2.07969
2.04904
2.01727
1.98664
1.95294
1.92357
1.89096
1.86231
1.83252
1.8046
1.77811
1.75153
1.72817
1.70346
1.68277
1.66056
1.64236
1.62341
1.60895
1.59827
1.59839
1.6039
1.6192
1.65695
1.74006
1.87048
1.9664
2.00167
2.00688
2.0003
1.99071
1.98005
1.97001
1.96879
1.9729
1.98857
2.02023
2.06298
2.11326
2.14293
2.15698
2.14984
2.1355
2.11466
2.08784
2.06031
2.03322
2.00962
1.98933
1.97164
1.95704
1.94585
1.93688
1.93156
1.9272
1.92588
1.92589
1.9263
1.92737
1.92723
1.92678
1.92583
1.92427
1.92061
1.91715
1.91013
1.90551
1.89828
1.89381
1.88662
1.88211
1.87488
1.87016
1.86289
1.85797
1.85068
1.84562
1.83822
1.83312
1.82562
1.82056
1.81301
1.80792
1.80047
1.79536
1.78812
1.78303
1.77583
1.77069
1.76341
1.75831
1.75109
1.74617
1.73912
1.73462
1.72822
1.7262
2.14903
2.12567
2.09872
2.07306
2.04534
2.01594
1.98752
1.95733
1.92725
1.89908
1.86888
1.84259
1.81393
1.78899
1.76299
1.7391
1.71635
1.69373
1.67389
1.65362
1.63735
1.6227
1.61943
1.62337
1.63508
1.66393
1.73282
1.85389
1.96054
2.00416
2.00939
2.00107
1.98912
1.97323
1.95651
1.94282
1.93396
1.9291
1.92993
1.93742
1.95597
1.98752
2.02708
2.06857
2.09096
2.10018
2.09328
2.08037
2.05984
2.03569
2.01112
1.9871
1.96529
1.94702
1.9311
1.9183
1.9096
1.90143
1.89648
1.89448
1.89287
1.89297
1.89343
1.89467
1.89435
1.8937
1.89268
1.89086
1.88668
1.8832
1.8765
1.87208
1.86496
1.86046
1.85349
1.84906
1.8422
1.83767
1.83075
1.82605
1.81895
1.81412
1.80691
1.80205
1.79486
1.78989
1.78261
1.77745
1.77011
1.76506
1.7579
1.75315
1.7462
1.74162
1.73477
1.73029
1.7235
1.7192
1.71299
1.71085
2.1374
2.11289
2.09011
2.06384
2.04068
2.01277
1.98611
1.95881
1.93089
1.90303
1.87643
1.84869
1.82387
1.79714
1.77405
1.7491
1.72749
1.7052
1.68517
1.66668
1.6504
1.64315
1.64518
1.65457
1.67823
1.73461
1.847
1.96088
2.01358
2.02054
2.01105
1.99697
1.97793
1.95759
1.93892
1.92431
1.91069
1.90121
1.89378
1.89135
1.89252
1.90075
1.91879
1.94665
1.98136
2.01638
2.03582
2.04514
2.03919
2.0281
2.00985
1.98774
1.96566
1.94446
1.92416
1.90692
1.89274
1.88149
1.87362
1.86724
1.86268
1.86158
1.86134
1.86167
1.86233
1.86379
1.86365
1.86314
1.86183
1.85957
1.85446
1.85066
1.84388
1.83959
1.83272
1.8284
1.82171
1.81741
1.81075
1.80642
1.79963
1.79516
1.78818
1.78352
1.77656
1.77195
1.76516
1.76061
1.75381
1.74914
1.74224
1.73748
1.73054
1.72583
1.71887
1.7143
1.70748
1.70322
1.6971
1.69508
2.12264
2.10082
2.07873
2.05553
2.03167
2.00842
1.98246
1.95743
1.93186
1.90583
1.87992
1.85493
1.82943
1.80594
1.78127
1.75971
1.73621
1.71672
1.69575
1.67982
1.66813
1.66836
1.67619
1.69658
1.74314
1.84498
1.9658
2.02736
2.03653
2.02656
2.01101
1.99
1.96596
1.94426
1.92561
1.90885
1.89467
1.88215
1.87099
1.86148
1.85413
1.8518
1.85298
1.86083
1.87814
1.90413
1.93507
1.96572
1.98342
1.99284
1.98719
1.97735
1.96223
1.94178
1.92183
1.90245
1.88377
1.86831
1.85626
1.84707
1.83939
1.83483
1.83178
1.83135
1.83155
1.83205
1.83338
1.83329
1.833
1.83222
1.83022
1.82764
1.82203
1.81809
1.81145
1.80726
1.80089
1.79692
1.79077
1.78699
1.78091
1.77715
1.77094
1.76689
1.76031
1.75588
1.74906
1.74437
1.73759
1.73278
1.72608
1.72125
1.71458
1.70988
1.70321
1.69871
1.69212
1.68805
1.68206
1.68029
2.10807
2.09055
2.06839
2.04598
2.02432
2.00123
1.97894
1.95433
1.93059
1.90663
1.88242
1.85801
1.83485
1.811
1.78887
1.76603
1.74588
1.72477
1.70784
1.69358
1.69202
1.69848
1.71571
1.75633
1.84555
1.9718
2.04434
2.05678
2.0466
2.02988
2.00715
1.98066
1.95667
1.93542
1.91618
1.89819
1.88185
1.86683
1.85354
1.84107
1.82946
1.82053
1.8137
1.81183
1.81301
1.81979
1.83487
1.85851
1.88513
1.91223
1.92965
1.94143
1.93621
1.92934
1.91876
1.90083
1.88198
1.86349
1.84666
1.8328
1.82205
1.8135
1.80685
1.80279
1.80145
1.80095
1.80116
1.80172
1.80301
1.80284
1.80238
1.80145
1.79916
1.79659
1.79135
1.7879
1.78215
1.77844
1.77254
1.76862
1.76255
1.75857
1.7523
1.74827
1.74177
1.73758
1.73097
1.72656
1.72002
1.71549
1.70911
1.70456
1.69832
1.69386
1.68777
1.68351
1.67748
1.67363
1.66797
1.66628
2.08778
2.07658
2.05795
2.03571
2.01466
1.99403
1.97211
1.95102
1.92784
1.90547
1.88298
1.86028
1.83766
1.81593
1.79406
1.77331
1.75257
1.73542
1.71939
1.716
1.72158
1.7365
1.77266
1.84847
1.97791
2.06224
2.07893
2.06952
2.05244
2.02763
1.99971
1.97354
1.95066
1.92914
1.90941
1.89024
1.87267
1.85547
1.84
1.8255
1.81265
1.80024
1.78904
1.78001
1.77348
1.77094
1.77191
1.77717
1.78959
1.81127
1.83474
1.85962
1.87883
1.8918
1.88934
1.88484
1.87705
1.8619
1.84335
1.82598
1.81165
1.79904
1.78855
1.78105
1.77569
1.77306
1.77252
1.77267
1.7731
1.77404
1.77486
1.77478
1.7744
1.77325
1.77019
1.76732
1.76175
1.75814
1.75247
1.74889
1.74327
1.73972
1.73388
1.73019
1.72413
1.72027
1.71411
1.70999
1.70374
1.69945
1.69327
1.68894
1.6829
1.67861
1.67263
1.66854
1.66257
1.65887
1.65334
1.65161
2.06721
2.06195
2.04677
2.02644
2.00568
1.98597
1.96562
1.94505
1.92434
1.9027
1.88155
1.86036
1.83942
1.81777
1.79804
1.77798
1.76004
1.74449
1.73906
1.74369
1.75741
1.78918
1.85762
1.98708
2.08148
2.10319
2.09431
2.07691
2.05049
2.021
1.99336
1.96859
1.94556
1.92403
1.90331
1.88369
1.86478
1.84702
1.82981
1.81363
1.7983
1.78451
1.77124
1.75905
1.74842
1.73957
1.73311
1.72971
1.73048
1.73433
1.74462
1.7642
1.78571
1.8094
1.83076
1.84327
1.84735
1.84392
1.8371
1.82426
1.80809
1.79238
1.77761
1.76536
1.75617
1.74892
1.74545
1.74325
1.74326
1.74361
1.74495
1.74581
1.74687
1.74686
1.74646
1.74522
1.74191
1.73913
1.73393
1.73055
1.72503
1.72163
1.71599
1.71248
1.70667
1.70305
1.69721
1.69346
1.68758
1.6836
1.67777
1.67368
1.66802
1.664
1.65837
1.65444
1.64878
1.64509
1.63983
1.63803
2.03622
2.04085
2.0336
2.01756
1.99709
1.97761
1.95864
1.93959
1.91992
1.90034
1.87986
1.85954
1.83969
1.81994
1.80023
1.78288
1.7669
1.76055
1.7642
1.77736
1.80729
1.87331
1.99328
2.09577
2.12354
2.11692
2.1
2.07322
2.04275
2.01437
1.98855
1.9646
1.94163
1.9196
1.89849
1.87857
1.85921
1.84051
1.82201
1.80438
1.78727
1.77163
1.75702
1.74404
1.73113
1.71925
1.70831
1.6995
1.69296
1.68934
1.69006
1.69283
1.70157
1.71875
1.7385
1.76086
1.78272
1.79665
1.80627
1.80299
1.79768
1.7894
1.77702
1.76163
1.74708
1.73542
1.72669
1.72051
1.7173
1.71623
1.71641
1.71701
1.71894
1.72005
1.72054
1.72045
1.71979
1.71824
1.71457
1.71187
1.70668
1.70351
1.69814
1.69485
1.68935
1.68587
1.68032
1.6767
1.67124
1.66744
1.66202
1.65812
1.65272
1.64893
1.64357
1.63991
1.63451
1.63106
1.62596
1.62433
1.99942
2.0188
2.01756
2.00647
1.98871
1.969
1.95053
1.93252
1.91447
1.89599
1.87749
1.85838
1.83947
1.82082
1.80361
1.7883
1.78095
1.78391
1.79685
1.82582
1.89053
2.00359
2.11291
2.14592
2.14059
2.12379
2.09592
2.06457
2.03572
2.00934
1.9844
1.96038
1.93726
1.91534
1.89424
1.87377
1.85359
1.83392
1.81461
1.79618
1.77847
1.76183
1.7461
1.73138
1.71751
1.70413
1.69152
1.67972
1.66922
1.66067
1.65478
1.65081
1.65131
1.6532
1.66016
1.67446
1.69251
1.71477
1.73712
1.75391
1.76574
1.76576
1.76272
1.75632
1.74372
1.72937
1.71737
1.70756
1.69976
1.69418
1.6914
1.69115
1.69144
1.69235
1.69415
1.69534
1.69562
1.69541
1.69451
1.69274
1.68876
1.68599
1.68079
1.67765
1.67234
1.66912
1.66384
1.66045
1.65526
1.65177
1.64665
1.64306
1.63793
1.63428
1.62918
1.62565
1.62056
1.61731
1.61246
1.61088
1.92396
1.98633
1.9969
1.9931
1.98017
1.96168
1.94326
1.92577
1.90836
1.89119
1.87336
1.85573
1.83838
1.82174
1.80709
1.7997
1.80245
1.81549
1.84405
1.90762
2.01703
2.13428
2.17066
2.16584
2.14819
2.11879
2.08605
2.05643
2.02941
2.00387
1.97926
1.95561
1.93298
1.91094
1.88955
1.86845
1.84785
1.82757
1.80804
1.78908
1.7712
1.75386
1.73747
1.72134
1.70623
1.69168
1.67839
1.66537
1.65337
1.6422
1.63224
1.62376
1.61773
1.61292
1.61327
1.61487
1.62022
1.63136
1.64872
1.67065
1.69198
1.71253
1.72601
1.73149
1.72837
1.72282
1.71163
1.70017
1.69003
1.6814
1.6745
1.66976
1.66759
1.66763
1.66807
1.66911
1.67039
1.67133
1.67169
1.6713
1.66993
1.66796
1.66367
1.66078
1.65568
1.6526
1.64764
1.64449
1.63958
1.63627
1.63144
1.62805
1.62332
1.61988
1.61511
1.61178
1.60694
1.60393
1.59934
1.59795
1.78235
1.93779
1.96991
1.97413
1.96839
1.95462
1.93655
1.91922
1.90239
1.88595
1.8696
1.85302
1.83748
1.8235
1.81633
1.81924
1.83274
1.86152
1.92531
2.03475
2.1519
2.19074
2.18669
2.16961
2.13977
2.10615
2.07602
2.04879
2.02323
1.99838
1.97437
1.95103
1.9283
1.90613
1.8843
1.86282
1.84174
1.82124
1.80153
1.7826
1.76442
1.74675
1.72964
1.71297
1.69699
1.68171
1.66731
1.65372
1.64096
1.62844
1.61658
1.60549
1.59566
1.58739
1.58137
1.57654
1.57685
1.57822
1.58213
1.59141
1.60786
1.62856
1.65038
1.67331
1.68934
1.69834
1.69598
1.69111
1.68227
1.67326
1.66441
1.65634
1.65073
1.64732
1.64559
1.64565
1.64614
1.64745
1.64795
1.64927
1.64914
1.64833
1.64612
1.64401
1.6397
1.63698
1.63222
1.62923
1.62458
1.62144
1.6169
1.61365
1.60918
1.60598
1.60141
1.59832
1.59363
1.59081
1.58639
1.58518
1.56726
1.84952
1.93949
1.95566
1.95518
1.94626
1.93066
1.91272
1.89574
1.8798
1.86433
1.85007
1.83725
1.831
1.83446
1.84874
1.87833
1.94317
2.05403
2.17034
2.21036
2.20669
2.18983
2.16006
2.12572
2.0952
2.06792
2.04232
2.0174
1.99302
1.96925
1.94597
1.92319
1.90069
1.87856
1.85686