/*--------------------------------*- C++ -*----------------------------------*\
  =========                 |
  \\      /  F ield         | OpenFOAM: The Open Source CFD Toolbox
   \\    /   O peration     | Website:  https://openfoam.org
    \\  /    A nd           | Version:  10
     \\/     M anipulation  |
\*---------------------------------------------------------------------------*/
FoamFile
{
    format      ascii;
    class       volVectorField;
    location    "3";
    object      U;
}
// * * * * * * * * * * * * * * * * * * * * * * * * * * * * * * * * * * * * * //

dimensions      [0 1 -1 0 0 0 0];

internalField   nonuniform List<vector> 
5250
(
(3 2.79665e-08 0)
(2.99999 1.52022e-09 0)
(2.99997 4.10782e-07 0)
(2.99991 4.9416e-08 0)
(2.99978 2.89108e-06 0)
(2.99945 1.30941e-06 0)
(2.99866 1.88836e-05 0)
(2.99665 9.57329e-06 0)
(2.99177 0.000117715 0)
(2.97934 0.00010079 0)
(2.9474 0.000602511 0)
(2.85937 0.00109581 0)
(2.60499 0.00355876 0)
(1.85988 0.00978943 0)
(0.864901 0.0266546 0)
(0.449323 0.0246198 0)
(0.536356 0.0247337 0)
(0.559392 0.0266402 0)
(0.504245 0.0285723 0)
(0.413106 0.0305484 0)
(0.327685 0.0328953 0)
(0.258534 0.0355478 0)
(0.188667 0.0380722 0)
(0.109987 0.0402166 0)
(0.0460056 0.0422438 0)
(3 3.63644e-08 0)
(2.99999 2.1372e-07 0)
(2.99997 8.19906e-07 0)
(2.99991 2.08929e-06 0)
(2.99978 6.1984e-06 0)
(2.99946 1.50108e-05 0)
(2.99867 3.79324e-05 0)
(2.99673 9.7859e-05 0)
(2.99185 0.000228596 0)
(2.97974 0.000608292 0)
(2.94823 0.00144793 0)
(2.8618 0.00391 0)
(2.61226 0.0106275 0)
(1.87827 0.0306184 0)
(0.875602 0.0812467 0)
(0.445778 0.0710292 0)
(0.536219 0.0680125 0)
(0.560495 0.0710773 0)
(0.505083 0.0742012 0)
(0.414053 0.0774934 0)
(0.328754 0.081141 0)
(0.259279 0.0848986 0)
(0.188876 0.0879123 0)
(0.109421 0.0896838 0)
(0.044581 0.0895281 0)
(3 6.00032e-08 0)
(2.99999 4.10897e-07 0)
(2.99997 1.34204e-06 0)
(2.99991 3.948e-06 0)
(2.99979 1.00988e-05 0)
(2.99948 2.57702e-05 0)
(2.99873 6.41823e-05 0)
(2.99681 0.000159613 0)
(2.9922 0.000397234 0)
(2.98036 0.000984146 0)
(2.95013 0.00249758 0)
(2.8671 0.00650295 0)
(2.62712 0.0180054 0)
(1.92057 0.0518885 0)
(0.901043 0.139556 0)
(0.442908 0.12066 0)
(0.539944 0.114271 0)
(0.567064 0.119571 0)
(0.511594 0.125459 0)
(0.421015 0.132246 0)
(0.335862 0.13906 0)
(0.26575 0.145819 0)
(0.19417 0.151636 0)
(0.112921 0.155339 0)
(0.0455406 0.154972 0)
(3 9.15338e-08 0)
(2.99999 5.01953e-07 0)
(2.99997 1.94467e-06 0)
(2.99992 4.8629e-06 0)
(2.9998 1.44203e-05 0)
(2.99951 3.25395e-05 0)
(2.99878 9.11679e-05 0)
(2.99701 0.000206309 0)
(2.99254 0.000554458 0)
(2.98149 0.00131651 0)
(2.95283 0.00343403 0)
(2.87475 0.00882836 0)
(2.65034 0.0245763 0)
(1.98407 0.0708618 0)
(0.942178 0.194383 0)
(0.442389 0.169728 0)
(0.548502 0.159985 0)
(0.580081 0.167336 0)
(0.524855 0.176133 0)
(0.434866 0.187013 0)
(0.349446 0.197479 0)
(0.278333 0.207763 0)
(0.20498 0.217141 0)
(0.12044 0.223698 0)
(0.0484752 0.223831 0)
(3 9.6428e-08 0)
(2.99999 6.5786e-07 0)
(2.99997 2.15405e-06 0)
(2.99993 6.46731e-06 0)
(2.99981 1.61456e-05 0)
(2.99954 4.2683e-05 0)
(2.99887 0.00010323 0)
(2.9972 0.000264916 0)
(2.99312 0.000638312 0)
(2.98276 0.00164664 0)
(2.95638 0.00406625 0)
(2.88481 0.0107447 0)
(2.67912 0.029533 0)
(2.06916 0.085552 0)
(0.999868 0.241409 0)
(0.450036 0.220015 0)
(0.563828 0.207806 0)
(0.600517 0.215801 0)
(0.545836 0.226589 0)
(0.456539 0.2414 0)
(0.370211 0.255809 0)
(0.297461 0.270251 0)
(0.221511 0.284124 0)
(0.132168 0.294852 0)
(0.0535365 0.296726 0)
(3 1.05329e-07 0)
(2.99999 7.0761e-07 0)
(2.99997 2.27647e-06 0)
(2.99993 7.01447e-06 0)
(2.99983 1.70462e-05 0)
(2.99958 4.61963e-05 0)
(2.99896 0.000110347 0)
(2.99746 0.000281899 0)
(2.99369 0.000698116 0)
(2.98435 0.00173523 0)
(2.96042 0.00440562 0)
(2.89603 0.0114686 0)
(2.71325 0.0314605 0)
(2.16971 0.0912329 0)
(1.0815 0.265502 0)
(0.480218 0.266412 0)
(0.591133 0.258504 0)
(0.630861 0.266563 0)
(0.576888 0.278449 0)
(0.488378 0.296849 0)
(0.400416 0.315773 0)
(0.325221 0.335402 0)
(0.245805 0.355366 0)
(0.149887 0.372671 0)
(0.0616616 0.378921 0)
(3 1.09181e-07 0)
(2.99999 6.19189e-07 0)
(2.99998 2.39184e-06 0)
(2.99994 6.04392e-06 0)
(2.99985 1.77053e-05 0)
(2.99962 4.14733e-05 0)
(2.99907 0.000109312 0)
(2.99769 0.00026418 0)
(2.99433 0.000656389 0)
(2.98585 0.00164398 0)
(2.96452 0.00406559 0)
(2.90734 0.0105346 0)
(2.74643 0.0285162 0)
(2.27212 0.0813383 0)
(1.1835 0.240663 0)
(0.532171 0.299081 0)
(0.626693 0.310431 0)
(0.665843 0.318473 0)
(0.614254 0.331352 0)
(0.528537 0.353732 0)
(0.43983 0.378351 0)
(0.362354 0.404603 0)
(0.279464 0.432713 0)
(0.176051 0.460202 0)
(0.0748302 0.476197 0)
(3 9.76133e-08 0)
(2.99999 6.03964e-07 0)
(2.99998 2.12393e-06 0)
(2.99994 5.85495e-06 0)
(2.99986 1.57146e-05 0)
(2.99966 3.89019e-05 0)
(2.99915 9.73032e-05 0)
(2.99791 0.00024105 0)
(2.99484 0.000586373 0)
(2.9872 0.00147321 0)
(2.9678 0.00361297 0)
(2.91653 0.00926561 0)
(2.77194 0.0246641 0)
(2.34671 0.0690771 0)
(1.2855 0.203751 0)
(0.575765 0.338407 0)
(0.642502 0.371929 0)
(0.682484 0.370739 0)
(0.643345 0.38372 0)
(0.567996 0.410158 0)
(0.483549 0.442397 0)
(0.40715 0.477546 0)
(0.32358 0.51688 0)
(0.214428 0.560234 0)
(0.0967506 0.59758 0)
(3 8.86688e-08 0)
(2.99999 6.2205e-07 0)
(2.99998 1.91176e-06 0)
(2.99995 6.09646e-06 0)
(2.99987 1.42187e-05 0)
(2.99969 3.94043e-05 0)
(2.99924 9.06216e-05 0)
(2.99809 0.000236136 0)
(2.99536 0.000565055 0)
(2.98837 0.00141324 0)
(2.971 0.00351864 0)
(2.92488 0.00892602 0)
(2.79586 0.0236788 0)
(2.41735 0.0662095 0)
(1.41542 0.195005 0)
(0.655123 0.388666 0)
(0.650517 0.42204 0)
(0.681062 0.418002 0)
(0.664156 0.434362 0)
(0.605014 0.463678 0)
(0.530191 0.505045 0)
(0.45924 0.551576 0)
(0.380602 0.605566 0)
(0.273354 0.675015 0)
(0.135975 0.758103 0)
(3 9.88861e-08 0)
(2.99999 5.85623e-07 0)
(2.99998 2.08095e-06 0)
(2.99995 5.74062e-06 0)
(2.99989 1.53298e-05 0)
(2.99972 3.77878e-05 0)
(2.99931 9.73032e-05 0)
(2.99831 0.000229886 0)
(2.99582 0.000596925 0)
(2.98966 0.0013991 0)
(2.97408 0.00363356 0)
(2.93323 0.00895029 0)
(2.81981 0.0239347 0)
(2.48763 0.0665844 0)
(1.57014 0.194691 0)
(0.755458 0.436685 0)
(0.657698 0.454192 0)
(0.685957 0.456456 0)
(0.68408 0.479196 0)
(0.64109 0.512755 0)
(0.581095 0.562589 0)
(0.520259 0.621384 0)
(0.456743 0.697053 0)
(0.370111 0.812035 0)
(0.209437 1.01954 0)
(3 9.74327e-08 0)
(2.99999 6.00119e-07 0)
(2.99998 2.10934e-06 0)
(2.99996 5.83474e-06 0)
(2.9999 1.56863e-05 0)
(2.99975 3.8711e-05 0)
(2.9994 9.89196e-05 0)
(2.99851 0.00024061 0)
(2.99633 0.000604531 0)
(2.9909 0.0014735 0)
(2.9773 0.00371245 0)
(2.94177 0.00928271 0)
(2.84396 0.0245618 0)
(2.55913 0.0681431 0)
(1.74526 0.197906 0)
(0.874733 0.484696 0)
(0.66682 0.487987 0)
(0.697856 0.490868 0)
(0.709025 0.515492 0)
(0.680137 0.555186 0)
(0.636659 0.610781 0)
(0.594913 0.681181 0)
(0.566047 0.777561 0)
(0.565299 0.924474 0)
(0.606205 1.17266 0)
(3 1.01594e-07 0)
(2.99999 5.83701e-07 0)
(2.99999 2.19253e-06 0)
(2.99997 5.68569e-06 0)
(2.99991 1.62232e-05 0)
(2.99979 3.82709e-05 0)
(2.99948 0.000101665 0)
(2.99873 0.000241164 0)
(2.99684 0.000619068 0)
(2.99225 0.00150728 0)
(2.98058 0.00380068 0)
(2.95063 0.00954546 0)
(2.86884 0.0250997 0)
(2.63248 0.0693608 0)
(1.94193 0.200883 0)
(1.01669 0.527673 0)
(0.686609 0.525649 0)
(0.718548 0.526624 0)
(0.740944 0.546503 0)
(0.724884 0.589931 0)
(0.697577 0.649191 0)
(0.67892 0.727307 0)
(0.686482 0.832708 0)
(0.749293 0.977607 0)
(0.903937 1.1675 0)
(3 9.28468e-08 0)
(3 5.92167e-07 0)
(2.99999 2.03512e-06 0)
(2.99997 5.83691e-06 0)
(2.99993 1.51532e-05 0)
(2.99983 3.92921e-05 0)
(2.99957 9.58893e-05 0)
(2.99894 0.000244641 0)
(2.99739 0.000592082 0)
(2.99356 0.00150988 0)
(2.98398 0.0036971 0)
(2.95958 0.00945754 0)
(2.89372 0.0244893 0)
(2.70688 0.0675172 0)
(2.15394 0.195443 0)
(1.18999 0.546653 0)
(0.737252 0.56779 0)
(0.756391 0.572461 0)
(0.783389 0.580077 0)
(0.778765 0.620157 0)
(0.764225 0.679924 0)
(0.765587 0.758086 0)
(0.799125 0.858363 0)
(0.88928 0.980078 0)
(1.06709 1.09978 0)
(3 7.90961e-08 0)
(3 5.3743e-07 0)
(2.99999 1.75298e-06 0)
(2.99998 5.26445e-06 0)
(2.99994 1.31696e-05 0)
(2.99986 3.484e-05 0)
(2.99965 8.33308e-05 0)
(2.99914 0.000215222 0)
(2.9979 0.000510401 0)
(2.99483 0.00131285 0)
(2.9872 0.00315319 0)
(2.96797 0.00809822 0)
(2.91734 0.0204295 0)
(2.77611 0.0557105 0)
(2.36632 0.158393 0)
(1.41049 0.468458 0)
(0.838725 0.591039 0)
(0.816493 0.615595 0)
(0.834546 0.621873 0)
(0.84155 0.651838 0)
(0.835924 0.705538 0)
(0.84866 0.776314 0)
(0.895771 0.861899 0)
(0.992391 0.956512 0)
(1.16106 1.0332 0)
(3 7.20933e-08 0)
(3 4.27571e-07 0)
(2.99999 1.5403e-06 0)
(2.99998 4.16975e-06 0)
(2.99995 1.13847e-05 0)
(2.99988 2.746e-05 0)
(2.99972 7.13056e-05 0)
(2.9993 0.000168172 0)
(2.9983 0.000430404 0)
(2.99576 0.00102153 0)
(2.98964 0.00258758 0)
(2.97397 0.00626629 0)
(2.93339 0.016055 0)
(2.82113 0.0418176 0)
(2.49588 0.116454 0)
(1.62682 0.346068 0)
(0.936519 0.624799 0)
(0.85779 0.657474 0)
(0.874265 0.669368 0)
(0.894427 0.686018 0)
(0.902336 0.728482 0)
(0.923459 0.787682 0)
(0.976017 0.856604 0)
(1.07024 0.927738 0)
(1.22116 0.980466 0)
(3 6.05489e-08 0)
(3 3.78477e-07 0)
(2.99999 1.30553e-06 0)
(2.99998 3.69837e-06 0)
(2.99996 9.6275e-06 0)
(2.99991 2.43828e-05 0)
(2.99977 6.05635e-05 0)
(2.99944 0.000148837 0)
(2.99861 0.000371078 0)
(2.99663 0.000897717 0)
(2.99157 0.00225017 0)
(2.97919 0.00551174 0)
(2.94684 0.0139182 0)
(2.85864 0.0362835 0)
(2.60541 0.0998114 0)
(1.88095 0.291211 0)
(1.08667 0.666812 0)
(0.888171 0.693243 0)
(0.901223 0.705878 0)
(0.932238 0.713883 0)
(0.957796 0.746503 0)
(0.987591 0.794848 0)
(1.04218 0.849558 0)
(1.13095 0.902809 0)
(1.26339 0.940526 0)
(3 5.11406e-08 0)
(3 3.34306e-07 0)
(3 1.13724e-06 0)
(2.99999 3.259e-06 0)
(2.99997 8.46026e-06 0)
(2.99993 2.17213e-05 0)
(2.99982 5.27367e-05 0)
(2.99956 0.00013568 0)
(2.99893 0.00031939 0)
(2.99733 0.000834126 0)
(2.99348 0.00195191 0)
(2.98368 0.00510641 0)
(2.95901 0.0123768 0)
(2.89238 0.0328338 0)
(2.70325 0.0891923 0)
(2.14749 0.258628 0)
(1.2821 0.681249 0)
(0.9392 0.725197 0)
(0.935908 0.734153 0)
(0.968357 0.737634 0)
(1.00704 0.759034 0)
(1.04362 0.798037 0)
(1.09799 0.842187 0)
(1.18004 0.882897 0)
(1.29574 0.910472 0)
(3 4.38364e-08 0)
(3 2.72671e-07 0)
(3 9.45995e-07 0)
(2.99999 2.65929e-06 0)
(2.99998 7.04064e-06 0)
(2.99994 1.75545e-05 0)
(2.99986 4.44225e-05 0)
(2.99967 0.000107907 0)
(2.99919 0.0002707 0)
(2.99799 0.00065712 0)
(2.99513 0.001646 0)
(2.98787 0.0040362 0)
(2.96994 0.0101609 0)
(2.92272 0.0259255 0)
(2.79276 0.0698467 0)
(2.4169 0.199272 0)
(1.55241 0.576848 0)
(1.05008 0.732326 0)
(0.995928 0.756678 0)
(1.0138 0.76544 0)
(1.05541 0.774743 0)
(1.09685 0.802439 0)
(1.14857 0.836789 0)
(1.22253 0.867982 0)
(1.32322 0.888259 0)
(3 3.47939e-08 0)
(3 2.12613e-07 0)
(3 7.46177e-07 0)
(2.99999 2.07096e-06 0)
(2.99998 5.5037e-06 0)
(2.99996 1.36323e-05 0)
(2.9999 3.44598e-05 0)
(2.99975 8.29967e-05 0)
(2.99939 0.00020828 0)
(2.99847 0.000497977 0)
(2.9963 0.00124932 0)
(2.99078 0.00300727 0)
(2.97725 0.00753698 0)
(2.94196 0.0187214 0)
(2.84598 0.049022 0)
(2.57156 0.134638 0)
(1.82395 0.400449 0)
(1.17081 0.737461 0)
(1.04466 0.777359 0)
(1.05231 0.794562 0)
(1.09356 0.796722 0)
(1.14185 0.811446 0)
(1.19301 0.835636 0)
(1.25997 0.858624 0)
(1.34798 0.873028 0)
(3 2.7864e-08 0)
(3 1.69917e-07 0)
(3 5.97819e-07 0)
(2.99999 1.65716e-06 0)
(2.99999 4.4259e-06 0)
(2.99997 1.09407e-05 0)
(2.99992 2.78617e-05 0)
(2.99981 6.68641e-05 0)
(2.99954 0.000169182 0)
(2.99886 0.000404095 0)
(2.99723 0.00102254 0)
(2.99311 0.0024596 0)
(2.98302 0.00620938 0)
(2.9571 0.0153591 0)
(2.88752 0.0400075 0)
(2.69093 0.108658 0)
(2.11714 0.31702 0)
(1.35273 0.756607 0)
(1.09436 0.809287 0)
(1.08746 0.821728 0)
(1.12309 0.820238 0)
(1.17735 0.82206 0)
(1.23106 0.83697 0)
(1.29306 0.853297 0)
(1.37076 0.863121 0)
(3 2.13649e-08 0)
(3 1.34035e-07 0)
(3 4.60041e-07 0)
(3 1.30927e-06 0)
(2.99999 3.40633e-06 0)
(2.99998 8.62804e-06 0)
(2.99994 2.1519e-05 0)
(2.99986 5.26153e-05 0)
(2.99967 0.000131362 0)
(2.99918 0.000316621 0)
(2.99801 0.00079761 0)
(2.9951 0.00191643 0)
(2.988 0.00485622 0)
(2.97008 0.0118979 0)
(2.9234 0.0307339 0)
(2.79587 0.0820592 0)
(2.42439 0.235271 0)
(1.63104 0.651428 0)
(1.20009 0.810737 0)
(1.14381 0.836251 0)
(1.16066 0.842672 0)
(1.21116 0.837175 0)
(1.26707 0.841996 0)
(1.32465 0.851577 0)
(1.39325 0.857324 0)
(3 1.59622e-08 0)
(3 1.00518e-07 0)
(3 3.44072e-07 0)
(3 9.79693e-07 0)
(2.99999 2.53812e-06 0)
(2.99998 6.42804e-06 0)
(2.99996 1.58811e-05 0)
(2.9999 3.90294e-05 0)
(2.99976 9.62297e-05 0)
(2.99942 0.000232559 0)
(2.99856 0.000578178 0)
(2.99649 0.00138746 0)
(2.99134 0.00346895 0)
(2.97862 0.00842954 0)
(2.94582 0.0212821 0)
(2.85758 0.05509 0)
(2.60617 0.151693 0)
(1.92975 0.446529 0)
(1.33097 0.797627 0)
(1.19694 0.846801 0)
(1.19751 0.865732 0)
(1.23913 0.860481 0)
(1.29685 0.853195 0)
(1.35321 0.854227 0)
(1.41529 0.855646 0)
(3 1.15355e-08 0)
(3 7.68008e-08 0)
(3 2.53802e-07 0)
(3 7.46832e-07 0)
(3 1.88275e-06 0)
(2.99999 4.90579e-06 0)
(2.99997 1.17565e-05 0)
(2.99993 2.99544e-05 0)
(2.99983 7.10743e-05 0)
(2.99958 0.00017997 0)
(2.99898 0.000427065 0)
(2.99751 0.0010792 0)
(2.99387 0.00258332 0)
(2.98489 0.00651608 0)
(2.9621 0.0159965 0)
(2.90185 0.0414333 0)
(2.73316 0.111382 0)
(2.24341 0.323563 0)
(1.53459 0.771237 0)
(1.2636 0.864371 0)
(1.23907 0.884292 0)
(1.26308 0.883621 0)
(1.31747 0.86994 0)
(1.37678 0.862379 0)
(1.43603 0.858754 0)
(3 8.68331e-09 0)
(3 5.6271e-08 0)
(3 1.89366e-07 0)
(3 5.47023e-07 0)
(3 1.39891e-06 0)
(2.99999 3.59314e-06 0)
(2.99998 8.73716e-06 0)
(2.99995 2.19238e-05 0)
(2.99988 5.27865e-05 0)
(2.99971 0.000131723 0)
(2.99931 0.000316354 0)
(2.99829 0.000790024 0)
(2.99588 0.00190798 0)
(2.98978 0.00476022 0)
(2.97489 0.0116908 0)
(2.93628 0.0297733 0)
(2.83221 0.0785286 0)
(2.53289 0.222092 0)
(1.83327 0.61901 0)
(1.3828 0.855633 0)
(1.29658 0.88944 0)
(1.2992 0.900665 0)
(1.34092 0.888937 0)
(1.3986 0.873558 0)
(1.45573 0.864975 0)
(3 6.47847e-09 0)
(3 3.96317e-08 0)
(3 1.38362e-07 0)
(3 3.8575e-07 0)
(3 1.01758e-06 0)
(2.99999 2.5272e-06 0)
(2.99999 6.35138e-06 0)
(2.99997 1.53148e-05 0)
(2.99992 3.83644e-05 0)
(2.9998 9.1231e-05 0)
(2.99952 0.000229395 0)
(2.99883 0.000542677 0)
(2.99718 0.00137026 0)
(2.99303 0.00325633 0)
(2.98293 0.00821562 0)
(2.95714 0.0200895 0)
(2.88875 0.0521394 0)
(2.69767 0.140629 0)
(2.15871 0.411141 0)
(1.54805 0.83542 0)
(1.35375 0.90278 0)
(1.33656 0.916101 0)
(1.36127 0.908606 0)
(1.41526 0.888168 0)
(1.47355 0.873302 0)
(3 4.27906e-09 0)
(3 2.86904e-08 0)
(3 9.38007e-08 0)
(3 2.78601e-07 0)
(3 6.95779e-07 0)
(3 1.81714e-06 0)
(2.99999 4.35121e-06 0)
(2.99998 1.09704e-05 0)
(2.99995 2.62995e-05 0)
(2.99987 6.5059e-05 0)
(2.99968 0.000158139 0)
(2.99924 0.000384267 0)
(2.99814 0.000950098 0)
(2.99548 0.00228523 0)
(2.98891 0.00572982 0)
(2.97268 0.0139255 0)
(2.9307 0.0356593 0)
(2.81802 0.0939153 0)
(2.49107 0.269075 0)
(1.8252 0.695182 0)
(1.45667 0.883221 0)
(1.3905 0.91452 0)
(1.3937 0.92186 0)
(1.43485 0.905684 0)
(1.49096 0.882895 0)
(3 2.97118e-09 0)
(3 1.93709e-08 0)
(3 6.48563e-08 0)
(3 1.88014e-07 0)
(3 4.77789e-07 0)
(3 1.22932e-06 0)
(2.99999 2.96449e-06 0)
(2.99999 7.42579e-06 0)
(2.99996 1.7753e-05 0)
(2.99991 4.39971e-05 0)
(2.99979 0.000105709 0)
(2.99949 0.000259414 0)
(2.99876 0.000627666 0)
(2.99701 0.0015325 0)
(2.99263 0.00374586 0)
(2.98199 0.00916299 0)
(2.95484 0.0228163 0)
(2.88301 0.0585005 0)
(2.6822 0.158982 0)
(2.13868 0.455174 0)
(1.59907 0.8479 0)
(1.4448 0.916016 0)
(1.42895 0.931289 0)
(1.45193 0.923733 0)
(1.50288 0.898379 0)
(3 2.13808e-09 0)
(3 1.28087e-08 0)
(3 4.5627e-08 0)
(3 1.24549e-07 0)
(3 3.34367e-07 0)
(3 8.16152e-07 0)
(3 2.06955e-06 0)
(2.99999 4.93883e-06 0)
(2.99998 1.23417e-05 0)
(2.99994 2.94294e-05 0)
(2.99986 7.28596e-05 0)
(2.99967 0.000175157 0)
(2.9992 0.000428758 0)
(2.99808 0.00104348 0)
(2.99526 0.00253354 0)
(2.98855 0.00625776 0)
(2.97153 0.0153612 0)
(2.9281 0.0388902 0)
(2.8106 0.102879 0)
(2.47118 0.293255 0)
(1.85214 0.724136 0)
(1.53306 0.898517 0)
(1.47542 0.930231 0)
(1.47854 0.936966 0)
(1.51705 0.919199 0)
(3 1.3731e-09 0)
(3 8.67366e-09 0)
(3 2.99948e-08 0)
(3 8.40381e-08 0)
(3 2.20351e-07 0)
(3 5.50466e-07 0)
(3 1.35699e-06 0)
(2.99999 3.34018e-06 0)
(2.99999 8.03712e-06 0)
(2.99996 1.99048e-05 0)
(2.99991 4.73266e-05 0)
(2.99979 0.000118042 0)
(2.99949 0.000278518 0)
(2.99877 0.000698656 0)
(2.99697 0.00164505 0)
(2.99268 0.0041474 0)
(2.98193 0.0098969 0)
(2.95511 0.0250784 0)
(2.88395 0.0637594 0)
(2.68502 0.174539 0)
(2.16433 0.491326 0)
(1.67244 0.861857 0)
(1.52937 0.931452 0)
(1.51136 0.946449 0)
(1.53032 0.938996 0)
(3 9.11617e-10 0)
(3 5.71507e-09 0)
(3 1.98174e-08 0)
(3 5.53422e-08 0)
(3 1.45439e-07 0)
(3 3.61546e-07 0)
(3 8.95755e-07 0)
(3 2.19088e-06 0)
(2.99999 5.30536e-06 0)
(2.99998 1.30359e-05 0)
(2.99995 3.11909e-05 0)
(2.99987 7.71458e-05 0)
(2.99968 0.000183513 0)
(2.99922 0.000454702 0)
(2.99814 0.00108443 0)
(2.99542 0.0026876 0)
(2.98895 0.0064629 0)
(2.97265 0.0161453 0)
(2.93121 0.0402116 0)
(2.82012 0.106581 0)
(2.50034 0.302781 0)
(1.92346 0.725775 0)
(1.61768 0.90809 0)
(1.55677 0.942832 0)
(1.55561 0.95023 0)
(3 5.83039e-10 0)
(3 3.77652e-09 0)
(3 1.26095e-08 0)
(3 3.66051e-08 0)
(3 9.25182e-08 0)
(3 2.37325e-07 0)
(3 5.73244e-07 0)
(3 1.41991e-06 0)
(2.99999 3.42897e-06 0)
(2.99999 8.33727e-06 0)
(2.99997 2.02948e-05 0)
(2.99992 4.87161e-05 0)
(2.9998 0.000120053 0)
(2.99952 0.000284493 0)
(2.99883 0.000708493 0)
(2.99716 0.00166935 0)
(2.99314 0.00418625 0)
(2.98311 0.00998119 0)
(2.95819 0.0251616 0)
(2.89282 0.0635642 0)
(2.71038 0.173245 0)
(2.2354 0.480589 0)
(1.76132 0.861227 0)
(1.61098 0.939546 0)
(1.58798 0.956165 0)
(3 3.63928e-10 0)
(3 2.41919e-09 0)
(3 7.99886e-09 0)
(3 2.3397e-08 0)
(3 5.88018e-08 0)
(3 1.52153e-07 0)
(3 3.61917e-07 0)
(3 9.12668e-07 0)
(3 2.14826e-06 0)
(2.99999 5.3683e-06 0)
(2.99998 1.2667e-05 0)
(2.99995 3.13583e-05 0)
(2.99988 7.47176e-05 0)
(2.99971 0.000182851 0)
(2.99929 0.000440385 0)
(2.99831 0.00106732 0)
(2.99587 0.00260684 0)
(2.99008 0.00628663 0)
(2.97557 0.015616 0)
(2.93924 0.0387216 0)
(2.84273 0.10181 0)
(2.56763 0.286487 0)
(2.02467 0.695012 0)
(1.7067 0.903135 0)
(1.63624 0.946861 0)
(3 2.39724e-10 0)
(3 1.46272e-09 0)
(3 5.16775e-09 0)
(3 1.41565e-08 0)
(3 3.77038e-08 0)
(3 9.24116e-08 0)
(3 2.30392e-07 0)
(3 5.56436e-07 0)
(3 1.35197e-06 0)
(2.99999 3.28398e-06 0)
(2.99999 7.86526e-06 0)
(2.99997 1.93089e-05 0)
(2.99993 4.55962e-05 0)
(2.99982 0.000113029 0)
(2.99957 0.000265244 0)
(2.99896 0.000659046 0)
(2.99748 0.00154657 0)
(2.99393 0.00385041 0)
(2.98513 0.0091414 0)
(2.9634 0.0228826 0)
(2.90699 0.0570286 0)
(2.7519 0.15315 0)
(2.33769 0.422427 0)
(1.86362 0.822846 0)
(1.69235 0.930048 0)
(3 1.50703e-10 0)
(3 9.10585e-10 0)
(3 3.21274e-09 0)
(3 8.81522e-09 0)
(3 2.34418e-08 0)
(3 5.71488e-08 0)
(3 1.44259e-07 0)
(3 3.41301e-07 0)
(3 8.52366e-07 0)
(3 2.00139e-06 0)
(2.99999 4.97927e-06 0)
(2.99998 1.17308e-05 0)
(2.99996 2.89339e-05 0)
(2.99989 6.87753e-05 0)
(2.99975 0.000167991 0)
(2.99938 0.000403423 0)
(2.99853 0.000975622 0)
(2.99641 0.00237541 0)
(2.99139 0.00571828 0)
(2.97885 0.0141386 0)
(2.94771 0.0348383 0)
(2.86574 0.0904557 0)
(2.63358 0.249944 0)
(2.13642 0.633394 0)
(1.79801 0.890278 0)
(3 8.77934e-11 0)
(3 5.74759e-10 0)
(3 1.90726e-09 0)
(3 5.55306e-09 0)
(3 1.39749e-08 0)
(3 3.58036e-08 0)
(3 8.58435e-08 0)
(3 2.12725e-07 0)
(3 5.08321e-07 0)
(3 1.23719e-06 0)
(3 2.9791e-06 0)
(2.99999 7.16037e-06 0)
(2.99997 1.74308e-05 0)
(2.99994 4.13642e-05 0)
(2.99985 0.000101642 0)
(2.99964 0.000239674 0)
(2.99913 0.000591396 0)
(2.99789 0.00139145 0)
(2.99492 0.00344666 0)
(2.98761 0.00817743 0)
(2.96971 0.0203941 0)
(2.92388 0.050427 0)
(2.8001 0.133636 0)
(2.46145 0.370863 0)
(1.9912 0.773009 0)
(3 5.41824e-11 0)
(3 3.42841e-10 0)
(3 1.1779e-09 0)
(3 3.31554e-09 0)
(3 8.5896e-09 0)
(3 2.15436e-08 0)
(3 5.23277e-08 0)
(3 1.28705e-07 0)
(3 3.07005e-07 0)
(3 7.5409e-07 0)
(3 1.78607e-06 0)
(2.99999 4.38495e-06 0)
(2.99998 1.0401e-05 0)
(2.99996 2.54427e-05 0)
(2.99991 6.04945e-05 0)
(2.99979 0.000147508 0)
(2.99949 0.000352819 0)
(2.99879 0.000854984 0)
(2.99705 0.00206121 0)
(2.99294 0.0049942 0)
(2.9827 0.0121799 0)
(2.95753 0.0300627 0)
(2.89216 0.0764599 0)
(2.70959 0.208199 0)
(2.27951 0.544271 0)
(3 3.35251e-11 0)
(3 2.01171e-10 0)
(3 7.13688e-10 0)
(3 1.94562e-09 0)
(3 5.19259e-09 0)
(3 1.25945e-08 0)
(3 3.16948e-08 0)
(3 7.48866e-08 0)
(3 1.85686e-07 0)
(3 4.38045e-07 0)
(3 1.07496e-06 0)
(3 2.55061e-06 0)
(2.99999 6.20038e-06 0)
(2.99998 1.48602e-05 0)
(2.99995 3.56919e-05 0)
(2.99988 8.64805e-05 0)
(2.99972 0.000205506 0)
(2.99931 0.000503227 0)
(2.99837 0.00118599 0)
(2.99603 0.00292847 0)
(2.99055 0.00693268 0)
(2.97687 0.017232 0)
(2.94314 0.0422473 0)
(2.85434 0.110289 0)
(2.60726 0.304877 0)
(3 1.8601e-11 0)
(3 1.22308e-10 0)
(3 4.04799e-10 0)
(3 1.17918e-09 0)
(3 2.95388e-09 0)
(3 7.5848e-09 0)
(3 1.80393e-08 0)
(3 4.48394e-08 0)
(3 1.05803e-07 0)
(3 2.59358e-07 0)
(3 6.15512e-07 0)
(3 1.48946e-06 0)
(3 3.56767e-06 0)
(2.99999 8.53518e-06 0)
(2.99997 2.06656e-05 0)
(2.99993 4.88102e-05 0)
(2.99984 0.000119345 0)
(2.9996 0.000279481 0)
(2.99907 0.000687126 0)
(2.99773 0.00160384 0)
(2.99461 0.00395647 0)
(2.98681 0.0093174 0)
(2.96801 0.0231163 0)
(2.91964 0.0568675 0)
(2.78951 0.150574 0)
(3 1.098e-11 0)
(3 7.07149e-11 0)
(3 2.38969e-10 0)
(3 6.81204e-10 0)
(3 1.74102e-09 0)
(3 4.38978e-09 0)
(3 1.05934e-08 0)
(3 2.59982e-08 0)
(3 6.18578e-08 0)
(3 1.50608e-07 0)
(3 3.58398e-07 0)
(3 8.66556e-07 0)
(3 2.07352e-06 0)
(2.99999 4.97462e-06 0)
(2.99998 1.19781e-05 0)
(2.99996 2.85423e-05 0)
(2.99991 6.92277e-05 0)
(2.99978 0.000163798 0)
(2.99947 0.000399044 0)
(2.99875 0.000944042 0)
(2.99697 0.00230369 0)
(2.9928 0.00547959 0)
(2.98243 0.0134523 0)
(2.95708 0.032817 0)
(2.89144 0.0836137 0)
(3 6.48916e-12 0)
(3 3.99446e-11 0)
(3 1.39357e-10 0)
(3 3.84553e-10 0)
(3 1.01177e-09 0)
(3 2.47454e-09 0)
(3 6.14448e-09 0)
(3 1.46383e-08 0)
(3 3.57659e-08 0)
(3 8.4781e-08 0)
(3 2.05764e-07 0)
(3 4.89539e-07 0)
(3 1.17899e-06 0)
(3 2.81817e-06 0)
(2.99999 6.74852e-06 0)
(2.99998 1.62349e-05 0)
(2.99995 3.85668e-05 0)
(2.99988 9.33719e-05 0)
(2.99972 0.000220685 0)
(2.99931 0.000536689 0)
(2.99838 0.00126564 0)
(2.99609 0.00308909 0)
(2.99072 0.00733245 0)
(2.97742 0.0180264 0)
(2.94477 0.0441964 0)
(3 3.57765e-12 0)
(3 2.31651e-11 0)
(3 7.73745e-11 0)
(3 2.2283e-10 0)
(3 5.62407e-10 0)
(3 1.42922e-09 0)
(3 3.40975e-09 0)
(3 8.41039e-09 0)
(3 1.98433e-08 0)
(3 4.83948e-08 0)
(3 1.14391e-07 0)
(3 2.7634e-07 0)
(3 6.56946e-07 0)
(3 1.57429e-06 0)
(3 3.76867e-06 0)
(2.99999 8.94928e-06 0)
(2.99997 2.15771e-05 0)
(2.99993 5.08582e-05 0)
(2.99984 0.000123343 0)
(2.99963 0.000288724 0)
(2.9991 0.000703302 0)
(2.99785 0.00164469 0)
(2.99486 0.00400941 0)
(2.98761 0.00946676 0)
(2.96989 0.0232122 0)
(3 2.06371e-12 0)
(3 1.27001e-11 0)
(3 4.44522e-11 0)
(3 1.22094e-10 0)
(3 3.22371e-10 0)
(3 7.86612e-10 0)
(3 1.94507e-09 0)
(3 4.64497e-09 0)
(3 1.1233e-08 0)
(3 2.6904e-08 0)
(3 6.41179e-08 0)
(3 1.54609e-07 0)
(3 3.65037e-07 0)
(3 8.87239e-07 0)
(3 2.07618e-06 0)
(2.99999 5.07658e-06 0)
(2.99998 1.18448e-05 0)
(2.99996 2.89461e-05 0)
(2.99991 6.7718e-05 0)
(2.9998 0.000164736 0)
(2.99951 0.000387751 0)
(2.99884 0.000937553 0)
(2.99724 0.00222982 0)
(2.99338 0.00536243 0)
(2.98405 0.0129701 0)
(3 1.12577e-12 0)
(3 7.14123e-12 0)
(3 2.43831e-11 0)
(3 6.84379e-11 0)
(3 1.76902e-10 0)
(3 4.38182e-10 0)
(3 1.06875e-09 0)
(3 2.57593e-09 0)
(3 6.18298e-09 0)
(3 1.48364e-08 0)
(3 3.52988e-08 0)
(3 8.49864e-08 0)
(3 2.01098e-07 0)
(3 4.85258e-07 0)
(3 1.14465e-06 0)
(3 2.7674e-06 0)
(2.99999 6.517e-06 0)
(2.99998 1.57535e-05 0)
(2.99995 3.71419e-05 0)
(2.99989 8.95912e-05 0)
(2.99974 0.00021169 0)
(2.99939 0.000509443 0)
(2.99854 0.00120988 0)
(2.99655 0.00290443 0)
(2.9917 0.00695095 0)
(3 6.27393e-13 0)
(3 3.92359e-12 0)
(3 1.3399e-11 0)
(3 3.77128e-11 0)
(3 9.66767e-11 0)
(3 2.40919e-10 0)
(3 5.84105e-10 0)
(3 1.4086e-09 0)
(3 3.385e-09 0)
(3 8.04308e-09 0)
(3 1.93765e-08 0)
(3 4.57026e-08 0)
(3 1.10458e-07 0)
(3 2.59305e-07 0)
(3 6.2741e-07 0)
(3 1.47203e-06 0)
(3 3.55787e-06 0)
(2.99999 8.35004e-06 0)
(2.99998 2.01316e-05 0)
(2.99994 4.74091e-05 0)
(2.99986 0.000113685 0)
(2.99967 0.000268766 0)
(2.99923 0.000641352 0)
(2.99816 0.00152627 0)
(2.99566 0.00362519 0)
(3 3.41049e-13 0)
(3 2.09704e-12 0)
(3 7.30115e-12 0)
(3 2.02491e-11 0)
(3 5.28842e-11 0)
(3 1.2981e-10 0)
(3 3.17489e-10 0)
(3 7.60456e-10 0)
(3 1.82423e-09 0)
(3 4.36362e-09 0)
(3 1.0347e-08 0)
(3 2.48598e-08 0)
(3 5.85125e-08 0)
(3 1.4118e-07 0)
(3 3.30957e-07 0)
(3 7.98729e-07 0)
(3 1.87389e-06 0)
(2.99999 4.51155e-06 0)
(2.99999 1.05997e-05 0)
(2.99997 2.54386e-05 0)
(2.99993 6.00366e-05 0)
(2.99983 0.000143175 0)
(2.99959 0.000339537 0)
(2.99904 0.000806299 0)
(2.99768 0.00192516 0)
(3 1.86195e-13 0)
(3 1.11403e-12 0)
(3 3.88553e-12 0)
(3 1.07654e-11 0)
(3 2.81903e-11 0)
(3 6.85035e-11 0)
(3 1.6917e-10 0)
(3 3.99107e-10 0)
(3 9.7233e-10 0)
(3 2.27418e-09 0)
(3 5.50914e-09 0)
(3 1.2898e-08 0)
(3 3.10589e-08 0)
(3 7.30468e-08 0)
(3 1.74615e-07 0)
(3 4.13894e-07 0)
(3 9.79877e-07 0)
(3 2.3399e-06 0)
(2.99999 5.49999e-06 0)
(2.99998 1.32227e-05 0)
(2.99996 3.08435e-05 0)
(2.99991 7.45227e-05 0)
(2.99978 0.000173456 0)
(2.99948 0.00041918 0)
(2.99878 0.000976731 0)
(3 6.91137e-14 0)
(3 5.66642e-13 0)
(3 1.98417e-12 0)
(3 5.62529e-12 0)
(3 1.4246e-11 0)
(3 3.58482e-11 0)
(3 8.4904e-11 0)
(3 2.0803e-10 0)
(3 4.84016e-10 0)
(3 1.17911e-09 0)
(3 2.72559e-09 0)
(3 6.61946e-09 0)
(3 1.5303e-08 0)
(3 3.69917e-08 0)
(3 8.58204e-08 0)
(3 2.05795e-07 0)
(3 4.80994e-07 0)
(3 1.14142e-06 0)
(3 2.69166e-06 0)
(2.99999 6.30898e-06 0)
(2.99998 1.5018e-05 0)
(2.99995 3.48121e-05 0)
(2.99988 8.34843e-05 0)
(2.99971 0.000191658 0)
(2.9993 0.000461699 0)
(3 4.89895e-14 0)
(3 2.74503e-13 0)
(3 9.57803e-13 0)
(3 2.7142e-12 0)
(3 6.86171e-12 0)
(3 1.73991e-11 0)
(3 4.11755e-11 0)
(3 9.99703e-11 0)
(3 2.34394e-10 0)
(3 5.57161e-10 0)
(3 1.31342e-09 0)
(3 3.06572e-09 0)
(3 7.3122e-09 0)
(3 1.67456e-08 0)
(3 4.0408e-08 0)
(3 9.13153e-08 0)
(3 2.21399e-07 0)
(3 4.96033e-07 0)
(3 1.20071e-06 0)
(2.99999 2.69054e-06 0)
(2.99999 6.43746e-06 0)
(2.99996 1.45046e-05 0)
(2.99991 3.41255e-05 0)
(2.9998 7.76366e-05 0)
(2.9995 0.000177972 0)
(3 2.32337e-14 0)
(3 1.16603e-13 0)
(3 4.46791e-13 0)
(3 1.18152e-12 0)
(3 3.19377e-12 0)
(3 7.45127e-12 0)
(3 1.90273e-11 0)
(3 4.25716e-11 0)
(3 1.06071e-10 0)
(3 2.35575e-10 0)
(3 5.7834e-10 0)
(3 1.29436e-09 0)
(3 3.12063e-09 0)
(3 7.07449e-09 0)
(3 1.66253e-08 0)
(3 3.85567e-08 0)
(3 8.7664e-08 0)
(3 2.08767e-07 0)
(3 4.55938e-07 0)
(3 1.12007e-06 0)
(2.99999 2.34943e-06 0)
(2.99997 5.90644e-06 0)
(2.99993 1.1994e-05 0)
(2.99983 3.03592e-05 0)
(2.99958 6.08137e-05 0)
(3 -6.90023e-15 0)
(3 2.64905e-14 0)
(3 1.37005e-13 0)
(3 3.38426e-13 0)
(3 9.6875e-13 0)
(3 2.07794e-12 0)
(3 5.61888e-12 0)
(3 1.14857e-11 0)
(3 3.02998e-11 0)
(3 6.29918e-11 0)
(3 1.59459e-10 0)
(3 3.50248e-10 0)
(3 8.25011e-10 0)
(3 1.94915e-09 0)
(3 4.18158e-09 0)
(3 1.07664e-08 0)
(3 2.10593e-08 0)
(3 5.85563e-08 0)
(3 1.0541e-07 0)
(3 3.10456e-07 0)
(2.99999 5.30106e-07 0)
(2.99997 1.5925e-06 0)
(2.99993 2.63431e-06 0)
(2.99984 7.83776e-06 0)
(2.9996 1.33058e-05 0)
(1.27873 1.07806 0)
(1.68964 0.878511 0)
(1.87394 0.615729 0)
(1.90268 0.353286 0)
(1.85463 0.135018 0)
(1.76305 -0.00880515 0)
(1.66867 -0.0454554 0)
(1.62036 -0.0156666 0)
(1.6121 0.0246646 0)
(1.61482 0.0452004 0)
(1.61808 0.0436115 0)
(1.6187 0.0326475 0)
(1.61662 0.0223255 0)
(1.61285 0.0143918 0)
(1.60764 0.0117509 0)
(1.60347 0.012863 0)
(1.60168 0.0154741 0)
(1.60102 0.0172517 0)
(1.60049 0.0172273 0)
(1.59967 0.0160531 0)
(1.59823 0.0147344 0)
(1.59539 0.0135392 0)
(1.58953 0.0128239 0)
(1.57705 0.0131448 0)
(1.55 0.0154483 0)
(1.49055 0.0215829 0)
(1.35794 0.0353358 0)
(1.06109 0.0663159 0)
(0.56421 0.134812 0)
(0.142048 0.174727 0)
(-0.0968631 0.148374 0)
(-0.279922 0.0865815 0)
(-0.454633 0.0324245 0)
(-0.586841 -0.00277318 0)
(-0.656806 -0.0216455 0)
(-0.674566 -0.0239082 0)
(-0.650839 -0.0146468 0)
(-0.606365 -0.0100222 0)
(-0.538165 -0.0193782 0)
(-0.44115 -0.0398467 0)
(-0.334692 -0.0493029 0)
(-0.227241 -0.0547589 0)
(-0.124695 -0.0570883 0)
(-0.0293367 -0.0625187 0)
(0.0743884 -0.0522955 0)
(0.152129 -0.0449514 0)
(0.226565 -0.0404169 0)
(0.293627 -0.0369228 0)
(0.353266 -0.0334927 0)
(0.406825 -0.0303388 0)
(0.45983 -0.0286151 0)
(0.51266 -0.0281829 0)
(0.562188 -0.0265866 0)
(0.608742 -0.0247279 0)
(0.65305 -0.0230995 0)
(0.695491 -0.0216953 0)
(0.736427 -0.0205024 0)
(0.775962 -0.0194079 0)
(0.814294 -0.0184267 0)
(0.851463 -0.0174956 0)
(0.887612 -0.0166443 0)
(0.922766 -0.0158308 0)
(0.95703 -0.0150824 0)
(0.99042 -0.0143692 0)
(1.02301 -0.0137125 0)
(1.05481 -0.0130837 0)
(1.0859 -0.0124953 0)
(1.11629 -0.0119208 0)
(1.14605 -0.0113691 0)
(1.17522 -0.0108213 0)
(1.20386 -0.0102883 0)
(1.23198 -0.00975879 0)
(1.25964 -0.0092465 0)
(1.28683 -0.00874106 0)
(1.31359 -0.00825676 0)
(1.3399 -0.00777939 0)
(1.36578 -0.00732401 0)
(1.39121 -0.00687269 0)
(1.41621 -0.00644284 0)
(1.44076 -0.00601501 0)
(1.46489 -0.00560923 0)
(1.48858 -0.00520482 0)
(1.51187 -0.0048209 0)
(1.53474 -0.00443679 0)
(1.55722 -0.00407315 0)
(1.57932 -0.00370699 0)
(1.60106 -0.00335839 0)
(1.62244 -0.00301139 0)
(1.64349 -0.0026797 0)
(1.66419 -0.00234633 0)
(1.68455 -0.00204316 0)
(1.70456 -0.00176481 0)
(1.72424 -0.0015192 0)
(1.74349 -0.00131968 0)
(1.76229 -0.00110959 0)
(1.7805 -0.000849658 0)
(1.79782 -0.000523124 0)
(1.81369 -0.00010512 0)
(1.8263 0.000529821 0)
(1.83565 0.00131327 0)
(1.37305 0.99032 0)
(1.68571 0.708467 0)
(1.8595 0.397167 0)
(1.9445 0.130396 0)
(1.99531 -0.0603602 0)
(2.02597 -0.161439 0)
(2.03575 -0.16861 0)
(2.03451 -0.128746 0)
(2.02136 -0.0807119 0)
(1.99956 -0.0421912 0)
(1.98209 -0.0203522 0)
(1.97657 -0.0134504 0)
(1.97682 -0.0151591 0)
(1.97833 -0.0198548 0)
(1.97932 -0.0223242 0)
(1.97919 -0.0218603 0)
(1.97852 -0.0196389 0)
(1.97705 -0.0173198 0)
(1.97522 -0.0152324 0)
(1.97402 -0.0135194 0)
(1.97311 -0.0122705 0)
(1.97154 -0.0110136 0)
(1.96815 -0.00929908 0)
(1.96037 -0.0063029 0)
(1.94254 -0.000349843 0)